 Entering Gaussian System, Link 0=g98
 Initial command:
 /usr/local/apps/g98/g98/l1.exe /wrk/Gau-89513.inp -scrdir=/wrk/
 Entering Link 1 = /usr/local/apps/g98/g98/l1.exe PID=     89505.
  
 Copyright (c) 1988,1990,1992,1993,1995,1998 Gaussian, Inc.
                  All Rights Reserved.
  
 This is part of the Gaussian(R) 98 program.  It is based on
 the Gaussian 94(TM) system (copyright 1995 Gaussian, Inc.),
 the Gaussian 92(TM) system (copyright 1992 Gaussian, Inc.),
 the Gaussian 90(TM) system (copyright 1990 Gaussian, Inc.),
 the Gaussian 88(TM) system (copyright 1988 Gaussian, Inc.),
 the Gaussian 86(TM) system (copyright 1986 Carnegie Mellon
 University), and the Gaussian 82(TM) system (copyright 1983
 Carnegie Mellon University). Gaussian is a federally registered
 trademark of Gaussian, Inc.
  
 This software contains proprietary and confidential information,
 including trade secrets, belonging to Gaussian, Inc.
  
 This software is provided under written license and may be
 used, copied, transmitted, or stored only in accord with that
 written license.
  
 The following legend is applicable only to US Government
 contracts under DFARS:
  
                    RESTRICTED RIGHTS LEGEND
  
 Use, duplication or disclosure by the US Government is subject
 to restrictions as set forth in subparagraph (c)(1)(ii) of the
 Rights in Technical Data and Computer Software clause at DFARS
 252.227-7013.
  
 Gaussian, Inc.
 Carnegie Office Park, Building 6, Pittsburgh, PA 15106 USA
  
 The following legend is applicable only to US Government
 contracts under FAR:
  
                    RESTRICTED RIGHTS LEGEND
  
 Use, reproduction and disclosure by the US Government is subject
 to restrictions as set forth in subparagraph (c) of the
 Commercial Computer Software - Restricted Rights clause at FAR
 52.227-19.
  
 Gaussian, Inc.
 Carnegie Office Park, Building 6, Pittsburgh, PA 15106 USA
  
  
 ---------------------------------------------------------------
 Warning -- This program may not be used in any manner that
 competes with the business of Gaussian, Inc. or will provide
 assistance to any competitor of Gaussian, Inc.  The licensee
 of this program is prohibited from giving any competitor of
 Gaussian, Inc. access to this program.  By using this program,
 the user acknowledges that Gaussian, Inc. is engaged in the
 business of creating and licensing software in the field of
 computational chemistry and represents and warrants to the
 licensee that it is not a competitor of Gaussian, Inc. and that
 it will not use this program in any manner prohibited above.
 ---------------------------------------------------------------
  

 Cite this work as:
 Gaussian 98, Revision A.7,
 M. J. Frisch, G. W. Trucks, H. B. Schlegel, G. E. Scuseria, 
 M. A. Robb, J. R. Cheeseman, V. G. Zakrzewski, J. A. Montgomery, Jr., 
 R. E. Stratmann, J. C. Burant, S. Dapprich, J. M. Millam, 
 A. D. Daniels, K. N. Kudin, M. C. Strain, O. Farkas, J. Tomasi, 
 V. Barone, M. Cossi, R. Cammi, B. Mennucci, C. Pomelli, C. Adamo, 
 S. Clifford, J. Ochterski, G. A. Petersson, P. Y. Ayala, Q. Cui, 
 K. Morokuma, D. K. Malick, A. D. Rabuck, K. Raghavachari, 
 J. B. Foresman, J. Cioslowski, J. V. Ortiz, A. G. Baboul, 
 B. B. Stefanov, G. Liu, A. Liashenko, P. Piskorz, I. Komaromi, 
 R. Gomperts, R. L. Martin, D. J. Fox, T. Keith, M. A. Al-Laham, 
 C. Y. Peng, A. Nanayakkara, C. Gonzalez, M. Challacombe, 
 P. M. W. Gill, B. Johnson, W. Chen, M. W. Wong, J. L. Andres, 
 C. Gonzalez, M. Head-Gordon, E. S. Replogle, and J. A. Pople, 
 Gaussian, Inc., Pittsburgh PA, 1998.

 *****************************************
 Gaussian 98:  SGI64-G98RevA.7 11-Apr-1999
                 7-May-2001 
 *****************************************
 %mem=24000000
 ------------------------
 #B3PW91/cc-pVTZ opt freq
 ------------------------
 1/14=-1,18=20,26=3,38=1/1,3;
 2/9=110,17=6,18=5/2;
 3/5=16,6=1,11=2,25=1,30=1/1,2,3;
 4//1;
 5/5=2,38=4,42=-6/2;
 6/7=2,8=2,9=2,10=2,28=1/1;
 7//1,2,3,16;
 1/14=-1,18=20/3(1);
 99//99;
 2/9=110/2;
 3/5=16,6=1,11=2,25=1,30=1/1,2,3;
 4/5=5,16=2/1;
 5/5=2,38=4,42=-6/2;
 7//1,2,3,16;
 1/14=-1,18=20/3(-5);
 2/9=110/2;
 6/7=2,8=2,9=2,10=2,19=2,28=1/1;
 99/9=1/99;
 --------------------------------
 1H imidazole C3H4N2 casno=288324
 --------------------------------
 Symbolic Z-matrix:
 Charge =  0 Multiplicity = 1
 N                     0.30938   0.        1.30938 
 H                     0.3125    0.       -1.6875 
 C                    -1.06875   0.       -0.28438 
 H                    -1.91875   0.       -0.79063 
 C                    -0.93438   0.        1.02812 
 H                    -1.675     0.        1.6875 
 H                     1.91875   0.        0.09063 
 C                     0.93438   0.        0.19063 
 N                     0.09688   0.       -0.775 

 GradGradGradGradGradGradGradGradGradGradGradGradGradGradGradGradGradGrad
 Berny optimization.
 Initialization pass.
                         ----------------------------
                         !    Initial Parameters    !
                         ! (Angstroms and Degrees)  !
 ------------------------                            -------------------------
 ! Name  Definition              Value          Derivative Info.             !
 -----------------------------------------------------------------------------
 ! R1    R(1,5)                  1.2752         estimate D2E/DX2             !
 ! R2    R(1,8)                  1.2815         estimate D2E/DX2             !
 ! R3    R(2,9)                  0.9376         estimate D2E/DX2             !
 ! R4    R(3,4)                  0.9893         estimate D2E/DX2             !
 ! R5    R(3,5)                  1.3194         estimate D2E/DX2             !
 ! R6    R(3,9)                  1.2647         estimate D2E/DX2             !
 ! R7    R(5,6)                  0.9916         estimate D2E/DX2             !
 ! R8    R(7,8)                  0.9894         estimate D2E/DX2             !
 ! R9    R(8,9)                  1.2782         estimate D2E/DX2             !
 ! A1    A(5,1,8)              106.4483         estimate D2E/DX2             !
 ! A2    A(4,3,5)              126.6232         estimate D2E/DX2             !
 ! A3    A(4,3,9)              126.3957         estimate D2E/DX2             !
 ! A4    A(5,3,9)              106.9812         estimate D2E/DX2             !
 ! A5    A(1,5,3)              108.5877         estimate D2E/DX2             !
 ! A6    A(1,5,6)              125.5794         estimate D2E/DX2             !
 ! A7    A(3,5,6)              125.8329         estimate D2E/DX2             !
 ! A8    A(1,8,7)              124.9909         estimate D2E/DX2             !
 ! A9    A(1,8,9)              109.8741         estimate D2E/DX2             !
 ! A10   A(7,8,9)              125.1349         estimate D2E/DX2             !
 ! A11   A(2,9,3)              126.122          estimate D2E/DX2             !
 ! A12   A(2,9,8)              125.7693         estimate D2E/DX2             !
 ! A13   A(3,9,8)              108.1088         estimate D2E/DX2             !
 ! D1    D(8,1,5,3)              0.             estimate D2E/DX2             !
 ! D2    D(8,1,5,6)            180.             estimate D2E/DX2             !
 ! D3    D(5,1,8,7)            180.             estimate D2E/DX2             !
 ! D4    D(5,1,8,9)              0.             estimate D2E/DX2             !
 ! D5    D(4,3,5,1)            180.             estimate D2E/DX2             !
 ! D6    D(4,3,5,6)              0.             estimate D2E/DX2             !
 ! D7    D(9,3,5,1)              0.             estimate D2E/DX2             !
 ! D8    D(9,3,5,6)            180.             estimate D2E/DX2             !
 ! D9    D(4,3,9,2)              0.             estimate D2E/DX2             !
 ! D10   D(4,3,9,8)            180.             estimate D2E/DX2             !
 ! D11   D(5,3,9,2)            180.             estimate D2E/DX2             !
 ! D12   D(5,3,9,8)              0.             estimate D2E/DX2             !
 ! D13   D(1,8,9,2)            180.             estimate D2E/DX2             !
 ! D14   D(1,8,9,3)              0.             estimate D2E/DX2             !
 ! D15   D(7,8,9,2)              0.             estimate D2E/DX2             !
 ! D16   D(7,8,9,3)            180.             estimate D2E/DX2             !
 -----------------------------------------------------------------------------
 Trust Radius=3.00D-01 FncErr=1.00D-07 GrdErr=1.00D-06
 Number of steps in this run=  48 maximum allowed number of steps= 100.
 GradGradGradGradGradGradGradGradGradGradGradGradGradGradGradGradGradGrad

                          Input orientation:                          
 ---------------------------------------------------------------------
 Center     Atomic     Atomic              Coordinates (Angstroms)
 Number     Number      Type              X           Y           Z
 ---------------------------------------------------------------------
    1          7             0        0.309375    0.000000    1.309375
    2          1             0        0.312500    0.000000   -1.687500
    3          6             0       -1.068750    0.000000   -0.284375
    4          1             0       -1.918750    0.000000   -0.790625
    5          6             0       -0.934375    0.000000    1.028125
    6          1             0       -1.675000    0.000000    1.687500
    7          1             0        1.918750    0.000000    0.090625
    8          6             0        0.934375    0.000000    0.190625
    9          7             0        0.096875    0.000000   -0.775000
 ---------------------------------------------------------------------
                    Distance matrix (angstroms):
                    1          2          3          4          5
     1  N    0.000000
     2  H    2.996877   0.000000
     3  C    2.106957   1.968911   0.000000
     4  H    3.061787   2.404758   0.989338   0.000000
     5  C    1.275153   2.988196   1.319361   2.068054   0.000000
     6  H    2.020080   3.916731   2.062966   2.490084   0.991615
     7  H    2.018772   2.396199   3.010944   3.937386   3.003203
     8  C    1.281494   1.978404   2.058673   3.017147   2.047836
     9  N    2.095179   0.937630   1.264672   2.015686   2.077194
                    6          7          8          9
     6  H    0.000000
     7  H    3.932563   0.000000
     8  C    3.008234   0.989441   0.000000
     9  N    3.033718   2.017061   1.278217   0.000000
 Stoichiometry    C3H4N2
 Framework group  CS[SG(C3H4N2)]
 Deg. of freedom   15
 Full point group                 CS      NOp   2
 Largest Abelian subgroup         CS      NOp   2
 Largest concise Abelian subgroup C1      NOp   1
                         Standard orientation:                         
 ---------------------------------------------------------------------
 Center     Atomic     Atomic              Coordinates (Angstroms)
 Number     Number      Type              X           Y           Z
 ---------------------------------------------------------------------
    1          7             0       -0.674969   -0.941702    0.000000
    2          1             0       -0.005288    1.979393    0.000000
    3          6             0        1.025744    0.302019    0.000000
    4          1             0        1.967693    0.604544    0.000000
    5          6             0        0.600174   -0.946822    0.000000
    6          1             0        1.173884   -1.755622    0.000000
    7          1             0       -1.969692    0.607211    0.000000
    8          6             0       -1.032886    0.288794    0.000000
    9          7             0        0.000000    1.041778    0.000000
 ---------------------------------------------------------------------
 Rotational constants (GHZ):     11.1543393     10.4769603      5.4025219
 Isotopes: N-14,H-1,C-12,H-1,C-12,H-1,H-1,C-12,N-14
 Standard basis: CC-pVTZ (5D, 7F)
 There are   140 symmetry adapted basis functions of A'  symmetry.
 There are    66 symmetry adapted basis functions of A"  symmetry.
 Crude estimate of integral set expansion from redundant integrals=1.000.
 Integral buffers will be    131072 words long.
 Raffenetti 2 integral format.
 Two-electron integral symmetry is turned on.
   206 basis functions      343 primitive gaussians
    18 alpha electrons       18 beta electrons
       nuclear repulsion energy       173.5664837334 Hartrees.
 One-electron integrals computed using PRISM.
 NBasis=   206 RedAO= T  NBF=   140    66
 NBsUse=   206 1.00D-04 NBFU=   140    66
 Projected INDO Guess.
 Initial guess orbital symmetries:
       Occupied  (A') (A') (A') (A') (A') (A') (A') (A') (A') (A')
                 (A') (A") (A') (A') (A') (A") (A') (A")
       Virtual   (A") (A') (A') (A") (A') (A') (A') (A') (A') (A')
                 (A') (A') (A') (A') (A') (A') (A') (A') (A') (A')
                 (A') (A') (A') (A') (A') (A') (A') (A') (A') (A')
                 (A') (A') (A') (A') (A') (A') (A') (A') (A') (A')
                 (A') (A') (A') (A') (A') (A') (A') (A') (A') (A')
                 (A') (A') (A') (A') (A') (A') (A') (A') (A') (A')
                 (A') (A') (A') (A') (A') (A') (A') (A') (A') (A')
                 (A') (A') (A') (A') (A') (A') (A') (A') (A') (A')
                 (A') (A') (A') (A') (A') (A') (A') (A') (A') (A')
                 (A') (A') (A') (A') (A') (A') (A') (A') (A') (A')
                 (A') (A') (A') (A') (A') (A') (A') (A') (A') (A')
                 (A') (A') (A') (A') (A') (A') (A') (A') (A') (A')
                 (A') (A') (A') (A') (A') (A') (A') (A") (A") (A")
                 (A") (A") (A") (A") (A") (A") (A") (A") (A") (A")
                 (A") (A") (A") (A") (A") (A") (A") (A") (A") (A")
                 (A") (A") (A") (A") (A") (A") (A") (A") (A") (A")
                 (A") (A") (A") (A") (A") (A") (A") (A") (A") (A")
                 (A") (A") (A") (A") (A") (A") (A") (A") (A") (A")
                 (A") (A") (A") (A") (A") (A") (A") (A")
 Requested convergence on RMS density matrix=1.00D-08 within  64 cycles.
 Requested convergence on MAX density matrix=1.00D-06.
 Integral accuracy reduced to 1.0D-05 until final iterations.
 Initial convergence to 1.0D-05 achieved.  Increase integral accuracy.
 SCF Done:  E(RB+HF-PW91) =  -226.156882636     A.U. after   13 cycles
             Convg  =    0.8215D-08             -V/T =  1.9991
             S**2   =   0.0000

 **********************************************************************

            Population analysis using the SCF density.

 **********************************************************************

 Orbital Symmetries:
       Occupied  (A') (A') (A') (A') (A') (A') (A') (A') (A') (A')
                 (A') (A") (A') (A') (A') (A") (A') (A")
       Virtual   (A") (A') (A") (A') (A') (A') (A') (A') (A') (A')
                 (A") (A') (A') (A") (A') (A") (A') (A') (A') (A')
                 (A') (A") (A') (A") (A') (A') (A') (A") (A') (A')
                 (A') (A") (A") (A') (A") (A') (A") (A') (A') (A')
                 (A') (A") (A') (A') (A") (A') (A') (A") (A') (A')
                 (A') (A") (A') (A") (A') (A') (A') (A") (A') (A')
                 (A') (A") (A') (A") (A') (A") (A') (A') (A') (A')
                 (A") (A') (A") (A') (A') (A") (A') (A') (A") (A')
                 (A') (A") (A') (A") (A') (A') (A") (A') (A") (A')
                 (A") (A') (A") (A') (A") (A') (A") (A') (A") (A')
                 (A") (A') (A') (A') (A") (A") (A') (A") (A') (A')
                 (A") (A') (A') (A") (A') (A') (A') (A") (A") (A')
                 (A') (A") (A') (A') (A") (A') (A') (A") (A') (A")
                 (A") (A") (A') (A') (A') (A') (A') (A') (A") (A')
                 (A') (A") (A') (A") (A') (A") (A') (A') (A") (A')
                 (A") (A') (A') (A") (A') (A") (A') (A') (A") (A")
                 (A") (A') (A') (A') (A") (A') (A') (A') (A") (A")
                 (A') (A') (A') (A') (A") (A') (A') (A') (A') (A')
                 (A') (A') (A') (A') (A') (A') (A') (A')
  The electronic state is 1-A'.
 Alpha  occ. eigenvalues --  -14.36085 -14.26582 -10.18374 -10.15621 -10.13870
 Alpha  occ. eigenvalues --   -1.08280  -0.90832  -0.77105  -0.65396  -0.61903
 Alpha  occ. eigenvalues --   -0.59663  -0.47617  -0.46901  -0.44557  -0.42548
 Alpha  occ. eigenvalues --   -0.30462  -0.25961  -0.23464
 Alpha virt. eigenvalues --    0.04212   0.04369   0.08292   0.09423   0.10570
 Alpha virt. eigenvalues --    0.12606   0.17256   0.20085   0.23791   0.24282
 Alpha virt. eigenvalues --    0.27447   0.32398   0.33033   0.33983   0.35781
 Alpha virt. eigenvalues --    0.37460   0.39383   0.43361   0.45997   0.47338
 Alpha virt. eigenvalues --    0.48908   0.50518   0.52567   0.54110   0.56187
 Alpha virt. eigenvalues --    0.57881   0.59206   0.60851   0.60976   0.64055
 Alpha virt. eigenvalues --    0.67872   0.73580   0.74891   0.76474   0.77755
 Alpha virt. eigenvalues --    0.83469   0.85945   0.86466   0.88496   0.98580
 Alpha virt. eigenvalues --    1.00826   1.02539   1.03331   1.03764   1.05607
 Alpha virt. eigenvalues --    1.06873   1.10257   1.16305   1.18526   1.22024
 Alpha virt. eigenvalues --    1.28327   1.29759   1.31558   1.34545   1.39832
 Alpha virt. eigenvalues --    1.44342   1.45335   1.47271   1.48371   1.50983
 Alpha virt. eigenvalues --    1.56028   1.58894   1.63304   1.66980   1.69745
 Alpha virt. eigenvalues --    1.74510   1.84025   1.88158   1.89814   2.01441
 Alpha virt. eigenvalues --    2.05963   2.06060   2.10961   2.13909   2.17303
 Alpha virt. eigenvalues --    2.27154   2.30925   2.42251   2.49296   2.56123
 Alpha virt. eigenvalues --    2.57694   2.61200   2.64378   2.69476   2.70878
 Alpha virt. eigenvalues --    2.71790   2.73216   2.83197   2.85260   2.90000
 Alpha virt. eigenvalues --    2.90332   2.91520   2.92138   2.95897   2.98261
 Alpha virt. eigenvalues --    3.00626   3.01218   3.02689   3.04870   3.08159
 Alpha virt. eigenvalues --    3.09453   3.10909   3.13343   3.14285   3.17578
 Alpha virt. eigenvalues --    3.18027   3.20384   3.29127   3.29464   3.36423
 Alpha virt. eigenvalues --    3.39778   3.43652   3.46727   3.48875   3.48935
 Alpha virt. eigenvalues --    3.57753   3.62511   3.64011   3.71598   3.72091
 Alpha virt. eigenvalues --    3.74908   3.75504   3.77645   3.84053   3.85294
 Alpha virt. eigenvalues --    3.86461   3.90438   3.95748   4.00647   4.00961
 Alpha virt. eigenvalues --    4.04661   4.06401   4.11358   4.22434   4.24970
 Alpha virt. eigenvalues --    4.25545   4.28624   4.31659   4.36427   4.44413
 Alpha virt. eigenvalues --    4.46794   4.52066   4.56241   4.64320   4.64872
 Alpha virt. eigenvalues --    4.70808   4.72294   4.79167   4.79732   4.85396
 Alpha virt. eigenvalues --    4.88457   4.90724   4.94273   5.01093   5.01642
 Alpha virt. eigenvalues --    5.10222   5.10571   5.20303   5.20531   5.24325
 Alpha virt. eigenvalues --    5.31025   5.32476   5.36713   5.40636   5.42405
 Alpha virt. eigenvalues --    5.47778   5.57339   5.59830   5.66190   5.68409
 Alpha virt. eigenvalues --    5.71301   5.78390   5.88038   6.03487   6.17830
 Alpha virt. eigenvalues --    6.21150   6.29188   6.43841   6.56284   6.65487
 Alpha virt. eigenvalues --    6.78918   7.33571   7.38506  10.09824  13.42890
 Alpha virt. eigenvalues --   13.97865  15.31629  16.14648
          Condensed to atoms (all electrons):
              1          2          3          4          5          6
  1  N    6.299370   0.009103  -0.143785   0.011407   0.571000  -0.023208
  2  H    0.009103   0.536758  -0.037367  -0.002790   0.004713  -0.000491
  3  C   -0.143785  -0.037367   5.077478   0.408103   0.599241  -0.051817
  4  H    0.011407  -0.002790   0.408103   0.516725  -0.033582  -0.001461
  5  C    0.571000   0.004713   0.599241  -0.033582   4.849060   0.430663
  6  H   -0.023208  -0.000491  -0.051817  -0.001461   0.430663   0.493381
  7  H   -0.022159  -0.003107   0.007658  -0.000292   0.005527  -0.000311
  8  C    0.635268  -0.039325  -0.159612   0.007331  -0.173572   0.009396
  9  N   -0.144332   0.401621   0.460920  -0.037273  -0.093185   0.003209
              7          8          9
  1  N   -0.022159   0.635268  -0.144332
  2  H   -0.003107  -0.039325   0.401621
  3  C    0.007658  -0.159612   0.460920
  4  H   -0.000292   0.007331  -0.037273
  5  C    0.005527  -0.173572  -0.093185
  6  H   -0.000311   0.009396   0.003209
  7  H    0.494156   0.426914  -0.043110
  8  C    0.426914   4.871193   0.508024
  9  N   -0.043110   0.508024   5.883244
 Total atomic charges:
              1
  1  N   -0.192664
  2  H    0.130885
  3  C   -0.160820
  4  H    0.131833
  5  C   -0.159865
  6  H    0.140639
  7  H    0.134726
  8  C   -0.085618
  9  N    0.060882
 Sum of Mulliken charges=   0.00000
 Atomic charges with hydrogens summed into heavy atoms:
              1
  1  N   -0.192664
  2  H    0.000000
  3  C   -0.028987
  4  H    0.000000
  5  C   -0.019225
  6  H    0.000000
  7  H    0.000000
  8  C    0.049108
  9  N    0.191767
 Sum of Mulliken charges=   0.00000
 Electronic spatial extent (au):  <R**2>=   258.4379
 Charge=     0.0000 electrons
 Dipole moment (Debye):
    X=     1.1008    Y=     3.6271    Z=     0.0000  Tot=     3.7904
 Quadrupole moment (Debye-Ang):
   XX=   -26.8086   YY=   -25.4591   ZZ=   -30.3983
   XY=    -3.1398   XZ=     0.0000   YZ=     0.0000
 Octapole moment (Debye-Ang**2):
  XXX=     0.3588  YYY=    15.3902  ZZZ=     0.0000  XYY=     4.7501
  XXY=     4.9877  XXZ=     0.0000  XZZ=    -0.7214  YZZ=     1.3717
  YYZ=     0.0000  XYZ=     0.0000
 Hexadecapole moment (Debye-Ang**3):
 XXXX=  -140.3725 YYYY=  -128.9578 ZZZZ=   -30.8752 XXXY=    -2.9631
 XXXZ=     0.0000 YYYX=    -7.1211 YYYZ=     0.0000 ZZZX=     0.0000
 ZZZY=     0.0000 XXYY=   -51.8962 XXZZ=   -34.2202 YYZZ=   -31.8820
 XXYZ=     0.0000 YYXZ=     0.0000 ZZXY=     0.6559
 N-N= 1.735664837334D+02 E-N=-8.746613401890D+02  KE= 2.263589242597D+02
 Symmetry A'   KE= 2.180866186773D+02
 Symmetry A"   KE= 8.272305582331D+00
 ***** Axes restored to original set *****
 -------------------------------------------------------------------
 Center     Atomic                   Forces (Hartrees/Bohr)
 Number     Number              X              Y              Z
 -------------------------------------------------------------------
    1          7           0.077187437    0.000000000    0.076043082
    2          1           0.017398918    0.000000000   -0.074382410
    3          6          -0.071829194    0.000000000    0.019212869
    4          1          -0.065078384    0.000000000   -0.048579172
    5          6          -0.025189753    0.000000000   -0.015473635
    6          1          -0.056302419    0.000000000    0.056423443
    7          1           0.080532607    0.000000000   -0.010722082
    8          6           0.012400341    0.000000000    0.043476001
    9          7           0.030880447    0.000000000   -0.045998097
 -------------------------------------------------------------------
 Cartesian Forces:  Max     0.080532607 RMS     0.042444282

 GradGradGradGradGradGradGradGradGradGradGradGradGradGradGradGradGradGrad
 Berny optimization.
 Internal  Forces:  Max     0.120677286 RMS     0.043242709
 Search for a local minimum.
 Step number   1 out of a maximum of  48
 All quantities printed in internal units (Hartrees-Bohrs-Radians)
 Second derivative matrix not updated -- first step.
     Eigenvalues ---    0.03211   0.03261   0.03288   0.03318   0.03352
     Eigenvalues ---    0.03407   0.16000   0.16000   0.16000   0.16000
     Eigenvalues ---    0.22000   0.22917   0.49193   0.49594   0.49613
     Eigenvalues ---    0.54578   0.60577   0.63413   0.68379   0.73836
     Eigenvalues ---    0.765081000.000001000.000001000.000001000.00000
     Eigenvalues --- 1000.000001000.000001000.000001000.000001000.00000
     Eigenvalues --- 1000.000001000.000001000.000001000.000001000.00000
     Eigenvalues --- 1000.000001000.000001000.00000
 RFO step:  Lambda=-9.72758952D-02.
 Linear search not attempted -- first point.
 Maximum step size (   0.300) exceeded in Quadratic search.
    -- Step size scaled by   0.806
 Iteration  1 RMS(Cart)=  0.06554006 RMS(Int)=  0.00046837
 Iteration  2 RMS(Cart)=  0.00054412 RMS(Int)=  0.00010385
 Iteration  3 RMS(Cart)=  0.00000034 RMS(Int)=  0.00010385
 Variable       Old X    -DE/DX   Delta X   Delta X   Delta X     New X
                                 (Linear)    (Quad)   (Total)
    R1        2.40969   0.10890   0.00000   0.10165   0.10159   2.51128
    R2        2.42167   0.05385   0.00000   0.05064   0.05044   2.47212
    R3        1.77186   0.07639   0.00000   0.08753   0.08753   1.85939
    R4        1.86958   0.08077   0.00000   0.10965   0.10965   1.97922
    R5        2.49323   0.07282   0.00000   0.08232   0.08247   2.57570
    R6        2.38988   0.12068   0.00000   0.11340   0.11355   2.50343
    R7        1.87388   0.07957   0.00000   0.10879   0.10879   1.98267
    R8        1.86977   0.08120   0.00000   0.11027   0.11027   1.98005
    R9        2.41548   0.10237   0.00000   0.10005   0.09999   2.51547
    A1        1.85787   0.00426   0.00000  -0.00287  -0.00318   1.85470
    A2        2.20999   0.01536   0.00000   0.03938   0.03923   2.24922
    A3        2.20602  -0.00040   0.00000  -0.00996  -0.01011   2.19591
    A4        1.86717  -0.01496   0.00000  -0.02942  -0.02912   1.83805
    A5        1.89521   0.00948   0.00000   0.02068   0.02078   1.91599
    A6        2.19177  -0.00916   0.00000  -0.02416  -0.02421   2.16756
    A7        2.19620  -0.00033   0.00000   0.00349   0.00344   2.19964
    A8        2.18150   0.00150   0.00000   0.00580   0.00589   2.18740
    A9        1.91767   0.00174   0.00000   0.00326   0.00307   1.92073
   A10        2.18402  -0.00324   0.00000  -0.00906  -0.00896   2.17506
   A11        2.20124   0.00010   0.00000  -0.00467  -0.00473   2.19652
   A12        2.19509   0.00042   0.00000  -0.00367  -0.00373   2.19136
   A13        1.88685  -0.00052   0.00000   0.00835   0.00845   1.89531
    D1        0.00000   0.00000   0.00000   0.00000   0.00000   0.00000
    D2        3.14159   0.00000   0.00000   0.00000   0.00000   3.14159
    D3        3.14159   0.00000   0.00000   0.00000   0.00000   3.14159
    D4        0.00000   0.00000   0.00000   0.00000   0.00000   0.00000
    D5        3.14159   0.00000   0.00000   0.00000   0.00000   3.14159
    D6        0.00000   0.00000   0.00000   0.00000   0.00000   0.00000
    D7        0.00000   0.00000   0.00000   0.00000   0.00000   0.00000
    D8        3.14159   0.00000   0.00000   0.00000   0.00000   3.14159
    D9        0.00000   0.00000   0.00000   0.00000   0.00000   0.00000
   D10        3.14159   0.00000   0.00000   0.00000   0.00000   3.14159
   D11        3.14159   0.00000   0.00000   0.00000   0.00000   3.14159
   D12        0.00000   0.00000   0.00000   0.00000   0.00000   0.00000
   D13        3.14159   0.00000   0.00000   0.00000   0.00000   3.14159
   D14        0.00000   0.00000   0.00000   0.00000   0.00000   0.00000
   D15        0.00000   0.00000   0.00000   0.00000   0.00000   0.00000
   D16        3.14159   0.00000   0.00000   0.00000   0.00000   3.14159
         Item               Value     Threshold  Converged?
 Maximum Force            0.120677     0.000450     NO 
 RMS     Force            0.043243     0.000300     NO 
 Maximum Displacement     0.188818     0.001800     NO 
 RMS     Displacement     0.065480     0.001200     NO 
 Predicted change in Energy=-2.718845D-02
 GradGradGradGradGradGradGradGradGradGradGradGradGradGradGradGradGradGrad

                          Input orientation:                          
 ---------------------------------------------------------------------
 Center     Atomic     Atomic              Coordinates (Angstroms)
 Number     Number      Type              X           Y           Z
 ---------------------------------------------------------------------
    1          7             0        0.477050    0.000000    1.110184
    2          1             0        0.475768    0.000000   -1.996156
    3          6             0       -0.982450    0.000000   -0.538896
    4          1             0       -1.871034    0.000000   -1.093317
    5          6             0       -0.818484    0.000000    0.814209
    6          1             0       -1.586568    0.000000    1.528933
    7          1             0        2.155648    0.000000   -0.145527
    8          6             0        1.113968    0.000000   -0.032484
    9          7             0        0.243915    0.000000   -1.039914
 ---------------------------------------------------------------------
                    Distance matrix (angstroms):
                    1          2          3          4          5
     1  N    0.000000
     2  H    3.106340   0.000000
     3  C    2.202182   2.061555   0.000000
     4  H    3.220080   2.514478   1.047360   0.000000
     5  C    1.328913   3.094065   1.363003   2.178650   0.000000
     6  H    2.105676   4.084053   2.154269   2.637635   1.049182
     7  H    2.096306   2.499364   3.162656   4.136722   3.125149
     8  C    1.308188   2.064777   2.156716   3.167902   2.109802
     9  N    2.162700   0.983949   1.324760   2.115623   2.136928
                    6          7          8          9
     6  H    0.000000
     7  H    4.099756   0.000000
     8  C    3.119443   1.047795   0.000000
     9  N    3.154306   2.110604   1.331130   0.000000
 Stoichiometry    C3H4N2
 Framework group  CS[SG(C3H4N2)]
 Deg. of freedom   15
 Full point group                 CS      NOp   2
 Largest Abelian subgroup         CS      NOp   2
 Largest concise Abelian subgroup C1      NOp   1
                         Standard orientation:                         
 ---------------------------------------------------------------------
 Center     Atomic     Atomic              Coordinates (Angstroms)
 Number     Number      Type              X           Y           Z
 ---------------------------------------------------------------------
    1          7             0       -0.709958   -0.968765    0.000000
    2          1             0       -0.011222    2.057969    0.000000
    3          6             0        1.082554    0.310496    0.000000
    4          1             0        2.072936    0.651240    0.000000
    5          6             0        0.618953   -0.971242    0.000000
    6          1             0        1.206943   -1.840180    0.000000
    7          1             0       -2.063740    0.631789    0.000000
    8          6             0       -1.074042    0.287737    0.000000
    9          7             0        0.000000    1.074084    0.000000
 ---------------------------------------------------------------------
 Rotational constants (GHZ):     10.2120359      9.8345836      5.0098781
 Isotopes: N-14,H-1,C-12,H-1,C-12,H-1,H-1,C-12,N-14
 Standard basis: CC-pVTZ (5D, 7F)
 There are   140 symmetry adapted basis functions of A'  symmetry.
 There are    66 symmetry adapted basis functions of A"  symmetry.
 Crude estimate of integral set expansion from redundant integrals=1.000.
 Integral buffers will be    131072 words long.
 Raffenetti 2 integral format.
 Two-electron integral symmetry is turned on.
   206 basis functions      343 primitive gaussians
    18 alpha electrons       18 beta electrons
       nuclear repulsion energy       166.9960978749 Hartrees.
 One-electron integrals computed using PRISM.
 NBasis=   206 RedAO= T  NBF=   140    66
 NBsUse=   206 1.00D-04 NBFU=   140    66
 Initial guess read from the read-write file:
 Initial guess orbital symmetries:
       Occupied  (A') (A') (A') (A') (A') (A') (A') (A') (A') (A')
                 (A') (A") (A') (A') (A') (A") (A') (A")
       Virtual   (A") (A') (A") (A') (A') (A') (A') (A') (A') (A')
                 (A") (A') (A') (A") (A') (A") (A') (A') (A') (A')
                 (A') (A") (A') (A") (A') (A') (A') (A") (A') (A')
                 (A') (A") (A") (A') (A") (A') (A") (A') (A') (A')
                 (A') (A") (A') (A') (A") (A') (A') (A") (A') (A')
                 (A') (A") (A') (A") (A') (A') (A') (A") (A') (A')
                 (A') (A") (A') (A") (A') (A") (A') (A') (A') (A')
                 (A") (A') (A") (A') (A') (A") (A') (A') (A") (A')
                 (A') (A") (A') (A") (A') (A') (A") (A') (A") (A')
                 (A") (A') (A") (A') (A") (A') (A") (A') (A") (A')
                 (A") (A') (A') (A') (A") (A") (A') (A") (A') (A')
                 (A") (A') (A') (A") (A') (A') (A') (A") (A") (A')
                 (A') (A") (A') (A') (A") (A') (A') (A") (A') (A")
                 (A") (A") (A') (A') (A') (A') (A') (A') (A") (A')
                 (A') (A") (A') (A") (A') (A") (A') (A') (A") (A')
                 (A") (A') (A') (A") (A') (A") (A') (A') (A") (A")
                 (A") (A') (A') (A') (A") (A') (A') (A') (A") (A")
                 (A') (A') (A') (A') (A") (A') (A') (A') (A') (A')
                 (A') (A') (A') (A') (A') (A') (A') (A')
 Requested convergence on RMS density matrix=1.00D-08 within  64 cycles.
 Requested convergence on MAX density matrix=1.00D-06.
 Integral accuracy reduced to 1.0D-05 until final iterations.
 Initial convergence to 1.0D-05 achieved.  Increase integral accuracy.
 SCF Done:  E(RB+HF-PW91) =  -226.205915542     A.U. after   12 cycles
             Convg  =    0.4551D-08             -V/T =  2.0045
             S**2   =   0.0000
 ***** Axes restored to original set *****
 -------------------------------------------------------------------
 Center     Atomic                   Forces (Hartrees/Bohr)
 Number     Number              X              Y              Z
 -------------------------------------------------------------------
    1          7           0.029443260    0.000000000    0.021918678
    2          1           0.004624124    0.000000000   -0.020195732
    3          6          -0.026011251    0.000000000    0.020891776
    4          1          -0.015964322    0.000000000   -0.016990369
    5          6          -0.011593567    0.000000000   -0.016088977
    6          1          -0.014221499    0.000000000    0.018045815
    7          1           0.022734177    0.000000000   -0.004816707
    8          6          -0.005589969    0.000000000    0.020527655
    9          7           0.016579046    0.000000000   -0.023292139
 -------------------------------------------------------------------
 Cartesian Forces:  Max     0.029443260 RMS     0.015109968

 GradGradGradGradGradGradGradGradGradGradGradGradGradGradGradGradGradGrad
 Berny optimization.
 Internal  Forces:  Max     0.039309988 RMS     0.012623850
 Search for a local minimum.
 Step number   2 out of a maximum of  48
 All quantities printed in internal units (Hartrees-Bohrs-Radians)
 Update second derivatives using information from points  1  2
 Trust test= 1.80D+00 RLast= 3.00D-01 DXMaxT set to 4.24D-01
     Eigenvalues ---    0.03209   0.03262   0.03288   0.03314   0.03351
     Eigenvalues ---    0.03406   0.15901   0.16000   0.16000   0.16001
     Eigenvalues ---    0.22148   0.22826   0.49297   0.49601   0.50863
     Eigenvalues ---    0.55548   0.60933   0.63857   0.70360   0.72601
     Eigenvalues ---    0.751671000.000001000.000001000.000001000.00000
     Eigenvalues --- 1000.000001000.000001000.000001000.000001000.00000
     Eigenvalues --- 1000.000001000.000001000.000001000.000001000.00000
     Eigenvalues --- 1000.000001000.000001000.00000
 RFO step:  Lambda=-1.72636484D-03.
 Quartic linear search produced a step of  0.51301.
 Iteration  1 RMS(Cart)=  0.03573227 RMS(Int)=  0.00060467
 Iteration  2 RMS(Cart)=  0.00071039 RMS(Int)=  0.00006769
 Iteration  3 RMS(Cart)=  0.00000061 RMS(Int)=  0.00006768
 Variable       Old X    -DE/DX   Delta X   Delta X   Delta X     New X
                                 (Linear)    (Quad)   (Total)
    R1        2.51128   0.03433   0.05212   0.00512   0.05715   2.56843
    R2        2.47212   0.01037   0.02588  -0.01125   0.01453   2.48665
    R3        1.85939   0.02072   0.04490  -0.00166   0.04324   1.90263
    R4        1.97922   0.02254   0.05625   0.00208   0.05833   2.03755
    R5        2.57570   0.01443   0.04231  -0.01449   0.02786   2.60356
    R6        2.50343   0.03931   0.05825   0.00917   0.06755   2.57098
    R7        1.98267   0.02270   0.05581   0.00371   0.05951   2.04218
    R8        1.98005   0.02312   0.05657   0.00350   0.06007   2.04012
    R9        2.51547   0.02876   0.05130  -0.00105   0.05028   2.56575
    A1        1.85470  -0.00114  -0.00163  -0.02048  -0.02235   1.83234
    A2        2.24922   0.00742   0.02013   0.03797   0.05801   2.30723
    A3        2.19591  -0.00437  -0.00519  -0.04403  -0.04930   2.14661
    A4        1.83805  -0.00305  -0.01494   0.00606  -0.00872   1.82934
    A5        1.91599   0.00397   0.01066   0.01026   0.02089   1.93688
    A6        2.16756  -0.00548  -0.01242  -0.02993  -0.04234   2.12522
    A7        2.19964   0.00152   0.00176   0.01967   0.02145   2.22109
    A8        2.18740   0.00007   0.00302   0.00390   0.00694   2.19434
    A9        1.92073   0.00450   0.00157   0.02708   0.02861   1.94934
   A10        2.17506  -0.00457  -0.00460  -0.03098  -0.03555   2.13951
   A11        2.19652   0.00189  -0.00243   0.00939   0.00689   2.20340
   A12        2.19136   0.00239  -0.00191   0.01353   0.01154   2.20290
   A13        1.89531  -0.00427   0.00434  -0.02292  -0.01843   1.87688
    D1        0.00000   0.00000   0.00000   0.00000   0.00000   0.00000
    D2        3.14159   0.00000   0.00000   0.00000   0.00000   3.14159
    D3        3.14159   0.00000   0.00000   0.00000   0.00000   3.14159
    D4        0.00000   0.00000   0.00000   0.00000   0.00000   0.00000
    D5        3.14159   0.00000   0.00000   0.00000   0.00000   3.14159
    D6        0.00000   0.00000   0.00000   0.00000   0.00000   0.00000
    D7        0.00000   0.00000   0.00000   0.00000   0.00000   0.00000
    D8        3.14159   0.00000   0.00000   0.00000   0.00000   3.14159
    D9        0.00000   0.00000   0.00000   0.00000   0.00000   0.00000
   D10        3.14159   0.00000   0.00000   0.00000   0.00000   3.14159
   D11        3.14159   0.00000   0.00000   0.00000   0.00000   3.14159
   D12        0.00000   0.00000   0.00000   0.00000   0.00000   0.00000
   D13        3.14159   0.00000   0.00000   0.00000   0.00000   3.14159
   D14        0.00000   0.00000   0.00000   0.00000   0.00000   0.00000
   D15        0.00000   0.00000   0.00000   0.00000   0.00000   0.00000
   D16        3.14159   0.00000   0.00000   0.00000   0.00000   3.14159
         Item               Value     Threshold  Converged?
 Maximum Force            0.039310     0.000450     NO 
 RMS     Force            0.012624     0.000300     NO 
 Maximum Displacement     0.112306     0.001800     NO 
 RMS     Displacement     0.035667     0.001200     NO 
 Predicted change in Energy=-8.204656D-03
 GradGradGradGradGradGradGradGradGradGradGradGradGradGradGradGradGradGrad

                          Input orientation:                          
 ---------------------------------------------------------------------
 Center     Atomic     Atomic              Coordinates (Angstroms)
 Number     Number      Type              X           Y           Z
 ---------------------------------------------------------------------
    1          7             0        0.490335    0.000000    1.135425
    2          1             0        0.486822    0.000000   -2.040992
    3          6             0       -1.012824    0.000000   -0.545824
    4          1             0       -1.899916    0.000000   -1.158719
    5          6             0       -0.831704    0.000000    0.819965
    6          1             0       -1.598348    0.000000    1.581619
    7          1             0        2.187110    0.000000   -0.159568
    8          6             0        1.116324    0.000000   -0.022017
    9          7             0        0.245321    0.000000   -1.063554
 ---------------------------------------------------------------------
                    Distance matrix (angstroms):
                    1          2          3          4          5
     1  N    0.000000
     2  H    3.176419   0.000000
     3  C    2.255234   2.117656   0.000000
     4  H    3.313064   2.544587   1.078227   0.000000
     5  C    1.359155   3.150172   1.377745   2.248614   0.000000
     6  H    2.135810   4.179862   2.206547   2.756882   1.080676
     7  H    2.134491   2.535890   3.223162   4.207385   3.173755
     8  C    1.315878   2.114836   2.192634   3.223320   2.122203
     9  N    2.212587   1.006831   1.360505   2.147346   2.169706
                    6          7          8          9
     6  H    0.000000
     7  H    4.166704   0.000000
     8  C    3.152950   1.079585   0.000000
     9  N    3.224292   2.141901   1.357736   0.000000
 Stoichiometry    C3H4N2
 Framework group  CS[SG(C3H4N2)]
 Deg. of freedom   15
 Full point group                 CS      NOp   2
 Largest Abelian subgroup         CS      NOp   2
 Largest concise Abelian subgroup C1      NOp   1
                         Standard orientation:                         
 ---------------------------------------------------------------------
 Center     Atomic     Atomic              Coordinates (Angstroms)
 Number     Number      Type              X           Y           Z
 ---------------------------------------------------------------------
    1          7             0       -0.732422   -0.989644    0.000000
    2          1             0       -0.015906    2.104907    0.000000
    3          6             0        1.109802    0.311238    0.000000
    4          1             0        2.111843    0.709341    0.000000
    5          6             0        0.626691   -0.979028    0.000000
    6          1             0        1.202778   -1.893350    0.000000
    7          1             0       -2.095167    0.653213    0.000000
    8          6             0       -1.082592    0.278787    0.000000
    9          7             0        0.000000    1.098202    0.000000
 ---------------------------------------------------------------------
 Rotational constants (GHZ):      9.9274954      9.4116550      4.8313478
 Isotopes: N-14,H-1,C-12,H-1,C-12,H-1,H-1,C-12,N-14
 Standard basis: CC-pVTZ (5D, 7F)
 There are   140 symmetry adapted basis functions of A'  symmetry.
 There are    66 symmetry adapted basis functions of A"  symmetry.
 Crude estimate of integral set expansion from redundant integrals=1.000.
 Integral buffers will be    131072 words long.
 Raffenetti 2 integral format.
 Two-electron integral symmetry is turned on.
   206 basis functions      343 primitive gaussians
    18 alpha electrons       18 beta electrons
       nuclear repulsion energy       163.9434542362 Hartrees.
 One-electron integrals computed using PRISM.
 NBasis=   206 RedAO= T  NBF=   140    66
 NBsUse=   206 1.00D-04 NBFU=   140    66
 Initial guess read from the read-write file:
 Initial guess orbital symmetries:
       Occupied  (A') (A') (A') (A') (A') (A') (A') (A') (A') (A')
                 (A') (A') (A") (A') (A') (A") (A') (A")
       Virtual   (A") (A') (A") (A') (A') (A') (A') (A') (A') (A')
                 (A") (A') (A') (A") (A') (A') (A") (A') (A') (A')
                 (A') (A") (A') (A') (A") (A') (A') (A') (A") (A')
                 (A') (A") (A") (A') (A") (A') (A") (A') (A') (A')
                 (A') (A") (A') (A') (A") (A') (A') (A") (A') (A')
                 (A") (A') (A') (A") (A') (A') (A') (A") (A') (A')
                 (A') (A") (A') (A") (A') (A") (A') (A') (A') (A')
                 (A') (A") (A') (A") (A') (A") (A') (A') (A") (A')
                 (A') (A") (A') (A') (A") (A') (A") (A') (A") (A')
                 (A") (A') (A") (A') (A") (A') (A") (A') (A') (A")
                 (A') (A") (A') (A') (A") (A") (A') (A') (A") (A')
                 (A") (A') (A') (A') (A") (A') (A') (A") (A') (A')
                 (A") (A") (A') (A') (A') (A") (A') (A") (A") (A')
                 (A") (A") (A') (A') (A') (A') (A') (A') (A") (A')
                 (A') (A") (A') (A') (A") (A') (A') (A") (A") (A')
                 (A') (A") (A') (A') (A") (A') (A") (A") (A') (A')
                 (A") (A') (A") (A") (A') (A') (A') (A") (A') (A")
                 (A') (A') (A') (A') (A") (A') (A') (A') (A') (A')
                 (A') (A') (A') (A') (A') (A') (A') (A')
 Requested convergence on RMS density matrix=1.00D-08 within  64 cycles.
 Requested convergence on MAX density matrix=1.00D-06.
 Integral accuracy reduced to 1.0D-05 until final iterations.
 Initial convergence to 1.0D-05 achieved.  Increase integral accuracy.
 SCF Done:  E(RB+HF-PW91) =  -226.212320684     A.U. after   11 cycles
             Convg  =    0.9169D-08             -V/T =  2.0068
             S**2   =   0.0000
 ***** Axes restored to original set *****
 -------------------------------------------------------------------
 Center     Atomic                   Forces (Hartrees/Bohr)
 Number     Number              X              Y              Z
 -------------------------------------------------------------------
    1          7           0.007150027    0.000000000   -0.006546873
    2          1          -0.000376342    0.000000000    0.002065566
    3          6          -0.006946660    0.000000000    0.010921204
    4          1           0.001536778    0.000000000    0.000444621
    5          6          -0.010666944    0.000000000   -0.006449013
    6          1           0.001137183    0.000000000   -0.000928039
    7          1          -0.000741155    0.000000000   -0.000246347
    8          6           0.001700014    0.000000000    0.004655300
    9          7           0.007207099    0.000000000   -0.003916418
 -------------------------------------------------------------------
 Cartesian Forces:  Max     0.010921204 RMS     0.004382039

 GradGradGradGradGradGradGradGradGradGradGradGradGradGradGradGradGradGrad
 Berny optimization.
 Internal  Forces:  Max     0.008335531 RMS     0.002554011
 Search for a local minimum.
 Step number   3 out of a maximum of  48
 All quantities printed in internal units (Hartrees-Bohrs-Radians)
 Update second derivatives using information from points  1  2  3
 Trust test= 7.81D-01 RLast= 1.88D-01 DXMaxT set to 5.65D-01
     Eigenvalues ---    0.03206   0.03261   0.03287   0.03305   0.03349
     Eigenvalues ---    0.03404   0.15273   0.16000   0.16001   0.16002
     Eigenvalues ---    0.22208   0.23512   0.44125   0.49329   0.49620
     Eigenvalues ---    0.55856   0.58945   0.63578   0.65903   0.74187
     Eigenvalues ---    0.747881000.000001000.000001000.000001000.00000
     Eigenvalues --- 1000.000001000.000001000.000001000.000001000.00000
     Eigenvalues --- 1000.000001000.000001000.000001000.000001000.00000
     Eigenvalues --- 1000.000001000.000001000.00000
 RFO step:  Lambda=-4.36865798D-04.
 Quartic linear search produced a step of  0.01198.
 Iteration  1 RMS(Cart)=  0.00508454 RMS(Int)=  0.00001461
 Iteration  2 RMS(Cart)=  0.00001422 RMS(Int)=  0.00000329
 Iteration  3 RMS(Cart)=  0.00000000 RMS(Int)=  0.00000329
 Variable       Old X    -DE/DX   Delta X   Delta X   Delta X     New X
                                 (Linear)    (Quad)   (Total)
    R1        2.56843   0.00700   0.00068   0.01072   0.01141   2.57984
    R2        2.48665  -0.00499   0.00017  -0.00666  -0.00648   2.48016
    R3        1.90263  -0.00210   0.00052  -0.00228  -0.00177   1.90087
    R4        2.03755  -0.00152   0.00070  -0.00149  -0.00079   2.03676
    R5        2.60356  -0.00834   0.00033  -0.01245  -0.01212   2.59144
    R6        2.57098   0.00823   0.00081   0.01263   0.01343   2.58441
    R7        2.04218  -0.00146   0.00071  -0.00139  -0.00068   2.04150
    R8        2.04012  -0.00070   0.00072   0.00019   0.00091   2.04103
    R9        2.56575  -0.00060   0.00060   0.00061   0.00121   2.56696
    A1        1.83234   0.00359  -0.00027   0.01271   0.01245   1.84479
    A2        2.30723   0.00042   0.00070   0.00312   0.00382   2.31105
    A3        2.14661  -0.00060  -0.00059  -0.00540  -0.00599   2.14063
    A4        1.82934   0.00019  -0.00010   0.00227   0.00217   1.83151
    A5        1.93688  -0.00189   0.00025  -0.00808  -0.00782   1.92905
    A6        2.12522   0.00079  -0.00051   0.00247   0.00196   2.12718
    A7        2.22109   0.00110   0.00026   0.00561   0.00586   2.22695
    A8        2.19434   0.00149   0.00008   0.00765   0.00773   2.20207
    A9        1.94934  -0.00227   0.00034  -0.01008  -0.00975   1.93960
   A10        2.13951   0.00078  -0.00043   0.00244   0.00201   2.14152
   A11        2.20340  -0.00007   0.00008  -0.00088  -0.00079   2.20261
   A12        2.20290  -0.00031   0.00014  -0.00230  -0.00215   2.20075
   A13        1.87688   0.00039  -0.00022   0.00318   0.00295   1.87983
    D1        0.00000   0.00000   0.00000   0.00000   0.00000   0.00000
    D2        3.14159   0.00000   0.00000   0.00000   0.00000   3.14159
    D3        3.14159   0.00000   0.00000   0.00000   0.00000   3.14159
    D4        0.00000   0.00000   0.00000   0.00000   0.00000   0.00000
    D5        3.14159   0.00000   0.00000   0.00000   0.00000   3.14159
    D6        0.00000   0.00000   0.00000   0.00000   0.00000   0.00000
    D7        0.00000   0.00000   0.00000   0.00000   0.00000   0.00000
    D8        3.14159   0.00000   0.00000   0.00000   0.00000   3.14159
    D9        0.00000   0.00000   0.00000   0.00000   0.00000   0.00000
   D10        3.14159   0.00000   0.00000   0.00000   0.00000   3.14159
   D11        3.14159   0.00000   0.00000   0.00000   0.00000   3.14159
   D12        0.00000   0.00000   0.00000   0.00000   0.00000   0.00000
   D13        3.14159   0.00000   0.00000   0.00000   0.00000   3.14159
   D14        0.00000   0.00000   0.00000   0.00000   0.00000   0.00000
   D15        0.00000   0.00000   0.00000   0.00000   0.00000   0.00000
   D16        3.14159   0.00000   0.00000   0.00000   0.00000   3.14159
         Item               Value     Threshold  Converged?
 Maximum Force            0.008336     0.000450     NO 
 RMS     Force            0.002554     0.000300     NO 
 Maximum Displacement     0.014448     0.001800     NO 
 RMS     Displacement     0.005082     0.001200     NO 
 Predicted change in Energy=-2.191356D-04
 GradGradGradGradGradGradGradGradGradGradGradGradGradGradGradGradGradGrad

                          Input orientation:                          
 ---------------------------------------------------------------------
 Center     Atomic     Atomic              Coordinates (Angstroms)
 Number     Number      Type              X           Y           Z
 ---------------------------------------------------------------------
    1          7             0        0.491888    0.000000    1.121163
    2          1             0        0.488923    0.000000   -2.045164
    3          6             0       -1.015740    0.000000   -0.547448
    4          1             0       -1.899032    0.000000   -1.165076
    5          6             0       -0.837907    0.000000    0.812306
    6          1             0       -1.601195    0.000000    1.576817
    7          1             0        2.194738    0.000000   -0.168233
    8          6             0        1.123652    0.000000   -0.029223
    9          7             0        0.248784    0.000000   -1.068353
 ---------------------------------------------------------------------
                    Distance matrix (angstroms):
                    1          2          3          4          5
     1  N    0.000000
     2  H    3.166329   0.000000
     3  C    2.248823   2.123009   0.000000
     4  H    3.308079   2.544973   1.077807   0.000000
     5  C    1.365191   3.150495   1.371334   2.244110   0.000000
     6  H    2.142106   4.181787   2.203465   2.758022   1.080317
     7  H    2.135940   2.536272   3.232796   4.213389   3.187223
     8  C    1.312446   2.113504   2.201263   3.229053   2.134452
     9  N    2.202971   1.005896   1.367613   2.149993   2.172044
                    6          7          8          9
     6  H    0.000000
     7  H    4.177835   0.000000
     8  C    3.162935   1.080068   0.000000
     9  N    3.227901   2.144050   1.358376   0.000000
 Stoichiometry    C3H4N2
 Framework group  CS[SG(C3H4N2)]
 Deg. of freedom   15
 Full point group                 CS      NOp   2
 Largest Abelian subgroup         CS      NOp   2
 Largest concise Abelian subgroup C1      NOp   1
                         Standard orientation:                         
 ---------------------------------------------------------------------
 Center     Atomic     Atomic              Coordinates (Angstroms)
 Number     Number      Type              X           Y           Z
 ---------------------------------------------------------------------
    1          7             0       -0.734172   -0.980514    0.000000
    2          1             0       -0.011943    2.102346    0.000000
    3          6             0        1.113118    0.301955    0.000000
    4          1             0        2.113628    0.702763    0.000000
    5          6             0        0.631018   -0.981843    0.000000
    6          1             0        1.200662   -1.899770    0.000000
    7          1             0       -2.099563    0.662028    0.000000
    8          6             0       -1.088066    0.283319    0.000000
    9          7             0        0.000000    1.096520    0.000000
 ---------------------------------------------------------------------
 Rotational constants (GHZ):      9.8271574      9.4867835      4.8269856
 Isotopes: N-14,H-1,C-12,H-1,C-12,H-1,H-1,C-12,N-14
 Standard basis: CC-pVTZ (5D, 7F)
 There are   140 symmetry adapted basis functions of A'  symmetry.
 There are    66 symmetry adapted basis functions of A"  symmetry.
 Crude estimate of integral set expansion from redundant integrals=1.000.
 Integral buffers will be    131072 words long.
 Raffenetti 2 integral format.
 Two-electron integral symmetry is turned on.
   206 basis functions      343 primitive gaussians
    18 alpha electrons       18 beta electrons
       nuclear repulsion energy       163.8572980683 Hartrees.
 One-electron integrals computed using PRISM.
 NBasis=   206 RedAO= T  NBF=   140    66
 NBsUse=   206 1.00D-04 NBFU=   140    66
 Initial guess read from the read-write file:
 Initial guess orbital symmetries:
       Occupied  (A') (A') (A') (A') (A') (A') (A') (A') (A') (A')
                 (A') (A') (A") (A') (A') (A") (A') (A")
       Virtual   (A") (A') (A") (A') (A') (A') (A') (A') (A') (A')
                 (A") (A') (A') (A") (A') (A') (A") (A') (A') (A')
                 (A') (A') (A") (A') (A") (A') (A') (A') (A") (A')
                 (A') (A") (A") (A') (A") (A') (A") (A') (A') (A')
                 (A') (A') (A") (A') (A") (A') (A') (A") (A') (A')
                 (A") (A') (A') (A") (A') (A') (A') (A") (A') (A')
                 (A') (A") (A') (A') (A") (A") (A') (A') (A') (A')
                 (A') (A") (A') (A") (A') (A") (A') (A') (A") (A')
                 (A') (A') (A") (A') (A") (A') (A") (A') (A") (A")
                 (A') (A') (A') (A") (A') (A") (A") (A') (A') (A')
                 (A") (A') (A") (A") (A') (A") (A') (A') (A') (A")
                 (A') (A") (A') (A') (A") (A') (A') (A") (A') (A')
                 (A") (A") (A') (A') (A') (A") (A') (A") (A") (A')
                 (A") (A") (A') (A') (A') (A') (A') (A') (A") (A')
                 (A') (A") (A') (A') (A') (A") (A') (A") (A') (A')
                 (A") (A") (A') (A') (A") (A') (A") (A") (A') (A')
                 (A') (A") (A') (A") (A") (A') (A") (A') (A') (A")
                 (A') (A') (A') (A') (A") (A') (A') (A') (A') (A')
                 (A') (A') (A') (A') (A') (A') (A') (A')
 Requested convergence on RMS density matrix=1.00D-08 within  64 cycles.
 Requested convergence on MAX density matrix=1.00D-06.
 SCF Done:  E(RB+HF-PW91) =  -226.212562881     A.U. after    9 cycles
             Convg  =    0.5506D-08             -V/T =  2.0068
             S**2   =   0.0000
 ***** Axes restored to original set *****
 -------------------------------------------------------------------
 Center     Atomic                   Forces (Hartrees/Bohr)
 Number     Number              X              Y              Z
 -------------------------------------------------------------------
    1          7           0.004788737    0.000000000   -0.000197565
    2          1          -0.000625577    0.000000000    0.001029139
    3          6          -0.002059032    0.000000000    0.004230482
    4          1           0.001189294    0.000000000    0.000294886
    5          6          -0.003240238    0.000000000   -0.003913860
    6          1           0.001367325    0.000000000   -0.000748048
    7          1          -0.001132988    0.000000000    0.000151857
    8          6          -0.003637160    0.000000000    0.002874791
    9          7           0.003349638    0.000000000   -0.003721682
 -------------------------------------------------------------------
 Cartesian Forces:  Max     0.004788737 RMS     0.002144564

 GradGradGradGradGradGradGradGradGradGradGradGradGradGradGradGradGradGrad
 Berny optimization.
 Internal  Forces:  Max     0.003054738 RMS     0.001076871
 Search for a local minimum.
 Step number   4 out of a maximum of  48
 All quantities printed in internal units (Hartrees-Bohrs-Radians)
 Update second derivatives using information from points  1  2  3  4
 Trust test= 1.11D+00 RLast= 3.14D-02 DXMaxT set to 5.65D-01
     Eigenvalues ---    0.03205   0.03261   0.03287   0.03304   0.03350
     Eigenvalues ---    0.03405   0.14182   0.15999   0.16001   0.16059
     Eigenvalues ---    0.21763   0.30288   0.44879   0.48925   0.49534
     Eigenvalues ---    0.49681   0.56474   0.60300   0.64350   0.70032
     Eigenvalues ---    0.762931000.000001000.000001000.000001000.00000
     Eigenvalues --- 1000.000001000.000001000.000001000.000001000.00000
     Eigenvalues --- 1000.000001000.000001000.000001000.000001000.00000
     Eigenvalues --- 1000.000001000.000001000.00000
 RFO step:  Lambda=-1.21777584D-04.
 Quartic linear search produced a step of  0.12161.
 Iteration  1 RMS(Cart)=  0.00229877 RMS(Int)=  0.00000521
 Iteration  2 RMS(Cart)=  0.00000573 RMS(Int)=  0.00000254
 Iteration  3 RMS(Cart)=  0.00000000 RMS(Int)=  0.00000254
 Variable       Old X    -DE/DX   Delta X   Delta X   Delta X     New X
                                 (Linear)    (Quad)   (Total)
    R1        2.57984   0.00212   0.00139   0.00575   0.00713   2.58697
    R2        2.48016  -0.00300  -0.00079  -0.00537  -0.00616   2.47400
    R3        1.90087  -0.00115  -0.00021  -0.00157  -0.00178   1.89909
    R4        2.03676  -0.00114  -0.00010  -0.00159  -0.00169   2.03507
    R5        2.59144  -0.00305  -0.00147  -0.00647  -0.00794   2.58350
    R6        2.58441   0.00142   0.00163   0.00531   0.00694   2.59135
    R7        2.04150  -0.00150  -0.00008  -0.00240  -0.00249   2.03902
    R8        2.04103  -0.00114   0.00011  -0.00132  -0.00121   2.03983
    R9        2.56696  -0.00020   0.00015   0.00076   0.00091   2.56787
    A1        1.84479  -0.00138   0.00151  -0.00564  -0.00413   1.84067
    A2        2.31105   0.00037   0.00046   0.00350   0.00396   2.31502
    A3        2.14063  -0.00052  -0.00073  -0.00506  -0.00579   2.13484
    A4        1.83151   0.00015   0.00026   0.00156   0.00182   1.83333
    A5        1.92905   0.00074  -0.00095   0.00272   0.00176   1.93081
    A6        2.12718  -0.00082   0.00024  -0.00504  -0.00479   2.12239
    A7        2.22695   0.00008   0.00071   0.00232   0.00304   2.22998
    A8        2.20207  -0.00099   0.00094  -0.00337  -0.00243   2.19964
    A9        1.93960   0.00198  -0.00119   0.00783   0.00665   1.94624
   A10        2.14152  -0.00099   0.00025  -0.00446  -0.00422   2.13730
   A11        2.20261   0.00040  -0.00010   0.00091   0.00081   2.20343
   A12        2.20075   0.00109  -0.00026   0.00555   0.00529   2.20603
   A13        1.87983  -0.00149   0.00036  -0.00646  -0.00610   1.87373
    D1        0.00000   0.00000   0.00000   0.00000   0.00000   0.00000
    D2        3.14159   0.00000   0.00000   0.00000   0.00000   3.14159
    D3        3.14159   0.00000   0.00000   0.00000   0.00000   3.14159
    D4        0.00000   0.00000   0.00000   0.00000   0.00000   0.00000
    D5        3.14159   0.00000   0.00000   0.00000   0.00000   3.14159
    D6        0.00000   0.00000   0.00000   0.00000   0.00000   0.00000
    D7        0.00000   0.00000   0.00000   0.00000   0.00000   0.00000
    D8        3.14159   0.00000   0.00000   0.00000   0.00000   3.14159
    D9        0.00000   0.00000   0.00000   0.00000   0.00000   0.00000
   D10        3.14159   0.00000   0.00000   0.00000   0.00000   3.14159
   D11        3.14159   0.00000   0.00000   0.00000   0.00000   3.14159
   D12        0.00000   0.00000   0.00000   0.00000   0.00000   0.00000
   D13        3.14159   0.00000   0.00000   0.00000   0.00000   3.14159
   D14        0.00000   0.00000   0.00000   0.00000   0.00000   0.00000
   D15        0.00000   0.00000   0.00000   0.00000   0.00000   0.00000
   D16        3.14159   0.00000   0.00000   0.00000   0.00000   3.14159
         Item               Value     Threshold  Converged?
 Maximum Force            0.003055     0.000450     NO 
 RMS     Force            0.001077     0.000300     NO 
 Maximum Displacement     0.005989     0.001800     NO 
 RMS     Displacement     0.002300     0.001200     NO 
 Predicted change in Energy=-6.375347D-05
 GradGradGradGradGradGradGradGradGradGradGradGradGradGradGradGradGradGrad

                          Input orientation:                          
 ---------------------------------------------------------------------
 Center     Atomic     Atomic              Coordinates (Angstroms)
 Number     Number      Type              X           Y           Z
 ---------------------------------------------------------------------
    1          7             0        0.494529    0.000000    1.122297
    2          1             0        0.488816    0.000000   -2.046092
    3          6             0       -1.016420    0.000000   -0.544678
    4          1             0       -1.896800    0.000000   -1.164900
    5          6             0       -0.838533    0.000000    0.810829
    6          1             0       -1.598232    0.000000    1.577055
    7          1             0        2.191897    0.000000   -0.166332
    8          6             0        1.121498    0.000000   -0.026998
    9          7             0        0.250315    0.000000   -1.069850
 ---------------------------------------------------------------------
                    Distance matrix (angstroms):
                    1          2          3          4          5
     1  N    0.000000
     2  H    3.168395   0.000000
     3  C    2.249839   2.126024   0.000000
     4  H    3.309037   2.543160   1.076914   0.000000
     5  C    1.368966   3.150215   1.367130   2.241302   0.000000
     6  H    2.141601   4.181264   2.200058   2.758162   1.079002
     7  H    2.131109   2.536530   3.230549   4.208870   3.184078
     8  C    1.309186   2.115899   2.199701   3.225669   2.131590
     9  N    2.205708   1.004954   1.371285   2.149218   2.173141
                    6          7          8          9
     6  H    0.000000
     7  H    4.171868   0.000000
     8  C    3.157517   1.079430   0.000000
     9  N    3.228503   2.141514   1.358859   0.000000
 Stoichiometry    C3H4N2
 Framework group  CS[SG(C3H4N2)]
 Deg. of freedom   15
 Full point group                 CS      NOp   2
 Largest Abelian subgroup         CS      NOp   2
 Largest concise Abelian subgroup C1      NOp   1
                         Standard orientation:                         
 ---------------------------------------------------------------------
 Center     Atomic     Atomic              Coordinates (Angstroms)
 Number     Number      Type              X           Y           Z
 ---------------------------------------------------------------------
    1          7             0       -0.737243   -0.980053    0.000000
    2          1             0       -0.009804    2.103704    0.000000
    3          6             0        1.113766    0.298830    0.000000
    4          1             0        2.112301    0.702157    0.000000
    5          6             0        0.631723   -0.980497    0.000000
    6          1             0        1.196867   -1.899658    0.000000
    7          1             0       -2.096372    0.661408    0.000000
    8          6             0       -1.085870    0.281862    0.000000
    9          7             0        0.000000    1.098798    0.000000
 ---------------------------------------------------------------------
 Rotational constants (GHZ):      9.8324071      9.4814534      4.8268708
 Isotopes: N-14,H-1,C-12,H-1,C-12,H-1,H-1,C-12,N-14
 Standard basis: CC-pVTZ (5D, 7F)
 There are   140 symmetry adapted basis functions of A'  symmetry.
 There are    66 symmetry adapted basis functions of A"  symmetry.
 Crude estimate of integral set expansion from redundant integrals=1.000.
 Integral buffers will be    131072 words long.
 Raffenetti 2 integral format.
 Two-electron integral symmetry is turned on.
   206 basis functions      343 primitive gaussians
    18 alpha electrons       18 beta electrons
       nuclear repulsion energy       163.8639099886 Hartrees.
 One-electron integrals computed using PRISM.
 NBasis=   206 RedAO= T  NBF=   140    66
 NBsUse=   206 1.00D-04 NBFU=   140    66
 Initial guess read from the read-write file:
 Initial guess orbital symmetries:
       Occupied  (A') (A') (A') (A') (A') (A') (A') (A') (A') (A')
                 (A') (A') (A") (A') (A') (A") (A') (A")
       Virtual   (A") (A') (A") (A') (A') (A') (A') (A') (A') (A')
                 (A") (A') (A') (A") (A') (A') (A") (A') (A') (A')
                 (A') (A') (A") (A') (A") (A') (A') (A') (A") (A')
                 (A') (A") (A") (A') (A") (A') (A") (A') (A') (A')
                 (A') (A') (A") (A') (A") (A') (A') (A") (A') (A')
                 (A") (A') (A') (A") (A') (A') (A') (A") (A') (A')
                 (A') (A") (A') (A') (A") (A") (A') (A') (A') (A')
                 (A') (A") (A') (A") (A') (A") (A') (A') (A") (A')
                 (A') (A') (A") (A') (A") (A') (A") (A') (A") (A")
                 (A') (A') (A') (A") (A') (A") (A") (A') (A') (A')
                 (A") (A') (A") (A") (A') (A") (A') (A') (A') (A")
                 (A') (A") (A') (A') (A") (A') (A') (A") (A') (A')
                 (A") (A") (A') (A') (A') (A") (A') (A") (A") (A')
                 (A") (A") (A') (A') (A') (A') (A') (A') (A") (A')
                 (A') (A") (A') (A') (A") (A') (A') (A") (A') (A')
                 (A") (A") (A') (A') (A") (A') (A") (A") (A') (A')
                 (A') (A") (A') (A") (A") (A') (A") (A') (A') (A")
                 (A') (A') (A') (A') (A") (A') (A') (A') (A') (A')
                 (A') (A') (A') (A') (A') (A') (A') (A')
 Requested convergence on RMS density matrix=1.00D-08 within  64 cycles.
 Requested convergence on MAX density matrix=1.00D-06.
 SCF Done:  E(RB+HF-PW91) =  -226.212638060     A.U. after    9 cycles
             Convg  =    0.6099D-08             -V/T =  2.0068
             S**2   =   0.0000
 ***** Axes restored to original set *****
 -------------------------------------------------------------------
 Center     Atomic                   Forces (Hartrees/Bohr)
 Number     Number              X              Y              Z
 -------------------------------------------------------------------
    1          7           0.001178335    0.000000000    0.000121507
    2          1          -0.000225302    0.000000000    0.000422618
    3          6          -0.000009112    0.000000000    0.000185053
    4          1           0.000371100    0.000000000    0.000303755
    5          6          -0.001133267    0.000000000   -0.000512894
    6          1           0.000508747    0.000000000   -0.000344851
    7          1          -0.000458334    0.000000000    0.000105793
    8          6          -0.000877086    0.000000000    0.000029283
    9          7           0.000644918    0.000000000   -0.000310263
 -------------------------------------------------------------------
 Cartesian Forces:  Max     0.001178335 RMS     0.000444122

 GradGradGradGradGradGradGradGradGradGradGradGradGradGradGradGradGradGrad
 Berny optimization.
 Internal  Forces:  Max     0.000603214 RMS     0.000273957
 Search for a local minimum.
 Step number   5 out of a maximum of  48
 All quantities printed in internal units (Hartrees-Bohrs-Radians)
 Update second derivatives using information from points  1  2  3  4  5

 Trust test= 1.18D+00 RLast= 2.13D-02 DXMaxT set to 5.65D-01
     Eigenvalues ---    0.03205   0.03261   0.03287   0.03303   0.03349
     Eigenvalues ---    0.03404   0.14171   0.15983   0.16011   0.16017
     Eigenvalues ---    0.21327   0.28212   0.43415   0.47770   0.49643
     Eigenvalues ---    0.49815   0.56256   0.59729   0.64535   0.68432
     Eigenvalues ---    0.759661000.000001000.000001000.000001000.00000
     Eigenvalues --- 1000.000001000.000001000.000001000.000001000.00000
     Eigenvalues --- 1000.000001000.000001000.000001000.000001000.00000
     Eigenvalues --- 1000.000001000.000001000.00000
 RFO step:  Lambda=-2.86583559D-06.
 Quartic linear search produced a step of  0.21835.
 Iteration  1 RMS(Cart)=  0.00073784 RMS(Int)=  0.00000086
 Iteration  2 RMS(Cart)=  0.00000037 RMS(Int)=  0.00000081
 Variable       Old X    -DE/DX   Delta X   Delta X   Delta X     New X
                                 (Linear)    (Quad)   (Total)
    R1        2.58697   0.00054   0.00156   0.00018   0.00173   2.58870
    R2        2.47400  -0.00055  -0.00135   0.00002  -0.00133   2.47268
    R3        1.89909  -0.00046  -0.00039  -0.00060  -0.00099   1.89809
    R4        2.03507  -0.00048  -0.00037  -0.00079  -0.00116   2.03391
    R5        2.58350  -0.00051  -0.00173   0.00012  -0.00162   2.58188
    R6        2.59135  -0.00020   0.00152  -0.00097   0.00054   2.59190
    R7        2.03902  -0.00060  -0.00054  -0.00094  -0.00149   2.03753
    R8        2.03983  -0.00047  -0.00026  -0.00077  -0.00104   2.03879
    R9        2.56787  -0.00048   0.00020  -0.00095  -0.00075   2.56712
    A1        1.84067  -0.00045  -0.00090  -0.00038  -0.00129   1.83938
    A2        2.31502  -0.00007   0.00087  -0.00116  -0.00029   2.31473
    A3        2.13484   0.00000  -0.00126   0.00103  -0.00023   2.13461
    A4        1.83333   0.00007   0.00040   0.00013   0.00052   1.83385
    A5        1.93081   0.00003   0.00038  -0.00023   0.00015   1.93096
    A6        2.12239  -0.00014  -0.00105  -0.00004  -0.00109   2.12130
    A7        2.22998   0.00011   0.00066   0.00028   0.00094   2.23093
    A8        2.19964  -0.00030  -0.00053  -0.00056  -0.00109   2.19855
    A9        1.94624   0.00051   0.00145   0.00030   0.00176   1.94800
   A10        2.13730  -0.00021  -0.00092   0.00025  -0.00067   2.13663
   A11        2.20343  -0.00004   0.00018  -0.00044  -0.00027   2.20316
   A12        2.20603   0.00019   0.00115   0.00026   0.00141   2.20744
   A13        1.87373  -0.00016  -0.00133   0.00019  -0.00114   1.87258
    D1        0.00000   0.00000   0.00000   0.00000   0.00000   0.00000
    D2        3.14159   0.00000   0.00000   0.00000   0.00000   3.14159
    D3        3.14159   0.00000   0.00000   0.00000   0.00000   3.14159
    D4        0.00000   0.00000   0.00000   0.00000   0.00000   0.00000
    D5        3.14159   0.00000   0.00000   0.00000   0.00000   3.14159
    D6        0.00000   0.00000   0.00000   0.00000   0.00000   0.00000
    D7        0.00000   0.00000   0.00000   0.00000   0.00000   0.00000
    D8        3.14159   0.00000   0.00000   0.00000   0.00000   3.14159
    D9        0.00000   0.00000   0.00000   0.00000   0.00000   0.00000
   D10        3.14159   0.00000   0.00000   0.00000   0.00000   3.14159
   D11        3.14159   0.00000   0.00000   0.00000   0.00000   3.14159
   D12        0.00000   0.00000   0.00000   0.00000   0.00000   0.00000
   D13        3.14159   0.00000   0.00000   0.00000   0.00000   3.14159
   D14        0.00000   0.00000   0.00000   0.00000   0.00000   0.00000
   D15        0.00000   0.00000   0.00000   0.00000   0.00000   0.00000
   D16        3.14159   0.00000   0.00000   0.00000   0.00000   3.14159
         Item               Value     Threshold  Converged?
 Maximum Force            0.000603     0.000450     NO 
 RMS     Force            0.000274     0.000300     YES
 Maximum Displacement     0.002514     0.001800     NO 
 RMS     Displacement     0.000738     0.001200     YES
 Predicted change in Energy=-3.926443D-06
 GradGradGradGradGradGradGradGradGradGradGradGradGradGradGradGradGradGrad

                          Input orientation:                          
 ---------------------------------------------------------------------
 Center     Atomic     Atomic              Coordinates (Angstroms)
 Number     Number      Type              X           Y           Z
 ---------------------------------------------------------------------
    1          7             0        0.495115    0.000000    1.122352
    2          1             0        0.488526    0.000000   -2.046047
    3          6             0       -1.016167    0.000000   -0.544544
    4          1             0       -1.896076    0.000000   -1.164367
    5          6             0       -0.838718    0.000000    0.810156
    6          1             0       -1.597327    0.000000    1.576355
    7          1             0        2.190598    0.000000   -0.165946
    8          6             0        1.120716    0.000000   -0.026889
    9          7             0        0.250686    0.000000   -1.070184
 ---------------------------------------------------------------------
                    Distance matrix (angstroms):
                    1          2          3          4          5
     1  N    0.000000
     2  H    3.168406   0.000000
     3  C    2.250004   2.125702   0.000000
     4  H    3.308607   2.542378   1.076300   0.000000
     5  C    1.369882   3.149520   1.366273   2.239810   0.000000
     6  H    2.141129   4.180021   2.199082   2.756956   1.078215
     7  H    2.129408   2.536105   3.229037   4.206869   3.182693
     8  C    1.308484   2.115813   2.198690   3.224111   2.130734
     9  N    2.206119   1.004429   1.371573   2.148827   2.173127
                    6          7          8          9
     6  H    0.000000
     7  H    4.169412   0.000000
     8  C    3.155654   1.078881   0.000000
     9  N    3.227897   2.140305   1.358461   0.000000
 Stoichiometry    C3H4N2
 Framework group  CS[SG(C3H4N2)]
 Deg. of freedom   15
 Full point group                 CS      NOp   2
 Largest Abelian subgroup         CS      NOp   2
 Largest concise Abelian subgroup C1      NOp   1
                         Standard orientation:                         
 ---------------------------------------------------------------------
 Center     Atomic     Atomic              Coordinates (Angstroms)
 Number     Number      Type              X           Y           Z
 ---------------------------------------------------------------------
    1          7             0       -0.738005   -0.979939    0.000000
    2          1             0       -0.009023    2.103465    0.000000
    3          6             0        1.113595    0.298378    0.000000
    4          1             0        2.111670    0.701200    0.000000
    5          6             0        0.631877   -0.980157    0.000000
    6          1             0        1.195760   -1.899169    0.000000
    7          1             0       -2.095008    0.661074    0.000000
    8          6             0       -1.085032    0.281689    0.000000
    9          7             0        0.000000    1.099077    0.000000
 ---------------------------------------------------------------------
 Rotational constants (GHZ):      9.8376734      9.4820854      4.8283035
 Isotopes: N-14,H-1,C-12,H-1,C-12,H-1,H-1,C-12,N-14
 Standard basis: CC-pVTZ (5D, 7F)
 There are   140 symmetry adapted basis functions of A'  symmetry.
 There are    66 symmetry adapted basis functions of A"  symmetry.
 Crude estimate of integral set expansion from redundant integrals=1.000.
 Integral buffers will be    131072 words long.
 Raffenetti 2 integral format.
 Two-electron integral symmetry is turned on.
   206 basis functions      343 primitive gaussians
    18 alpha electrons       18 beta electrons
       nuclear repulsion energy       163.8920933709 Hartrees.
 One-electron integrals computed using PRISM.
 NBasis=   206 RedAO= T  NBF=   140    66
 NBsUse=   206 1.00D-04 NBFU=   140    66
 Initial guess read from the read-write file:
 Initial guess orbital symmetries:
       Occupied  (A') (A') (A') (A') (A') (A') (A') (A') (A') (A')
                 (A') (A') (A') (A") (A') (A") (A') (A")
       Virtual   (A") (A') (A") (A') (A') (A') (A') (A') (A') (A')
                 (A") (A') (A') (A") (A') (A') (A") (A') (A') (A')
                 (A') (A') (A") (A') (A") (A') (A') (A') (A") (A')
                 (A') (A") (A") (A') (A") (A') (A") (A') (A') (A')
                 (A') (A') (A") (A') (A") (A') (A') (A") (A') (A')
                 (A") (A') (A') (A") (A') (A') (A') (A") (A') (A')
                 (A') (A") (A') (A') (A") (A") (A') (A') (A') (A')
                 (A') (A") (A') (A") (A') (A") (A') (A') (A") (A')
                 (A') (A') (A") (A') (A") (A') (A") (A') (A") (A")
                 (A') (A') (A') (A") (A') (A") (A") (A') (A') (A')
                 (A") (A') (A") (A") (A') (A") (A') (A') (A') (A")
                 (A') (A") (A') (A') (A") (A') (A') (A") (A') (A')
                 (A") (A") (A') (A') (A') (A") (A') (A") (A") (A')
                 (A") (A") (A') (A') (A') (A') (A') (A') (A") (A')
                 (A') (A') (A") (A') (A") (A') (A') (A") (A') (A')
                 (A") (A") (A') (A') (A") (A') (A") (A") (A') (A')
                 (A") (A') (A") (A') (A") (A') (A") (A') (A') (A")
                 (A') (A') (A') (A') (A") (A') (A') (A') (A') (A')
                 (A') (A') (A') (A') (A') (A') (A') (A')
 Requested convergence on RMS density matrix=1.00D-08 within  64 cycles.
 Requested convergence on MAX density matrix=1.00D-06.
 SCF Done:  E(RB+HF-PW91) =  -226.212642323     A.U. after    8 cycles
             Convg  =    0.2436D-08             -V/T =  2.0068
             S**2   =   0.0000
 ***** Axes restored to original set *****
 -------------------------------------------------------------------
 Center     Atomic                   Forces (Hartrees/Bohr)
 Number     Number              X              Y              Z
 -------------------------------------------------------------------
    1          7           0.000252344    0.000000000    0.000169927
    2          1          -0.000024569    0.000000000    0.000014106
    3          6           0.000180557    0.000000000   -0.000231996
    4          1           0.000002574    0.000000000    0.000052855
    5          6          -0.000347976    0.000000000    0.000018239
    6          1           0.000065133    0.000000000   -0.000021286
    7          1          -0.000024233    0.000000000    0.000022007
    8          6          -0.000108607    0.000000000   -0.000246246
    9          7           0.000004776    0.000000000    0.000222394
 -------------------------------------------------------------------
 Cartesian Forces:  Max     0.000347976 RMS     0.000126444

 GradGradGradGradGradGradGradGradGradGradGradGradGradGradGradGradGradGrad
 Berny optimization.
 Internal  Forces:  Max     0.000222447 RMS     0.000062335
 Search for a local minimum.
 Step number   6 out of a maximum of  48
 All quantities printed in internal units (Hartrees-Bohrs-Radians)
[...]
 IR Inten    --     0.2222                 1.0701                55.9620
 Raman Activ --     0.0000                 0.0000                 0.0000
 Depolar     --     0.0000                 0.0000                 0.0000
 Atom AN      X      Y      Z        X      Y      Z        X      Y      Z
   1   7     0.00   0.00   0.00     0.00   0.00   0.00     0.00   0.00   0.00
   2   1    -0.01   0.01   0.00    -0.01  -0.02   0.00    -0.01   1.00   0.00
   3   6    -0.02  -0.01   0.00    -0.08  -0.03   0.00     0.00   0.00   0.00
   4   1     0.20   0.08   0.00     0.87   0.35   0.00     0.01   0.00   0.00
   5   6     0.02  -0.03   0.00    -0.01   0.03   0.00     0.00   0.00   0.00
   6   1    -0.21   0.34   0.00     0.17  -0.29   0.00     0.00   0.00   0.00
   7   1     0.83  -0.31   0.00    -0.06   0.02   0.00    -0.01   0.00   0.00
   8   6    -0.08   0.03   0.00     0.01   0.00   0.00     0.00   0.00   0.00
   9   7     0.00   0.00   0.00     0.00   0.00   0.00     0.00  -0.08   0.00

 -------------------
 - Thermochemistry -
 -------------------
 Temperature   298.150 Kelvin.  Pressure   1.00000 Atm.
 Atom  1 has atomic number  7 and mass  14.00307
 Atom  2 has atomic number  1 and mass   1.00783
 Atom  3 has atomic number  6 and mass  12.00000
 Atom  4 has atomic number  1 and mass   1.00783
 Atom  5 has atomic number  6 and mass  12.00000
 Atom  6 has atomic number  1 and mass   1.00783
 Atom  7 has atomic number  1 and mass   1.00783
 Atom  8 has atomic number  6 and mass  12.00000
 Atom  9 has atomic number  7 and mass  14.00307
 Molecular mass:    68.03745 amu.
 Principal axes and moments of inertia in atomic units:
                           1         2         3
     EIGENVALUES --   183.45203 190.33167 373.78370
           X            0.45131   0.89237   0.00000
           Y            0.89237  -0.45131   0.00000
           Z            0.00000   0.00000   1.00000
 THIS MOLECULE IS AN ASYMMETRIC TOP.
 ROTATIONAL SYMMETRY NUMBER  1.
 ROTATIONAL TEMPERATURES (KELVIN)      0.47213     0.45507     0.23172
 ROTATIONAL CONSTANTS (GHZ)            9.83767     9.48209     4.82830
 Zero-point vibrational energy     187332.1 (Joules/Mol)
                                   44.77346 (Kcal/Mol)
 WARNING-- EXPLICIT CONSIDERATION OF   1 DEGREES OF FREEDOM AS
           VIBRATIONS MAY CAUSE SIGNIFICANT ERROR
 VIBRATIONAL TEMPERATURES:    778.32   936.97   987.47  1064.34  1187.18
          (KELVIN)           1268.42  1302.74  1360.38  1554.56  1584.86
                             1654.50  1698.41  1847.37  1983.90  2078.08
                             2175.90  2252.08  4668.34  4672.56  4716.73
                             5288.38
 
 Zero-point correction=                           0.071351 (Hartree/Particle)
 Thermal correction to Energy=                    0.075082
 Thermal correction to Enthalpy=                  0.076026
 Thermal correction to Gibbs Free Energy=         0.045109
 Sum of electronic and zero-point Energies=           -226.141291
 Sum of electronic and thermal Energies=              -226.137561
 Sum of electronic and thermal Enthalpies=            -226.136617
 Sum of electronic and thermal Free Energies=         -226.167534
 
                     E (Thermal)             CV                S
                      KCAL/MOL        CAL/MOL-KELVIN    CAL/MOL-KELVIN
 TOTAL                   47.114             13.252             65.071
 ELECTRONIC               0.000              0.000              0.000
 TRANSLATIONAL            0.889              2.981             38.570
 ROTATIONAL               0.889              2.981             24.083
 VIBRATIONAL             45.337              7.291              2.418
 VIBRATION  1             0.896              1.160              0.563
                       Q            LOG10(Q)             LN(Q)
 TOTAL BOT       0.178501D-20        -20.748360        -47.774864
 TOTAL V=0       0.117658D+13         12.070621         27.793632
 VIB (BOT)       0.197871D-32        -32.703619        -75.302864
 VIB (BOT)  1    0.292611D+00         -0.533710         -1.228912
 VIB (V=0)       0.130425D+01          0.115362          0.265631
 VIB (V=0)  1    0.107933D+01          0.033153          0.076339
 ELECTRONIC      0.100000D+01          0.000000          0.000000
 TRANSLATIONAL   0.220588D+08          7.343582         16.909224
 ROTATIONAL      0.408956D+05          4.611676         10.618777
 ***** Axes restored to original set *****
 -------------------------------------------------------------------
 Center     Atomic                   Forces (Hartrees/Bohr)
 Number     Number              X              Y              Z
 -------------------------------------------------------------------
    1          7           0.000252322    0.000000000    0.000169974
    2          1          -0.000024561    0.000000000    0.000014099
    3          6           0.000180570    0.000000000   -0.000231980
    4          1           0.000002608    0.000000000    0.000052875
    5          6          -0.000347990    0.000000000    0.000018184
    6          1           0.000065142    0.000000000   -0.000021289
    7          1          -0.000024191    0.000000000    0.000022005
    8          6          -0.000108590    0.000000000   -0.000246242
    9          7           0.000004690    0.000000000    0.000222375
 -------------------------------------------------------------------
 Cartesian Forces:  Max     0.000347990 RMS     0.000126444

 GradGradGradGradGradGradGradGradGradGradGradGradGradGradGradGradGradGrad
 Berny optimization.
 Internal  Forces:  Max     0.000222450 RMS     0.000062334
 Search for a local minimum.
 Step number   1 out of a maximum of  48
 All quantities printed in internal units (Hartrees-Bohrs-Radians)
 Second derivative matrix not updated -- analytic derivatives used.
     Eigenvalues ---    0.00556   0.01132   0.02033   0.02739   0.06029
     Eigenvalues ---    0.06259   0.09634   0.10332   0.10815   0.11637
     Eigenvalues ---    0.22934   0.24429   0.34937   0.36968   0.37332
     Eigenvalues ---    0.37661   0.41031   0.45079   0.47375   0.48358
     Eigenvalues ---    0.584811000.000001000.000001000.000001000.00000
     Eigenvalues --- 1000.000001000.000001000.000001000.000001000.00000
     Eigenvalues --- 1000.000001000.000001000.000001000.000001000.00000
     Eigenvalues --- 1000.000001000.000001000.00000
 Angle between quadratic step and forces=  28.21 degrees.
 Linear search not attempted -- first point.
 Iteration  1 RMS(Cart)=  0.00013950 RMS(Int)=  0.00000003
 Iteration  2 RMS(Cart)=  0.00000003 RMS(Int)=  0.00000001
 Variable       Old X    -DE/DX   Delta X   Delta X   Delta X     New X
                                 (Linear)    (Quad)   (Total)
    R1        2.58870   0.00022   0.00000   0.00072   0.00072   2.58942
    R2        2.47268   0.00007   0.00000   0.00016   0.00016   2.47284
    R3        1.89809  -0.00002   0.00000  -0.00003  -0.00003   1.89806
    R4        2.03391  -0.00003   0.00000  -0.00008  -0.00008   2.03383
    R5        2.58188   0.00006   0.00000   0.00011   0.00011   2.58199
    R6        2.59190  -0.00015   0.00000  -0.00042  -0.00042   2.59148
    R7        2.03753  -0.00006   0.00000  -0.00019  -0.00019   2.03734
    R8        2.03879  -0.00003   0.00000  -0.00006  -0.00006   2.03873
    R9        2.56712  -0.00016   0.00000  -0.00046  -0.00046   2.56666
    A1        1.83938  -0.00010   0.00000  -0.00031  -0.00031   1.83907
    A2        2.31473  -0.00006   0.00000  -0.00054  -0.00054   2.31419
    A3        2.13461   0.00003   0.00000   0.00044   0.00044   2.13504
    A4        1.83385   0.00002   0.00000   0.00010   0.00010   1.83395
    A5        1.93096  -0.00006   0.00000  -0.00019  -0.00019   1.93077
    A6        2.12130   0.00000   0.00000  -0.00030  -0.00030   2.12099
    A7        2.23093   0.00006   0.00000   0.00050   0.00050   2.23142
    A8        2.19855  -0.00005   0.00000  -0.00031  -0.00031   2.19824
    A9        1.94800   0.00006   0.00000   0.00020   0.00020   1.94820
   A10        2.13663  -0.00001   0.00000   0.00011   0.00011   2.13674
   A11        2.20316  -0.00006   0.00000  -0.00028  -0.00028   2.20287
   A12        2.20744  -0.00002   0.00000   0.00008   0.00008   2.20752
   A13        1.87258   0.00008   0.00000   0.00020   0.00020   1.87279
    D1        0.00000   0.00000   0.00000   0.00000   0.00000   0.00000
    D2        3.14159   0.00000   0.00000   0.00000   0.00000   3.14159
    D3        3.14159   0.00000   0.00000   0.00000   0.00000   3.14159
    D4        0.00000   0.00000   0.00000   0.00000   0.00000   0.00000
    D5        3.14159   0.00000   0.00000   0.00000   0.00000   3.14159
    D6        0.00000   0.00000   0.00000   0.00000   0.00000   0.00000
    D7        0.00000   0.00000   0.00000   0.00000   0.00000   0.00000
    D8        3.14159   0.00000   0.00000   0.00000   0.00000   3.14159
    D9        0.00000   0.00000   0.00000   0.00000   0.00000   0.00000
   D10        3.14159   0.00000   0.00000   0.00000   0.00000   3.14159
   D11        3.14159   0.00000   0.00000   0.00000   0.00000   3.14159
   D12        0.00000   0.00000   0.00000   0.00000   0.00000   0.00000
   D13        3.14159   0.00000   0.00000   0.00000   0.00000   3.14159
   D14        0.00000   0.00000   0.00000   0.00000   0.00000   0.00000
   D15        0.00000   0.00000   0.00000   0.00000   0.00000   0.00000
   D16        3.14159   0.00000   0.00000   0.00000   0.00000   3.14159
         Item               Value     Threshold  Converged?
 Maximum Force            0.000222     0.000450     YES
 RMS     Force            0.000062     0.000300     YES
 Maximum Displacement     0.000373     0.001800     YES
 RMS     Displacement     0.000140     0.001200     YES
 Predicted change in Energy=-2.527728D-07
 Optimization completed.
    -- Stationary point found.
                         ----------------------------
                         !   Optimized Parameters   !
                         ! (Angstroms and Degrees)  !
 ------------------------                            -------------------------
 ! Name  Definition              Value          Derivative Info.             !
 -----------------------------------------------------------------------------
 ! R1    R(1,5)                  1.3699         -DE/DX =    0.0002           !
 ! R2    R(1,8)                  1.3085         -DE/DX =    0.0001           !
 ! R3    R(2,9)                  1.0044         -DE/DX =    0.               !
 ! R4    R(3,4)                  1.0763         -DE/DX =    0.               !
 ! R5    R(3,5)                  1.3663         -DE/DX =    0.0001           !
 ! R6    R(3,9)                  1.3716         -DE/DX =   -0.0001           !
 ! R7    R(5,6)                  1.0782         -DE/DX =   -0.0001           !
 ! R8    R(7,8)                  1.0789         -DE/DX =    0.               !
 ! R9    R(8,9)                  1.3585         -DE/DX =   -0.0002           !
 ! A1    A(5,1,8)              105.3887         -DE/DX =   -0.0001           !
 ! A2    A(4,3,5)              132.624          -DE/DX =   -0.0001           !
 ! A3    A(4,3,9)              122.3041         -DE/DX =    0.               !
 ! A4    A(5,3,9)              105.0719         -DE/DX =    0.               !
 ! A5    A(1,5,3)              110.636          -DE/DX =   -0.0001           !
 ! A6    A(1,5,6)              121.5414         -DE/DX =    0.               !
 ! A7    A(3,5,6)              127.8227         -DE/DX =    0.0001           !
 ! A8    A(1,8,7)              125.9676         -DE/DX =    0.               !
 ! A9    A(1,8,9)              111.6123         -DE/DX =    0.0001           !
 ! A10   A(7,8,9)              122.4201         -DE/DX =    0.               !
 ! A11   A(2,9,3)              126.2317         -DE/DX =   -0.0001           !
 ! A12   A(2,9,8)              126.4772         -DE/DX =    0.               !
 ! A13   A(3,9,8)              107.2912         -DE/DX =    0.0001           !
 ! D1    D(8,1,5,3)              0.             -DE/DX =    0.               !
 ! D2    D(8,1,5,6)            180.             -DE/DX =    0.               !
 ! D3    D(5,1,8,7)            180.             -DE/DX =    0.               !
 ! D4    D(5,1,8,9)              0.             -DE/DX =    0.               !
 ! D5    D(4,3,5,1)            180.             -DE/DX =    0.               !
 ! D6    D(4,3,5,6)              0.             -DE/DX =    0.               !
 ! D7    D(9,3,5,1)              0.             -DE/DX =    0.               !
 ! D8    D(9,3,5,6)            180.             -DE/DX =    0.               !
 ! D9    D(4,3,9,2)              0.             -DE/DX =    0.               !
 ! D10   D(4,3,9,8)            180.             -DE/DX =    0.               !
 ! D11   D(5,3,9,2)            180.             -DE/DX =    0.               !
 ! D12   D(5,3,9,8)              0.             -DE/DX =    0.               !
 ! D13   D(1,8,9,2)            180.             -DE/DX =    0.               !
 ! D14   D(1,8,9,3)              0.             -DE/DX =    0.               !
 ! D15   D(7,8,9,2)              0.             -DE/DX =    0.               !
 ! D16   D(7,8,9,3)            180.             -DE/DX =    0.               !
 -----------------------------------------------------------------------------
 GradGradGradGradGradGradGradGradGradGradGradGradGradGradGradGradGradGrad

 1\1\ NATIONAL INSTITUTE OF STANDARDS AND TECHNOLOGY-NEVA\Freq\RB3PW91\
 CC-pVTZ\C3H4N2\RDJ3\08-May-2001\0\\#N GEOM=ALLCHECK GUESS=TCHECK RB3PW
 91/CC-PVTZ FREQ\\1H imidazole C3H4N2 casno=288324\\0,1\N,0.495078279,0
 .,1.1224212966\H,0.4884896665,0.,-2.04597777\C,-1.0162032194,0.,-0.544
 4753238\H,-1.896112369,0.,-1.1642983894\C,-0.8387549526,0.,0.810225374
 2\H,-1.5973640356,0.,1.576423753\H,2.1905617874,0.,-0.1658773772\C,1.1
 206797886,0.,-0.0268194467\N,0.2506496141,0.,-1.0701147022\\Version=SG
 I64-G98RevA.7\State=1-A'\HF=-226.2126423\RMSD=9.590e-10\RMSF=1.264e-04
 \Dipole=-0.1007183,0.,-1.4560576\DipoleDeriv=-0.3691103,0.0000282,-0.0
 436835,-0.000038,-0.3063246,0.0000119,-0.0208596,-0.0000296,-0.5772074
 ,0.1777484,0.0000452,-0.0098645,-0.0000104,0.3075676,0.0000164,-0.0129
 303,-0.000127,0.1992236,-0.0173008,-0.0000924,-0.2445191,-0.000002,-0.
 1482939,-0.0000174,-0.0391459,-0.0000429,0.1590486,0.0247429,0.0001163
 ,-0.0423562,0.0000064,0.187728,-0.0000114,-0.0609937,0.0000817,0.03681
 89,0.1712594,0.0000706,-0.0160467,0.0000211,-0.1336717,0.0000032,-0.06
 4444,-0.0001878,0.1426992,-0.0052618,-0.0000651,0.0580787,-0.0000021,0
 .1546472,-0.0000068,0.0791668,0.0000791,0.0369331,-0.0181382,-0.000013
 1,0.0367032,-0.0000014,0.1587055,0.0000049,0.0327139,0.0000027,0.06615
 42,0.1069964,0.000127,0.08954,0.0000002,-0.0051507,0.0000033,0.0233188
 ,0.0001486,0.5236129,-0.0709323,-0.0002167,0.1721474,0.0000261,-0.2152
 074,-0.0000041,0.0631711,0.0000752,-0.5872815\Polar=53.0359046,0.00303
 63,27.0557117,-0.3545558,0.0027987,49.8265736\PG=CS [SG(C3H4N2)]\NImag
 =0\\0.49744710,0.00000138,0.10589622,-0.05800325,-0.00000072,0.5776327
 5,-0.00297246,0.00000035,-0.00817319,0.08130306,-0.00000011,0.00688062
 ,-0.00000029,0.00000006,0.01182360,-0.00303176,-0.00000003,-0.00350979
 ,-0.09771546,-0.00000035,0.45630321,-0.03359376,-0.00000146,-0.0135551
 0,0.00662938,-0.00000023,-0.00271967,0.74832188,-0.00000095,0.01790950
 ,0.00000033,0.00000020,-0.00706032,-0.00000102,0.00000023,0.11403050,-
 0.08824785,-0.00000126,-0.02097230,0.02803019,0.00000056,-0.00106768,0
 .15834918,0.00000087,0.73757800,0.00162265,0.00000170,0.00108804,0.000
 25886,-0.00000010,0.00003003,-0.25533020,-0.00000047,-0.13892880,0.269
 44251,-0.00000006,0.00686440,-0.00000002,0.00000003,-0.00131077,-0.000
 00037,0.00000015,-0.02197111,0.00000047,-0.00000023,0.01884027,-0.0042
 0496,0.00000116,-0.00546816,-0.00100405,-0.00000015,0.00017879,-0.1492
 1161,-0.00000032,-0.16396018,0.15286594,-0.00000017,0.15672777,-0.2618
 1311,0.00000209,-0.03959855,-0.00834530,-0.00000025,-0.00112134,-0.099
 37518,-0.00000047,-0.01768830,0.00492845,-0.00000037,-0.02164372,0.665
 54856,-0.00000139,-0.07192756,0.00000030,-0.00000036,0.00248324,0.0000
 0057,0.00000078,-0.06858339,0.00000101,-0.00000148,-0.00083965,-0.0000
 0097,-0.00000064,0.13716431,-0.04873574,-0.00000262,-0.11093412,0.0035
 3019,-0.00000015,0.00053134,-0.03593467,0.00000024,-0.38875225,0.00150
 375,0.00000009,0.00269764,-0.15546474,0.00000210,0.79224114,-0.0196525
 9,-0.00000177,0.02048015,0.00080128,0.00000021,-0.00002969,0.00848640,
 0.00000065,-0.00557119,-0.00023033,0.00000019,0.00069195,-0.19298513,0
 .00000115,0.14637274,0.20920809,0.00000019,-0.00494342,0.00000007,0.00
 000008,0.00193508,-0.00000022,-0.00000007,0.00022823,-0.00000017,0.000
 00017,-0.00232528,0.00000012,0.00000010,-0.02989894,-0.00000033,-0.000
 00017,0.02344684,-0.00629805,0.00000172,0.01193166,0.00115978,-0.00000
 019,0.00020989,0.02044675,-0.00000057,-0.00783549,-0.00053477,-0.00000
 014,-0.00016140,0.14845547,-0.00000120,-0.21542891,-0.15844049,0.00000
 019,0.21533195,-0.00879603,0.00000034,0.00427395,-0.00050822,-0.000000
 44,-0.00042825,0.00098516,-0.00000002,-0.00312632,-0.00029929,-0.00000
 039,0.00035451,0.00115411,-0.00000019,0.00250643,-0.00030818,0.0000001
 0,-0.00016502,0.36578831,0.00000030,-0.00491438,-0.00000014,0.00000004
 ,-0.00140728,-0.00000011,-0.00000020,0.00276135,0.00000006,0.00000021,
 0.00181128,0.00000012,-0.00000017,0.00693513,-0.00000031,-0.00000004,0
 .00112033,0.00000006,-0.00000023,0.02119955,0.02906380,-0.00000008,0.0
 0057593,0.00054376,0.00000003,0.00038586,-0.00118028,-0.00000003,-0.00
 577147,-0.00099570,0.00000009,0.00097928,0.00322824,0.00000003,-0.0042
 5464,0.00131191,0.,0.00064792,-0.03858025,0.00000003,0.06136287,-0.167
 16621,-0.00000064,0.12017459,0.01785071,0.00000070,0.01363503,-0.09513
 718,0.00000120,0.00424114,-0.00316670,0.00000053,0.00416480,-0.0913069
 4,0.00000019,0.01566279,-0.00595440,-0.00000005,-0.00347984,-0.3451410
 4,0.00000012,0.03594026,0.89807201,0.00000069,-0.07831366,-0.00000011,
 0.00000003,-0.00829047,-0.00000035,0.00000010,0.01695179,0.00000006,0.
 00000026,0.00288646,0.00000009,-0.00000082,0.01072940,-0.00000036,-0.0
 0000005,0.00532787,0.00000014,-0.00000048,-0.02593797,0.00000013,0.000
 00038,0.13850374,0.14228331,0.00000177,-0.34145061,-0.01632460,0.00000
 021,-0.01083342,-0.04674311,0.00000047,-0.01124426,0.00376317,-0.00000
 035,-0.00522002,0.07674206,-0.00000118,-0.00191072,-0.00176362,0.00000
 013,0.00064930,0.03097190,-0.00000003,-0.06101623,-0.08525992,-0.00000
 046,0.64346635,-0.00507534,-0.00000198,-0.02668666,-0.09501732,0.00000
 017,0.09138112,-0.28098655,-0.00000037,0.06294157,-0.01722594,0.000000
 13,0.01798716,-0.01780549,0.00000195,0.07055949,0.00063483,-0.00000036
 ,-0.00114378,-0.01287476,-0.00000002,-0.02933173,-0.20805055,-0.000000
 12,-0.10366921,0.63640119,-0.00000006,0.02254826,0.00000057,-0.0000004
 4,-0.00505369,0.00000189,0.00000071,-0.05426656,-0.00000157,-0.0000000
 7,-0.00395559,0.00000012,0.00000055,0.01393744,0.00000133,-0.00000018,
 0.00510933,0.,0.00000130,-0.00156799,-0.00000019,-0.00000242,-0.061857
 16,-0.00000058,0.00000061,0.08510591,0.03717432,0.00000006,-0.10780489
 ,0.08995338,0.00000032,-0.44219815,0.07054857,0.00000002,-0.13797434,-
 0.01879157,0.00000041,0.01422635,0.00709103,-0.00000065,-0.07418994,-0
 .00305189,0.00000021,-0.00534475,0.00419323,0.00000032,0.00709047,-0.1
 0507862,0.00000086,-0.21244043,-0.08203837,-0.00000156,0.95863535\\-0.
 00025232,0.,-0.00016997,0.00002456,0.,-0.00001410,-0.00018057,0.,0.000
 23198,-0.00000261,0.,-0.00005287,0.00034799,0.,-0.00001818,-0.00006514
 ,0.,0.00002129,0.00002419,0.,-0.00002201,0.00010859,0.,0.00024624,-0.0
 0000469,0.,-0.00022237\\\@


 IF GOD HAD MEANT MAN TO SEE THE SUN RISE, HE
 WOULD HAVE SCHEDULED IT FOR A LATER HOUR.
 Job cpu time:  0 days  3 hours 28 minutes 31.7 seconds.
 File lengths (MBytes):  RWF=   47 Int=    0 D2E=    0 Chk=    6 Scr=    1
 Normal termination of Gaussian 98.
