 Entering Gaussian System, Link 0=g98
 Initial command:
 /usr/local/apps/g98/g98/l1.exe /wrk/Gau-18348.inp -scrdir=/wrk/
 Entering Link 1 = /usr/local/apps/g98/g98/l1.exe PID=     15980.
  
 Copyright (c) 1988,1990,1992,1993,1995,1998 Gaussian, Inc.
                  All Rights Reserved.
  
 This is part of the Gaussian(R) 98 program.  It is based on
 the Gaussian 94(TM) system (copyright 1995 Gaussian, Inc.),
 the Gaussian 92(TM) system (copyright 1992 Gaussian, Inc.),
 the Gaussian 90(TM) system (copyright 1990 Gaussian, Inc.),
 the Gaussian 88(TM) system (copyright 1988 Gaussian, Inc.),
 the Gaussian 86(TM) system (copyright 1986 Carnegie Mellon
 University), and the Gaussian 82(TM) system (copyright 1983
 Carnegie Mellon University). Gaussian is a federally registered
 trademark of Gaussian, Inc.
  
 This software contains proprietary and confidential information,
 including trade secrets, belonging to Gaussian, Inc.
  
 This software is provided under written license and may be
 used, copied, transmitted, or stored only in accord with that
 written license.
  
 The following legend is applicable only to US Government
 contracts under DFARS:
  
                    RESTRICTED RIGHTS LEGEND
  
 Use, duplication or disclosure by the US Government is subject
 to restrictions as set forth in subparagraph (c)(1)(ii) of the
 Rights in Technical Data and Computer Software clause at DFARS
 252.227-7013.
  
 Gaussian, Inc.
 Carnegie Office Park, Building 6, Pittsburgh, PA 15106 USA
  
 The following legend is applicable only to US Government
 contracts under FAR:
  
                    RESTRICTED RIGHTS LEGEND
  
 Use, reproduction and disclosure by the US Government is subject
 to restrictions as set forth in subparagraph (c) of the
 Commercial Computer Software - Restricted Rights clause at FAR
 52.227-19.
  
 Gaussian, Inc.
 Carnegie Office Park, Building 6, Pittsburgh, PA 15106 USA
  
  
 ---------------------------------------------------------------
 Warning -- This program may not be used in any manner that
 competes with the business of Gaussian, Inc. or will provide
 assistance to any competitor of Gaussian, Inc.  The licensee
 of this program is prohibited from giving any competitor of
 Gaussian, Inc. access to this program.  By using this program,
 the user acknowledges that Gaussian, Inc. is engaged in the
 business of creating and licensing software in the field of
 computational chemistry and represents and warrants to the
 licensee that it is not a competitor of Gaussian, Inc. and that
 it will not use this program in any manner prohibited above.
 ---------------------------------------------------------------
  

 Cite this work as:
 Gaussian 98, Revision A.7,
 M. J. Frisch, G. W. Trucks, H. B. Schlegel, G. E. Scuseria, 
 M. A. Robb, J. R. Cheeseman, V. G. Zakrzewski, J. A. Montgomery, Jr., 
 R. E. Stratmann, J. C. Burant, S. Dapprich, J. M. Millam, 
 A. D. Daniels, K. N. Kudin, M. C. Strain, O. Farkas, J. Tomasi, 
 V. Barone, M. Cossi, R. Cammi, B. Mennucci, C. Pomelli, C. Adamo, 
 S. Clifford, J. Ochterski, G. A. Petersson, P. Y. Ayala, Q. Cui, 
 K. Morokuma, D. K. Malick, A. D. Rabuck, K. Raghavachari, 
 J. B. Foresman, J. Cioslowski, J. V. Ortiz, A. G. Baboul, 
 B. B. Stefanov, G. Liu, A. Liashenko, P. Piskorz, I. Komaromi, 
 R. Gomperts, R. L. Martin, D. J. Fox, T. Keith, M. A. Al-Laham, 
 C. Y. Peng, A. Nanayakkara, C. Gonzalez, M. Challacombe, 
 P. M. W. Gill, B. Johnson, W. Chen, M. W. Wong, J. L. Andres, 
 C. Gonzalez, M. Head-Gordon, E. S. Replogle, and J. A. Pople, 
 Gaussian, Inc., Pittsburgh PA, 1998.

 **********************************************
 Gaussian 98:  IBM-RS6000-G98RevA.7 11-Apr-1999
                  29-Jan-2001 
 **********************************************
 %mem=24000000
 ------------------------
 #B3PW91/cc-pVDZ opt freq
 ------------------------
 1/14=-1,18=20,26=3,38=1/1,3;
 2/9=110,17=6,18=5/2;
 3/5=16,11=2,25=1,30=1/1,2,3;
 4//1;
 5/5=2,38=4,42=-6/2;
 6/7=2,8=2,9=2,10=2,28=1/1;
 7//1,2,3,16;
 1/14=-1,18=20/3(1);
 99//99;
 2/9=110/2;
 3/5=16,11=2,25=1,30=1/1,2,3;
 4/5=5,16=2/1;
 5/5=2,38=4,42=-6/2;
 7//1,2,3,16;
 1/14=-1,18=20/3(-5);
 2/9=110/2;
 6/7=2,8=2,9=2,10=2,19=2,28=1/1;
 99/9=1/99;
 --------------------------------
 1H imidazole C3H4N2 casno=288324
 --------------------------------
 Symbolic Z-matrix:
 Charge =  0 Multiplicity = 1
 N                     0.30938   0.        1.30938 
 H                     0.3125    0.       -1.6875 
 C                    -1.06875   0.       -0.28438 
 H                    -1.91875   0.       -0.79063 
 C                    -0.93438   0.        1.02812 
 H                    -1.675     0.        1.6875 
 H                     1.91875   0.        0.09063 
 C                     0.93438   0.        0.19063 
 N                     0.09688   0.       -0.775 

 GradGradGradGradGradGradGradGradGradGradGradGradGradGradGradGradGradGrad
 Berny optimization.
 Initialization pass.
                         ----------------------------
                         !    Initial Parameters    !
                         ! (Angstroms and Degrees)  !
 ------------------------                            -------------------------
 ! Name  Definition              Value          Derivative Info.             !
 -----------------------------------------------------------------------------
 ! R1    R(1,5)                  1.2752         estimate D2E/DX2             !
 ! R2    R(1,8)                  1.2815         estimate D2E/DX2             !
 ! R3    R(2,9)                  0.9376         estimate D2E/DX2             !
 ! R4    R(3,4)                  0.9893         estimate D2E/DX2             !
 ! R5    R(3,5)                  1.3194         estimate D2E/DX2             !
 ! R6    R(3,9)                  1.2647         estimate D2E/DX2             !
 ! R7    R(5,6)                  0.9916         estimate D2E/DX2             !
 ! R8    R(7,8)                  0.9894         estimate D2E/DX2             !
 ! R9    R(8,9)                  1.2782         estimate D2E/DX2             !
 ! A1    A(5,1,8)              106.4483         estimate D2E/DX2             !
 ! A2    A(4,3,5)              126.6232         estimate D2E/DX2             !
 ! A3    A(4,3,9)              126.3957         estimate D2E/DX2             !
 ! A4    A(5,3,9)              106.9812         estimate D2E/DX2             !
 ! A5    A(1,5,3)              108.5877         estimate D2E/DX2             !
 ! A6    A(1,5,6)              125.5794         estimate D2E/DX2             !
 ! A7    A(3,5,6)              125.8329         estimate D2E/DX2             !
 ! A8    A(1,8,7)              124.9909         estimate D2E/DX2             !
 ! A9    A(1,8,9)              109.8741         estimate D2E/DX2             !
 ! A10   A(7,8,9)              125.1349         estimate D2E/DX2             !
 ! A11   A(2,9,3)              126.122          estimate D2E/DX2             !
 ! A12   A(2,9,8)              125.7693         estimate D2E/DX2             !
 ! A13   A(3,9,8)              108.1088         estimate D2E/DX2             !
 ! D1    D(8,1,5,3)              0.             estimate D2E/DX2             !
 ! D2    D(8,1,5,6)            180.             estimate D2E/DX2             !
 ! D3    D(5,1,8,7)            180.             estimate D2E/DX2             !
 ! D4    D(5,1,8,9)              0.             estimate D2E/DX2             !
 ! D5    D(4,3,5,1)            180.             estimate D2E/DX2             !
 ! D6    D(4,3,5,6)              0.             estimate D2E/DX2             !
 ! D7    D(9,3,5,1)              0.             estimate D2E/DX2             !
 ! D8    D(9,3,5,6)            180.             estimate D2E/DX2             !
 ! D9    D(4,3,9,2)              0.             estimate D2E/DX2             !
 ! D10   D(4,3,9,8)            180.             estimate D2E/DX2             !
 ! D11   D(5,3,9,2)            180.             estimate D2E/DX2             !
 ! D12   D(5,3,9,8)              0.             estimate D2E/DX2             !
 ! D13   D(1,8,9,2)            180.             estimate D2E/DX2             !
 ! D14   D(1,8,9,3)              0.             estimate D2E/DX2             !
 ! D15   D(7,8,9,2)              0.             estimate D2E/DX2             !
 ! D16   D(7,8,9,3)            180.             estimate D2E/DX2             !
 -----------------------------------------------------------------------------
 Trust Radius=3.00D-01 FncErr=1.00D-07 GrdErr=1.00D-06
 Number of steps in this run=  48 maximum allowed number of steps= 100.
 GradGradGradGradGradGradGradGradGradGradGradGradGradGradGradGradGradGrad

                          Input orientation:                          
 ---------------------------------------------------------------------
 Center     Atomic     Atomic              Coordinates (Angstroms)
 Number     Number      Type              X           Y           Z
 ---------------------------------------------------------------------
    1          7             0         .309375     .000000    1.309375
    2          1             0         .312500     .000000   -1.687500
    3          6             0       -1.068750     .000000    -.284375
    4          1             0       -1.918750     .000000    -.790625
    5          6             0        -.934375     .000000    1.028125
    6          1             0       -1.675000     .000000    1.687500
    7          1             0        1.918750     .000000     .090625
    8          6             0         .934375     .000000     .190625
    9          7             0         .096875     .000000    -.775000
 ---------------------------------------------------------------------
                    Distance matrix (angstroms):
                    1          2          3          4          5
     1  N     .000000
     2  H    2.996877    .000000
     3  C    2.106957   1.968911    .000000
     4  H    3.061787   2.404758    .989338    .000000
     5  C    1.275153   2.988196   1.319361   2.068054    .000000
     6  H    2.020080   3.916731   2.062966   2.490084    .991615
     7  H    2.018772   2.396199   3.010944   3.937386   3.003203
     8  C    1.281494   1.978404   2.058673   3.017147   2.047836
     9  N    2.095179    .937630   1.264672   2.015686   2.077194
                    6          7          8          9
     6  H     .000000
     7  H    3.932563    .000000
     8  C    3.008234    .989441    .000000
     9  N    3.033718   2.017061   1.278217    .000000
 Stoichiometry    C3H4N2
 Framework group  CS[SG(C3H4N2)]
 Deg. of freedom   15
 Full point group                 CS      NOp   2
 Largest Abelian subgroup         CS      NOp   2
 Largest concise Abelian subgroup C1      NOp   1
                         Standard orientation:                         
 ---------------------------------------------------------------------
 Center     Atomic     Atomic              Coordinates (Angstroms)
 Number     Number      Type              X           Y           Z
 ---------------------------------------------------------------------
    1          7             0        -.674969    -.941702     .000000
    2          1             0        -.005288    1.979393     .000000
    3          6             0        1.025744     .302019     .000000
    4          1             0        1.967693     .604544     .000000
    5          6             0         .600174    -.946822     .000000
    6          1             0        1.173884   -1.755622     .000000
    7          1             0       -1.969692     .607211     .000000
    8          6             0       -1.032886     .288794     .000000
    9          7             0         .000000    1.041778     .000000
 ---------------------------------------------------------------------
 Rotational constants (GHZ):     11.1543393     10.4769603      5.4025219
 Isotopes: N-14,H-1,C-12,H-1,C-12,H-1,H-1,C-12,N-14
 Standard basis: CC-pVDZ (5D, 7F)
 There are    66 symmetry adapted basis functions of A'  symmetry.
 There are    24 symmetry adapted basis functions of A"  symmetry.
 Crude estimate of integral set expansion from redundant integrals=1.000.
 Integral buffers will be    262144 words long.
 Raffenetti 2 integral format.
 Two-electron integral symmetry is turned on.
    90 basis functions      203 primitive gaussians
    18 alpha electrons       18 beta electrons
       nuclear repulsion energy       173.5664837334 Hartrees.
 One-electron integrals computed using PRISM.
 NBasis=    90 RedAO= T  NBF=    66    24
 NBsUse=    90 1.00D-04 NBFU=    66    24
 Projected INDO Guess.
 Initial guess orbital symmetries:
       Occupied  (A') (A') (A') (A') (A') (A') (A') (A') (A') (A')
                 (A') (A") (A') (A') (A') (A") (A') (A")
       Virtual   (A") (A') (A') (A") (A') (A') (A') (A') (A') (A')
                 (A') (A') (A') (A') (A') (A') (A') (A') (A') (A')
                 (A') (A') (A') (A') (A') (A') (A') (A') (A') (A')
                 (A') (A') (A') (A') (A') (A') (A') (A') (A') (A')
                 (A') (A') (A') (A') (A') (A') (A') (A') (A') (A')
                 (A') (A') (A') (A") (A") (A") (A") (A") (A") (A")
                 (A") (A") (A") (A") (A") (A") (A") (A") (A") (A")
                 (A") (A")
 Requested convergence on RMS density matrix=1.00D-08 within  64 cycles.
 Requested convergence on MAX density matrix=1.00D-06.
 Keep R1 and R2 integrals in memory in canonical form, NReq=    21270441.
 Integral accuracy reduced to 1.0D-05 until final iterations.
 Initial convergence to 1.0D-05 achieved.  Increase integral accuracy.
 SCF Done:  E(RB+HF-PW91) =  -226.083297985     A.U. after   14 cycles
             Convg  =     .9391D-08             -V/T =  1.9984
             S**2   =    .0000

 **********************************************************************

            Population analysis using the SCF density.

 **********************************************************************

 Orbital Symmetries:
       Occupied  (A') (A') (A') (A') (A') (A') (A') (A') (A') (A')
                 (A') (A") (A') (A') (A') (A") (A') (A")
       Virtual   (A") (A') (A") (A') (A') (A') (A') (A') (A') (A')
                 (A') (A") (A') (A') (A") (A') (A") (A') (A') (A')
                 (A') (A') (A') (A") (A') (A") (A') (A") (A') (A')
                 (A') (A") (A") (A') (A") (A') (A') (A") (A') (A')
                 (A') (A') (A") (A') (A') (A") (A") (A') (A') (A")
                 (A') (A') (A") (A') (A') (A") (A') (A') (A') (A')
                 (A") (A") (A") (A') (A') (A') (A') (A') (A') (A')
                 (A') (A')
  The electronic state is 1-A'.
 Alpha  occ. eigenvalues --  -14.37001 -14.27065 -10.19150 -10.16476 -10.14646
 Alpha  occ. eigenvalues --   -1.08074   -.90525   -.76855   -.65056   -.61507
 Alpha  occ. eigenvalues --    -.59210   -.47031   -.46443   -.44084   -.42010
 Alpha  occ. eigenvalues --    -.29755   -.25094   -.22907
 Alpha virt. eigenvalues --     .05242    .06961    .09593    .12814    .13837
 Alpha virt. eigenvalues --     .15969    .24781    .25370    .30477    .31680
 Alpha virt. eigenvalues --     .42748    .46469    .46881    .51265    .52185
 Alpha virt. eigenvalues --     .54132    .56898    .59961    .62727    .65555
 Alpha virt. eigenvalues --     .72966    .74824    .76774    .78607    .79580
 Alpha virt. eigenvalues --     .86587    .87584    .88858    .90569    .95299
 Alpha virt. eigenvalues --    1.00426   1.07540   1.10407   1.13835   1.14519
 Alpha virt. eigenvalues --    1.21848   1.25266   1.26211   1.35502   1.41318
 Alpha virt. eigenvalues --    1.54750   1.56989   1.59596   1.59804   1.62214
 Alpha virt. eigenvalues --    1.67114   1.75366   1.78078   1.84135   1.89316
 Alpha virt. eigenvalues --    1.91024   1.93190   1.94162   2.00943   2.04406
 Alpha virt. eigenvalues --    2.15549   2.23763   2.27180   2.38656   2.40759
 Alpha virt. eigenvalues --    2.42189   2.51967   2.57636   2.66498   2.75334
 Alpha virt. eigenvalues --    2.78530   2.91152   2.94572   2.97848   3.03143
 Alpha virt. eigenvalues --    3.44706   3.72331
          Condensed to atoms (all electrons):
              1          2          3          4          5          6
  1  N    6.183573    .007135   -.122283    .008064    .617937   -.018110
  2  H     .007135    .615244   -.040950   -.007878    .014167   -.000180
  3  C    -.122283   -.040950   4.865025    .382281    .584830   -.055991
  4  H     .008064   -.007878    .382281    .711416   -.027388   -.003831
  5  C     .617937    .014167    .584830   -.027388   4.587540    .410241
  6  H    -.018110   -.000180   -.055991   -.003831    .410241    .716151
  7  H    -.015923   -.005396    .006896   -.000788    .004297   -.000878
  8  C     .619340   -.033514   -.136424    .006731   -.179983    .006630
  9  N    -.080861    .398460    .508102   -.026531   -.070239    .003971
              7          8          9
  1  N    -.015923    .619340   -.080861
  2  H    -.005396   -.033514    .398460
  3  C     .006896   -.136424    .508102
  4  H    -.000788    .006731   -.026531
  5  C     .004297   -.179983   -.070239
  6  H    -.000878    .006630    .003971
  7  H     .679870    .394927   -.028181
  8  C     .394927   4.680033    .513980
  9  N    -.028181    .513980   5.695833
 Total atomic charges:
              1
  1  N    -.198872
  2  H     .052911
  3  C     .008515
  4  H    -.042076
  5  C     .058599
  6  H    -.058002
  7  H    -.034823
  8  C     .128280
  9  N     .085467
 Sum of Mulliken charges=    .00000
 Atomic charges with hydrogens summed into heavy atoms:
              1
  1  N    -.198872
  2  H     .000000
  3  C    -.033560
  4  H     .000000
  5  C     .000597
  6  H     .000000
  7  H     .000000
  8  C     .093457
  9  N     .138378
 Sum of Mulliken charges=    .00000
 Electronic spatial extent (au):  <R**2>=   257.7979
 Charge=      .0000 electrons
 Dipole moment (Debye):
    X=     1.0175    Y=     3.6011    Z=      .0000  Tot=     3.7421
 Quadrupole moment (Debye-Ang):
   XX=   -26.6997   YY=   -25.1300   ZZ=   -29.9754
   XY=    -2.8932   XZ=      .0000   YZ=      .0000
 Octapole moment (Debye-Ang**2):
  XXX=     -.0267  YYY=    14.8844  ZZZ=      .0000  XYY=     4.1625
  XXY=     4.5658  XXZ=      .0000  XZZ=     -.7781  YZZ=     1.2821
  YYZ=      .0000  XYZ=      .0000
 Hexadecapole moment (Debye-Ang**3):
 XXXX=  -140.4514 YYYY=  -127.2252 ZZZZ=   -28.8948 XXXY=    -1.9238
 XXXZ=      .0000 YYYX=    -5.6185 YYYZ=      .0000 ZZZX=      .0000
 ZZZY=      .0000 XXYY=   -50.9411 XXZZ=   -33.0738 YYZZ=   -30.6936
 XXYZ=      .0000 YYXZ=      .0000 ZZXY=      .8325
 N-N= 1.735664837334D+02 E-N=-8.746400003071D+02  KE= 2.264471328941D+02
 Symmetry A'   KE= 2.182111202281D+02
 Symmetry A"   KE= 8.236012666020D+00
 ***** Axes restored to original set *****
 -------------------------------------------------------------------
 Center     Atomic                   Forces (Hartrees/Bohr)
 Number     Number              X              Y              Z
 -------------------------------------------------------------------
    1          7            .083130405     .000000000     .088471555
    2          1            .019188668     .000000000    -.082183700
    3          6           -.072677112     .000000000     .017153817
    4          1           -.074986180     .000000000    -.054800484
    5          6           -.023421073     .000000000    -.014981439
    6          1           -.065066180     .000000000     .064318565
    7          1            .092017341     .000000000    -.011948107
    8          6            .009989724     .000000000     .044124888
    9          7            .031824407     .000000000    -.050155095
 -------------------------------------------------------------------
 Cartesian Forces:  Max      .092017341 RMS      .046900617

 GradGradGradGradGradGradGradGradGradGradGradGradGradGradGradGradGradGrad
 Berny optimization.
 Internal  Forces:  Max      .129839551 RMS      .048170023
 Search for a local minimum.
 Step number   1 out of a maximum of  48
 All quantities printed in internal units (Hartrees-Bohrs-Radians)
 Second derivative matrix not updated -- first step.
     Eigenvalues ---     .03211    .03261    .03288    .03318    .03352
     Eigenvalues ---     .03407    .16000    .16000    .16000    .16000
     Eigenvalues ---     .22000    .22917    .49193    .49594    .49613
     Eigenvalues ---     .54578    .60577    .63413    .68379    .73836
     Eigenvalues ---     .765081000.000001000.000001000.000001000.00000
     Eigenvalues --- 1000.000001000.000001000.000001000.000001000.00000
     Eigenvalues --- 1000.000001000.000001000.000001000.000001000.00000
     Eigenvalues --- 1000.000001000.000001000.00000
 RFO step:  Lambda=-1.17929793D-01.
 Linear search not attempted -- first point.
 Maximum step size (    .300) exceeded in Quadratic search.
    -- Step size scaled by    .742
 Iteration  1 RMS(Cart)=   .06546769 RMS(Int)=   .00042431
 Iteration  2 RMS(Cart)=   .00049260 RMS(Int)=   .00009567
 Iteration  3 RMS(Cart)=   .00000027 RMS(Int)=   .00009567
 Variable       Old X    -DE/DX   Delta X   Delta X   Delta X     New X
                                 (Linear)    (Quad)   (Total)
    R1        2.40969    .11868    .00000    .09981    .09975   2.50944
    R2        2.42167    .06340    .00000    .05390    .05372   2.47540
    R3        1.77186    .08439    .00000    .08652    .08652   1.85838
    R4        1.86958    .09247    .00000    .11172    .11172   1.98129
    R5        2.49323    .08472    .00000    .08566    .08579   2.57902
    R6        2.38988    .12984    .00000    .10957    .10972   2.49960
    R7        1.87388    .09136    .00000    .11114    .11114   1.98503
    R8        1.86977    .09275    .00000    .11210    .11210   1.98187
    R9        2.41548    .11256    .00000    .09874    .09869   2.51417
    A1        1.85787    .00281    .00000   -.00533   -.00562   1.85225
    A2        2.20999    .01596    .00000    .03524    .03510   2.24509
    A3        2.20602   -.00032    .00000   -.00820   -.00834   2.19769
    A4        1.86717   -.01564    .00000   -.02704   -.02677   1.84041
    A5        1.89521    .01043    .00000    .02002    .02010   1.91532
    A6        2.19177   -.00970    .00000   -.02197   -.02201   2.16976
    A7        2.19620   -.00074    .00000    .00195    .00191   2.19811
    A8        2.18150    .00079    .00000    .00342    .00350   2.18501
    A9        1.91767    .00328    .00000    .00612    .00595   1.92361
   A10        2.18402   -.00407    .00000   -.00954   -.00945   2.17457
   A11        2.20124    .00024    .00000   -.00367   -.00372   2.19752
   A12        2.19509    .00065    .00000   -.00256   -.00262   2.19247
   A13        1.88685   -.00089    .00000    .00623    .00634   1.89319
    D1         .00000    .00000    .00000    .00000    .00000    .00000
    D2        3.14159    .00000    .00000    .00000    .00000   3.14159
    D3        3.14159    .00000    .00000    .00000    .00000   3.14159
    D4         .00000    .00000    .00000    .00000    .00000    .00000
    D5        3.14159    .00000    .00000    .00000    .00000   3.14159
    D6         .00000    .00000    .00000    .00000    .00000    .00000
    D7         .00000    .00000    .00000    .00000    .00000    .00000
    D8        3.14159    .00000    .00000    .00000    .00000   3.14159
    D9         .00000    .00000    .00000    .00000    .00000    .00000
   D10        3.14159    .00000    .00000    .00000    .00000   3.14159
   D11        3.14159    .00000    .00000    .00000    .00000   3.14159
   D12         .00000    .00000    .00000    .00000    .00000    .00000
   D13        3.14159    .00000    .00000    .00000    .00000   3.14159
   D14         .00000    .00000    .00000    .00000    .00000    .00000
   D15         .00000    .00000    .00000    .00000    .00000    .00000
   D16        3.14159    .00000    .00000    .00000    .00000   3.14159
         Item               Value     Threshold  Converged?
 Maximum Force             .129840      .000450     NO 
 RMS     Force             .048170      .000300     NO 
 Maximum Displacement      .188173      .001800     NO 
 RMS     Displacement      .065412      .001200     NO 
 Predicted change in Energy=-2.715082D-02
 GradGradGradGradGradGradGradGradGradGradGradGradGradGradGradGradGradGrad

                          Input orientation:                          
 ---------------------------------------------------------------------
 Center     Atomic     Atomic              Coordinates (Angstroms)
 Number     Number      Type              X           Y           Z
 ---------------------------------------------------------------------
    1          7             0         .476910     .000000    1.111987
    2          1             0         .475766     .000000   -1.996918
    3          6             0        -.979888     .000000    -.539658
    4          1             0       -1.870962     .000000   -1.092149
    5          6             0        -.817485     .000000     .815406
    6          1             0       -1.588511     .000000    1.528795
    7          1             0        2.155306     .000000    -.145894
    8          6             0        1.112601     .000000    -.033349
    9          7             0         .244074     .000000   -1.041189
 ---------------------------------------------------------------------
                    Distance matrix (angstroms):
                    1          2          3          4          5
     1  N     .000000
     2  H    3.108905    .000000
     3  C    2.202315   2.059742    .000000
     4  H    3.220360   2.515102   1.048455    .000000
     5  C    1.327938   3.095427   1.364761   2.179123    .000000
     6  H    2.107058   4.085571   2.156135   2.636119   1.050430
     7  H    2.097445   2.499429   3.159825   4.135968   3.124354
     8  C    1.309923   2.064258   2.152872   3.165865   2.108463
     9  N    2.165728    .983412   1.322731   2.115650   2.138657
                    6          7          8          9
     6  H     .000000
     7  H    4.101310    .000000
     8  C    3.120304   1.048762    .000000
     9  N    3.156451   2.110536   1.330443    .000000
 Stoichiometry    C3H4N2
 Framework group  CS[SG(C3H4N2)]
 Deg. of freedom   15
 Full point group                 CS      NOp   2
 Largest Abelian subgroup         CS      NOp   2
 Largest concise Abelian subgroup C1      NOp   1
                         Standard orientation:                         
 ---------------------------------------------------------------------
 Center     Atomic     Atomic              Coordinates (Angstroms)
 Number     Number      Type              X           Y           Z
 ---------------------------------------------------------------------
    1          7             0        -.709525    -.970884     .000000
    2          1             0        -.011580    2.058665     .000000
    3          6             0        1.080408     .312212     .000000
    4          1             0        2.072645     .650920     .000000
    5          6             0         .618413    -.971974     .000000
    6          1             0        1.209922   -1.840030     .000000
    7          1             0       -2.063276     .631188     .000000
    8          6             0       -1.072326     .287796     .000000
    9          7             0         .000000    1.075321     .000000
 ---------------------------------------------------------------------
 Rotational constants (GHZ):     10.2350009      9.8107661      5.0091972
 Isotopes: N-14,H-1,C-12,H-1,C-12,H-1,H-1,C-12,N-14
 Standard basis: CC-pVDZ (5D, 7F)
 There are    66 symmetry adapted basis functions of A'  symmetry.
 There are    24 symmetry adapted basis functions of A"  symmetry.
 Crude estimate of integral set expansion from redundant integrals=1.000.
 Integral buffers will be    262144 words long.
 Raffenetti 2 integral format.
 Two-electron integral symmetry is turned on.
    90 basis functions      203 primitive gaussians
    18 alpha electrons       18 beta electrons
       nuclear repulsion energy       166.9877012508 Hartrees.
 One-electron integrals computed using PRISM.
 NBasis=    90 RedAO= T  NBF=    66    24
 NBsUse=    90 1.00D-04 NBFU=    66    24
 Initial guess read from the read-write file:
 Initial guess orbital symmetries:
       Occupied  (A') (A') (A') (A') (A') (A') (A') (A') (A') (A')
                 (A') (A") (A') (A') (A') (A") (A') (A")
       Virtual   (A") (A') (A") (A') (A') (A') (A') (A') (A') (A')
                 (A') (A") (A') (A') (A") (A') (A") (A') (A') (A')
                 (A') (A') (A') (A") (A') (A") (A') (A") (A') (A')
                 (A') (A") (A") (A') (A") (A') (A') (A") (A') (A')
                 (A') (A') (A") (A') (A') (A") (A") (A') (A') (A")
                 (A') (A') (A") (A') (A') (A") (A') (A') (A') (A')
                 (A") (A") (A") (A') (A') (A') (A') (A') (A') (A')
                 (A') (A')
 Requested convergence on RMS density matrix=1.00D-08 within  64 cycles.
 Requested convergence on MAX density matrix=1.00D-06.
 Keep R1 and R2 integrals in memory in canonical form, NReq=    21270441.
 Integral accuracy reduced to 1.0D-05 until final iterations.
 Initial convergence to 1.0D-05 achieved.  Increase integral accuracy.
 SCF Done:  E(RB+HF-PW91) =  -226.140118171     A.U. after   13 cycles
             Convg  =     .4411D-08             -V/T =  2.0038
             S**2   =    .0000
 ***** Axes restored to original set *****
 -------------------------------------------------------------------
 Center     Atomic                   Forces (Hartrees/Bohr)
 Number     Number              X              Y              Z
 -------------------------------------------------------------------
    1          7            .033810666     .000000000     .030037221
    2          1            .006266228     .000000000    -.027032938
    3          6           -.030110384     .000000000     .020193526
    4          1           -.022160168     .000000000    -.021309663
    5          6           -.010799081     .000000000    -.016672217
    6          1           -.019668038     .000000000     .023247994
    7          1            .030180736     .000000000    -.005714647
    8          6           -.005060015     .000000000     .021846520
    9          7            .017540056     .000000000    -.024595796
 -------------------------------------------------------------------
 Cartesian Forces:  Max      .033810666 RMS      .018008155

 GradGradGradGradGradGradGradGradGradGradGradGradGradGradGradGradGradGrad
 Berny optimization.
 Internal  Forces:  Max      .047401865 RMS      .016114094
 Search for a local minimum.
 Step number   2 out of a maximum of  48
 All quantities printed in internal units (Hartrees-Bohrs-Radians)
 Update second derivatives using information from points  1  2
 Trust test= 2.09D+00 RLast= 3.00D-01 DXMaxT set to 4.24D-01
     Eigenvalues ---     .03210    .03262    .03288    .03314    .03351
     Eigenvalues ---     .03406    .15926    .16000    .16000    .16001
     Eigenvalues ---     .22105    .22837    .49308    .49602    .51587
     Eigenvalues ---     .55672    .61034    .63942    .70444    .73843
     Eigenvalues ---     .758031000.000001000.000001000.000001000.00000
     Eigenvalues --- 1000.000001000.000001000.000001000.000001000.00000
     Eigenvalues --- 1000.000001000.000001000.000001000.000001000.00000
     Eigenvalues --- 1000.000001000.000001000.00000
 RFO step:  Lambda=-1.95377647D-03.
 Quartic linear search produced a step of   .64736.
 Iteration  1 RMS(Cart)=   .04429054 RMS(Int)=   .00080418
 Iteration  2 RMS(Cart)=   .00095559 RMS(Int)=   .00008167
 Iteration  3 RMS(Cart)=   .00000110 RMS(Int)=   .00008167
 Iteration  4 RMS(Cart)=   .00000000 RMS(Int)=   .00008167
 Variable       Old X    -DE/DX   Delta X   Delta X   Delta X     New X
                                 (Linear)    (Quad)   (Total)
    R1        2.50944    .04187    .06457    .00329    .06777   2.57721
    R2        2.47540    .01650    .03478   -.01145    .02320   2.49860
    R3        1.85838    .02775    .05601    .00036    .05636   1.91474
    R4        1.98129    .03006    .07232    .00261    .07493   2.05622
    R5        2.57902    .02193    .05554   -.01549    .04011   2.61913
    R6        2.49960    .04740    .07103    .00803    .07920   2.57880
    R7        1.98503    .03022    .07195    .00448    .07643   2.06146
    R8        1.98187    .03062    .07257    .00416    .07673   2.05860
    R9        2.51417    .03665    .06389   -.00225    .06166   2.57583
    A1        1.85225   -.00158   -.00364   -.02370   -.02763   1.82462
    A2        2.24509    .00859    .02272    .04469    .06731   2.31240
    A3        2.19769   -.00414   -.00540   -.04652   -.05202   2.14566
    A4        1.84041   -.00445   -.01733    .00183   -.01529   1.82512
    A5        1.91532    .00516    .01301    .01503    .02803   1.94334
    A6        2.16976   -.00627   -.01425   -.03445   -.04869   2.12108
    A7        2.19811    .00111    .00123    .01942    .02066   2.21877
    A8        2.18501    .00009    .00227    .00528    .00759   2.19260
    A9        1.92361    .00467    .00385    .02737    .03114   1.95475
   A10        2.17457   -.00476   -.00612   -.03265   -.03873   2.13583
   A11        2.19752    .00164   -.00241    .00806    .00557   2.20309
   A12        2.19247    .00217   -.00170    .01247    .01068   2.20315
   A13        1.89319   -.00380    .00410   -.02053   -.01625   1.87694
    D1         .00000    .00000    .00000    .00000    .00000    .00000
    D2        3.14159    .00000    .00000    .00000    .00000   3.14159
    D3        3.14159    .00000    .00000    .00000    .00000   3.14159
    D4         .00000    .00000    .00000    .00000    .00000    .00000
    D5        3.14159    .00000    .00000    .00000    .00000   3.14159
    D6         .00000    .00000    .00000    .00000    .00000    .00000
    D7         .00000    .00000    .00000    .00000    .00000    .00000
    D8        3.14159    .00000    .00000    .00000    .00000   3.14159
    D9         .00000    .00000    .00000    .00000    .00000    .00000
   D10        3.14159    .00000    .00000    .00000    .00000   3.14159
   D11        3.14159    .00000    .00000    .00000    .00000   3.14159
   D12         .00000    .00000    .00000    .00000    .00000    .00000
   D13        3.14159    .00000    .00000    .00000    .00000   3.14159
   D14         .00000    .00000    .00000    .00000    .00000    .00000
   D15         .00000    .00000    .00000    .00000    .00000    .00000
   D16        3.14159    .00000    .00000    .00000    .00000   3.14159
         Item               Value     Threshold  Converged?
 Maximum Force             .047402      .000450     NO 
 RMS     Force             .016114      .000300     NO 
 Maximum Displacement      .134738      .001800     NO 
 RMS     Displacement      .044194      .001200     NO 
 Predicted change in Energy=-1.320710D-02
 GradGradGradGradGradGradGradGradGradGradGradGradGradGradGradGradGradGrad

                          Input orientation:                          
 ---------------------------------------------------------------------
 Center     Atomic     Atomic              Coordinates (Angstroms)
 Number     Number      Type              X           Y           Z
 ---------------------------------------------------------------------
    1          7             0         .493899     .000000    1.145647
    2          1             0         .489505     .000000   -2.050103
    3          6             0       -1.017423     .000000    -.549295
    4          1             0       -1.911135     .000000   -1.169984
    5          6             0        -.831467     .000000     .824159
    6          1             0       -1.605030     .000000    1.593322
    7          1             0        2.198427     .000000    -.161083
    8          6             0        1.118255     .000000    -.019856
    9          7             0         .245317     .000000   -1.066729
 ---------------------------------------------------------------------
                    Distance matrix (angstroms):
                    1          2          3          4          5
     1  N     .000000
     2  H    3.195754    .000000
     3  C    2.270887   2.126795    .000000
     4  H    3.338613   2.556890   1.088106    .000000
     5  C    1.363800   3.163282   1.385986   2.267662    .000000
     6  H    2.146140   4.202574   2.221732   2.780209   1.090877
     7  H    2.147780   2.547314   3.239197   4.231593   3.186056
     8  C    1.322202   2.125378   2.200324   3.240370   2.124565
     9  N    2.226298   1.013239   1.364643   2.158922   2.175987
                    6          7          8          9
     6  H     .000000
     7  H    4.188582    .000000
     8  C    3.165221   1.089365    .000000
     9  N    3.240318   2.152867   1.363072    .000000
 Stoichiometry    C3H4N2
 Framework group  CS[SG(C3H4N2)]
 Deg. of freedom   15
 Full point group                 CS      NOp   2
 Largest Abelian subgroup         CS      NOp   2
 Largest concise Abelian subgroup C1      NOp   1
                         Standard orientation:                         
 ---------------------------------------------------------------------
 Center     Atomic     Atomic              Coordinates (Angstroms)
 Number     Number      Type              X           Y           Z
 ---------------------------------------------------------------------
    1          7             0        -.736540    -.998148     .000000
    2          1             0        -.018334    2.115856     .000000
    3          6             0        1.115234     .316333     .000000
    4          1             0        2.125019     .721683     .000000
    5          6             0         .627150    -.980868     .000000
    6          1             0        1.209335   -1.903405     .000000
    7          1             0       -2.106069     .656345     .000000
    8          6             0       -1.084746     .277379     .000000
    9          7             0         .000000    1.102784     .000000
 ---------------------------------------------------------------------
 Rotational constants (GHZ):      9.8755997      9.2905790      4.7870805
 Isotopes: N-14,H-1,C-12,H-1,C-12,H-1,H-1,C-12,N-14
 Standard basis: CC-pVDZ (5D, 7F)
 There are    66 symmetry adapted basis functions of A'  symmetry.
 There are    24 symmetry adapted basis functions of A"  symmetry.
 Crude estimate of integral set expansion from redundant integrals=1.000.
 Integral buffers will be    262144 words long.
 Raffenetti 2 integral format.
 Two-electron integral symmetry is turned on.
    90 basis functions      203 primitive gaussians
    18 alpha electrons       18 beta electrons
       nuclear repulsion energy       163.1756027575 Hartrees.
 One-electron integrals computed using PRISM.
 NBasis=    90 RedAO= T  NBF=    66    24
 NBsUse=    90 1.00D-04 NBFU=    66    24
 Initial guess read from the read-write file:
 Initial guess orbital symmetries:
       Occupied  (A') (A') (A') (A') (A') (A') (A') (A') (A') (A')
                 (A') (A') (A") (A') (A') (A") (A') (A")
       Virtual   (A") (A') (A") (A') (A') (A') (A') (A') (A') (A')
                 (A') (A') (A") (A') (A') (A") (A') (A") (A') (A')
                 (A') (A') (A') (A') (A") (A") (A') (A') (A") (A')
                 (A') (A") (A") (A') (A") (A') (A') (A") (A') (A')
                 (A') (A') (A") (A') (A') (A") (A') (A") (A') (A")
                 (A') (A') (A") (A') (A') (A") (A') (A') (A') (A')
                 (A") (A") (A") (A') (A') (A') (A') (A') (A') (A')
                 (A') (A')
 Requested convergence on RMS density matrix=1.00D-08 within  64 cycles.
 Requested convergence on MAX density matrix=1.00D-06.
 Keep R1 and R2 integrals in memory in canonical form, NReq=    21270441.
 Integral accuracy reduced to 1.0D-05 until final iterations.
 Initial convergence to 1.0D-05 achieved.  Increase integral accuracy.
 SCF Done:  E(RB+HF-PW91) =  -226.149937800     A.U. after   12 cycles
             Convg  =     .8212D-08             -V/T =  2.0066
             S**2   =    .0000
 ***** Axes restored to original set *****
 -------------------------------------------------------------------
 Center     Atomic                   Forces (Hartrees/Bohr)
 Number     Number              X              Y              Z
 -------------------------------------------------------------------
    1          7            .006352617     .000000000    -.007050803
    2          1           -.000239844     .000000000     .001918350
    3          6           -.006874212     .000000000     .011085179
    4          1            .001689988     .000000000     .000659961
    5          6           -.011382391     .000000000    -.005367871
    6          1            .001110649     .000000000    -.001032693
    7          1           -.000861454     .000000000    -.000225194
    8          6            .002574533     .000000000     .003915875
    9          7            .007630114     .000000000    -.003902804
 -------------------------------------------------------------------
 Cartesian Forces:  Max      .011382391 RMS      .004405860

 GradGradGradGradGradGradGradGradGradGradGradGradGradGradGradGradGradGrad
 Berny optimization.
 Internal  Forces:  Max      .008904078 RMS      .002646650
 Search for a local minimum.
 Step number   3 out of a maximum of  48
 All quantities printed in internal units (Hartrees-Bohrs-Radians)
 Update second derivatives using information from points  1  2  3
 Trust test= 7.44D-01 RLast= 2.28D-01 DXMaxT set to 4.24D-01
     Eigenvalues ---     .03206    .03260    .03287    .03304    .03349
     Eigenvalues ---     .03404    .15441    .16000    .16001    .16002
     Eigenvalues ---     .22125    .23410    .45062    .49334    .49622
     Eigenvalues ---     .55823    .59247    .64029    .66673    .73091
     Eigenvalues ---     .747911000.000001000.000001000.000001000.00000
     Eigenvalues --- 1000.000001000.000001000.000001000.000001000.00000
     Eigenvalues --- 1000.000001000.000001000.000001000.000001000.00000
     Eigenvalues --- 1000.000001000.000001000.00000
 RFO step:  Lambda=-4.96634885D-04.
 Quartic linear search produced a step of  -.00307.
 Iteration  1 RMS(Cart)=   .00589566 RMS(Int)=   .00002101
 Iteration  2 RMS(Cart)=   .00002042 RMS(Int)=   .00000455
 Iteration  3 RMS(Cart)=   .00000000 RMS(Int)=   .00000455
 Variable       Old X    -DE/DX   Delta X   Delta X   Delta X     New X
                                 (Linear)    (Quad)   (Total)
    R1        2.57721    .00682   -.00021    .01075    .01055   2.58776
    R2        2.49860   -.00437   -.00007   -.00548   -.00555   2.49305
    R3        1.91474   -.00192   -.00017   -.00158   -.00176   1.91299
    R4        2.05622   -.00177   -.00023   -.00147   -.00170   2.05452
    R5        2.61913   -.00825   -.00012   -.01183   -.01194   2.60719
    R6        2.57880    .00890   -.00024    .01377    .01352   2.59232
    R7        2.06146   -.00152   -.00023   -.00098   -.00121   2.06025
    R8        2.05860   -.00082   -.00024    .00045    .00021   2.05881
    R9        2.57583   -.00097   -.00019    .00049    .00029   2.57612
    A1        1.82462    .00439    .00008    .01572    .01581   1.84043
    A2        2.31240    .00009   -.00021    .00161    .00141   2.31381
    A3        2.14566   -.00077    .00016   -.00606   -.00590   2.13976
    A4        1.82512    .00068    .00005    .00445    .00450   1.82962
    A5        1.94334   -.00267   -.00009   -.01127   -.01134   1.93200
    A6        2.12108    .00128    .00015    .00460    .00474   2.12582
    A7        2.21877    .00139   -.00006    .00667    .00660   2.22537
    A8        2.19260    .00170   -.00002    .00844    .00842   2.20102
    A9        1.95475   -.00270   -.00010   -.01164   -.01174   1.94301
   A10        2.13583    .00100    .00012    .00320    .00333   2.13916
   A11        2.20309    .00007   -.00002   -.00008   -.00009   2.20300
   A12        2.20315   -.00036   -.00003   -.00266   -.00269   2.20047
   A13        1.87694    .00029    .00005    .00274    .00278   1.87972
    D1         .00000    .00000    .00000    .00000    .00000    .00000
    D2        3.14159    .00000    .00000    .00000    .00000   3.14159
    D3        3.14159    .00000    .00000    .00000    .00000   3.14159
    D4         .00000    .00000    .00000    .00000    .00000    .00000
    D5        3.14159    .00000    .00000    .00000    .00000   3.14159
    D6         .00000    .00000    .00000    .00000    .00000    .00000
    D7         .00000    .00000    .00000    .00000    .00000    .00000
    D8        3.14159    .00000    .00000    .00000    .00000   3.14159
    D9         .00000    .00000    .00000    .00000    .00000    .00000
   D10        3.14159    .00000    .00000    .00000    .00000   3.14159
   D11        3.14159    .00000    .00000    .00000    .00000   3.14159
   D12         .00000    .00000    .00000    .00000    .00000    .00000
   D13        3.14159    .00000    .00000    .00000    .00000   3.14159
   D14         .00000    .00000    .00000    .00000    .00000    .00000
   D15         .00000    .00000    .00000    .00000    .00000    .00000
   D16        3.14159    .00000    .00000    .00000    .00000   3.14159
         Item               Value     Threshold  Converged?
 Maximum Force             .008904      .000450     NO 
 RMS     Force             .002647      .000300     NO 
 Maximum Displacement      .017501      .001800     NO 
 RMS     Displacement      .005892      .001200     NO 
 Predicted change in Energy=-2.481023D-04
 GradGradGradGradGradGradGradGradGradGradGradGradGradGradGradGradGradGrad

                          Input orientation:                          
 ---------------------------------------------------------------------
 Center     Atomic     Atomic              Coordinates (Angstroms)
 Number     Number      Type              X           Y           Z
 ---------------------------------------------------------------------
    1          7             0         .494169     .000000    1.128202
    2          1             0         .491918     .000000   -2.056136
    3          6             0       -1.019637     .000000    -.551805
    4          1             0       -1.909629     .000000   -1.176246
    5          6             0        -.839151     .000000     .816004
    6          1             0       -1.609779     .000000    1.587201
    7          1             0        2.206450     .000000    -.171641
    8          6             0        1.126248     .000000    -.029787
    9          7             0         .249141     .000000   -1.073371
 ---------------------------------------------------------------------
                    Distance matrix (angstroms):
                    1          2          3          4          5
     1  N     .000000
     2  H    3.184339    .000000
     3  C    2.261422   2.132560    .000000
     4  H    3.329974   2.557663   1.087205    .000000
     5  C    1.369382   3.165586   1.379665   2.261633    .000000
     6  H    2.153434   4.206072   2.218922   2.779667   1.090235
     7  H    2.149767   2.547733   3.248409   4.236903   3.201738
     8  C    1.319266   2.123315   2.208466   3.245138   2.139662
     9  N    2.215166   1.012309   1.371797   2.161220   2.180394
                    6          7          8          9
     6  H     .000000
     7  H    4.202039    .000000
     8  C    3.178127   1.089477    .000000
     9  N    3.245647   2.155036   1.363226    .000000
 Stoichiometry    C3H4N2
 Framework group  CS[SG(C3H4N2)]
 Deg. of freedom   15
 Full point group                 CS      NOp   2
 Largest Abelian subgroup         CS      NOp   2
 Largest concise Abelian subgroup C1      NOp   1
                         Standard orientation:                         
 ---------------------------------------------------------------------
 Center     Atomic     Atomic              Coordinates (Angstroms)
 Number     Number      Type              X           Y           Z
 ---------------------------------------------------------------------
    1          7             0        -.737447    -.987541     .000000
    2          1             0        -.013808    2.113485     .000000
    3          6             0        1.117619     .305811     .000000
    4          1             0        2.125943     .712377     .000000
    5          6             0         .631934    -.985540     .000000
    6          1             0        1.207800   -1.911278     .000000
    7          1             0       -2.110710     .666438     .000000
    8          6             0       -1.090735     .283541     .000000
    9          7             0         .000000    1.101270     .000000
 ---------------------------------------------------------------------
 Rotational constants (GHZ):      9.7640626      9.3770066      4.7833106
 Isotopes: N-14,H-1,C-12,H-1,C-12,H-1,H-1,C-12,N-14
 Standard basis: CC-pVDZ (5D, 7F)
 There are    66 symmetry adapted basis functions of A'  symmetry.
 There are    24 symmetry adapted basis functions of A"  symmetry.
 Crude estimate of integral set expansion from redundant integrals=1.000.
 Integral buffers will be    262144 words long.
 Raffenetti 2 integral format.
 Two-electron integral symmetry is turned on.
    90 basis functions      203 primitive gaussians
    18 alpha electrons       18 beta electrons
       nuclear repulsion energy       163.0961098416 Hartrees.
 One-electron integrals computed using PRISM.
 NBasis=    90 RedAO= T  NBF=    66    24
 NBsUse=    90 1.00D-04 NBFU=    66    24
 Initial guess read from the read-write file:
 Initial guess orbital symmetries:
       Occupied  (A') (A') (A') (A') (A') (A') (A') (A') (A') (A')
                 (A') (A') (A') (A") (A') (A") (A') (A")
       Virtual   (A") (A') (A") (A') (A') (A') (A') (A') (A') (A')
                 (A') (A') (A') (A") (A') (A") (A') (A') (A") (A')
                 (A') (A') (A') (A') (A") (A') (A") (A') (A") (A')
                 (A') (A") (A') (A") (A") (A') (A') (A") (A') (A')
                 (A') (A') (A") (A') (A') (A") (A') (A") (A') (A")
                 (A') (A') (A') (A") (A') (A') (A") (A') (A') (A')
                 (A") (A") (A') (A") (A') (A') (A') (A') (A') (A')
                 (A') (A')
 Requested convergence on RMS density matrix=1.00D-08 within  64 cycles.
 Requested convergence on MAX density matrix=1.00D-06.
 Keep R1 and R2 integrals in memory in canonical form, NReq=    21270441.
 SCF Done:  E(RB+HF-PW91) =  -226.150189139     A.U. after   10 cycles
             Convg  =     .4472D-08             -V/T =  2.0066
             S**2   =    .0000
 ***** Axes restored to original set *****
 -------------------------------------------------------------------
 Center     Atomic                   Forces (Hartrees/Bohr)
 Number     Number              X              Y              Z
 -------------------------------------------------------------------
    1          7            .004874599     .000000000     .000212020
    2          1           -.000618425     .000000000     .000824720
    3          6           -.002317720     .000000000     .004015910
    4          1            .001100953     .000000000     .000136515
    5          6           -.002683584     .000000000    -.004077656
    6          1            .001346256     .000000000    -.000671700
    7          1           -.001058826     .000000000     .000180425
    8          6           -.003834851     .000000000     .003076099
    9          7            .003191600     .000000000    -.003696333
 -------------------------------------------------------------------
 Cartesian Forces:  Max      .004874599 RMS      .002133187

 GradGradGradGradGradGradGradGradGradGradGradGradGradGradGradGradGradGrad
 Berny optimization.
 Internal  Forces:  Max      .003029511 RMS      .001082132
 Search for a local minimum.
 Step number   4 out of a maximum of  48
 All quantities printed in internal units (Hartrees-Bohrs-Radians)
 Update second derivatives using information from points  1  2  3  4
 Trust test= 1.01D+00 RLast= 3.48D-02 DXMaxT set to 4.24D-01
     Eigenvalues ---     .03205    .03261    .03287    .03304    .03350
     Eigenvalues ---     .03404    .14707    .15999    .16001    .16061
     Eigenvalues ---     .21597    .32906    .45647    .48326    .49581
     Eigenvalues ---     .49699    .56640    .60151    .64499    .69943
     Eigenvalues ---     .768561000.000001000.000001000.000001000.00000
     Eigenvalues --- 1000.000001000.000001000.000001000.000001000.00000
     Eigenvalues --- 1000.000001000.000001000.000001000.000001000.00000
     Eigenvalues --- 1000.000001000.000001000.00000
 RFO step:  Lambda=-1.17708760D-04.
 Quartic linear search produced a step of   .01487.
 Iteration  1 RMS(Cart)=   .00227876 RMS(Int)=   .00000471
 Iteration  2 RMS(Cart)=   .00000500 RMS(Int)=   .00000247
 Iteration  3 RMS(Cart)=   .00000000 RMS(Int)=   .00000247
 Variable       Old X    -DE/DX   Delta X   Delta X   Delta X     New X
                                 (Linear)    (Quad)   (Total)
    R1        2.58776    .00205    .00016    .00569    .00584   2.59360
    R2        2.49305   -.00303   -.00008   -.00529   -.00537   2.48768
    R3        1.91299   -.00095   -.00003   -.00136   -.00139   1.91160
    R4        2.05452   -.00098   -.00003   -.00152   -.00155   2.05297
    R5        2.60719   -.00277   -.00018   -.00644   -.00662   2.60057
    R6        2.59232    .00133    .00020    .00564    .00585   2.59817
    R7        2.06025   -.00143   -.00002   -.00236   -.00237   2.05787
    R8        2.05881   -.00107    .00000   -.00128   -.00128   2.05753
    R9        2.57612    .00011    .00000    .00089    .00090   2.57702
    A1        1.84043   -.00169    .00024   -.00481   -.00457   1.83586
    A2        2.31381    .00058    .00002    .00384    .00387   2.31767
    A3        2.13976   -.00049   -.00009   -.00499   -.00508   2.13468
    A4        1.82962   -.00009    .00007    .00115    .00121   1.83084
    A5        1.93200    .00110   -.00017    .00255    .00237   1.93437
    A6        2.12582   -.00104    .00007   -.00474   -.00466   2.12116
    A7        2.22537   -.00005    .00010    .00219    .00229   2.22766
    A8        2.20102   -.00113    .00013   -.00302   -.00290   2.19812
    A9        1.94301    .00219   -.00017    .00679    .00662   1.94963
   A10        2.13916   -.00105    .00005   -.00377   -.00372   2.13544
   A11        2.20300    .00037    .00000    .00068    .00067   2.20367
   A12        2.20047    .00114   -.00004    .00501    .00497   2.20543
   A13        1.87972   -.00151    .00004   -.00568   -.00564   1.87408
    D1         .00000    .00000    .00000    .00000    .00000    .00000
    D2        3.14159    .00000    .00000    .00000    .00000   3.14159
    D3        3.14159    .00000    .00000    .00000    .00000   3.14159
    D4         .00000    .00000    .00000    .00000    .00000    .00000
    D5        3.14159    .00000    .00000    .00000    .00000   3.14159
    D6         .00000    .00000    .00000    .00000    .00000    .00000
    D7         .00000    .00000    .00000    .00000    .00000    .00000
    D8        3.14159    .00000    .00000    .00000    .00000   3.14159
    D9         .00000    .00000    .00000    .00000    .00000    .00000
   D10        3.14159    .00000    .00000    .00000    .00000   3.14159
   D11        3.14159    .00000    .00000    .00000    .00000   3.14159
   D12         .00000    .00000    .00000    .00000    .00000    .00000
   D13        3.14159    .00000    .00000    .00000    .00000   3.14159
   D14         .00000    .00000    .00000    .00000    .00000    .00000
   D15         .00000    .00000    .00000    .00000    .00000    .00000
   D16        3.14159    .00000    .00000    .00000    .00000   3.14159
         Item               Value     Threshold  Converged?
 Maximum Force             .003030      .000450     NO 
 RMS     Force             .001082      .000300     NO 
 Maximum Displacement      .006221      .001800     NO 
 RMS     Displacement      .002279      .001200     NO 
 Predicted change in Energy=-5.888466D-05
 GradGradGradGradGradGradGradGradGradGradGradGradGradGradGradGradGradGrad

                          Input orientation:                          
 ---------------------------------------------------------------------
 Center     Atomic     Atomic              Coordinates (Angstroms)
 Number     Number      Type              X           Y           Z
 ---------------------------------------------------------------------
    1          7             0         .496708     .000000    1.129962
    2          1             0         .491731     .000000   -2.056914
    3          6             0       -1.020187     .000000    -.549287
    4          1             0       -1.907570     .000000   -1.176013
    5          6             0        -.839115     .000000     .814910
    6          1             0       -1.606498     .000000    1.587566
    7          1             0        2.203523     .000000    -.169229
    8          6             0        1.124001     .000000    -.027396
    9          7             0         .250414     .000000   -1.074546
 ---------------------------------------------------------------------
                    Distance matrix (angstroms):
                    1          2          3          4          5
     1  N     .000000
     2  H    3.186880    .000000
     3  C    2.262929   2.135142    .000000
     4  H    3.331377   2.555902   1.086386    .000000
     5  C    1.372473   3.165205   1.376162   2.259507    .000000
     6  H    2.152413   4.205330   2.215830   2.779930   1.088979
     7  H    2.145020   2.548251   3.246035   4.232576   3.197838
     8  C    1.316424   2.125725   2.206788   3.241874   2.136189
     9  N    2.218224   1.011573   1.374891   2.160369   2.181082
                    6          7          8          9
     6  H     .000000
     7  H    4.195544    .000000
     8  C    3.172338   1.088799    .000000
     9  N    3.245761   2.152726   1.363700    .000000
 Stoichiometry    C3H4N2
 Framework group  CS[SG(C3H4N2)]
 Deg. of freedom   15
 Full point group                 CS      NOp   2
 Largest Abelian subgroup         CS      NOp   2
 Largest concise Abelian subgroup C1      NOp   1
                         Standard orientation:                         
 ---------------------------------------------------------------------
 Center     Atomic     Atomic              Coordinates (Angstroms)
 Number     Number      Type              X           Y           Z
 ---------------------------------------------------------------------
    1          7             0        -.740210    -.987662     .000000
    2          1             0        -.012057    2.114917     .000000
    3          6             0        1.118228     .303485     .000000
    4          1             0        2.124697     .712451     .000000
    5          6             0         .632258    -.984015     .000000
    6          1             0        1.204251   -1.910675     .000000
    7          1             0       -2.107612     .665009     .000000
    8          6             0       -1.088454     .281866     .000000
    9          7             0         .000000    1.103416     .000000
 ---------------------------------------------------------------------
 Rotational constants (GHZ):      9.7746079      9.3675291      4.7833700
 Isotopes: N-14,H-1,C-12,H-1,C-12,H-1,H-1,C-12,N-14
 Standard basis: CC-pVDZ (5D, 7F)
 There are    66 symmetry adapted basis functions of A'  symmetry.
 There are    24 symmetry adapted basis functions of A"  symmetry.
 Crude estimate of integral set expansion from redundant integrals=1.000.
 Integral buffers will be    262144 words long.
 Raffenetti 2 integral format.
 Two-electron integral symmetry is turned on.
    90 basis functions      203 primitive gaussians
    18 alpha electrons       18 beta electrons
       nuclear repulsion energy       163.1049516497 Hartrees.
 One-electron integrals computed using PRISM.
 NBasis=    90 RedAO= T  NBF=    66    24
 NBsUse=    90 1.00D-04 NBFU=    66    24
 Initial guess read from the read-write file:
 Initial guess orbital symmetries:
       Occupied  (A') (A') (A') (A') (A') (A') (A') (A') (A') (A')
                 (A') (A') (A') (A") (A') (A") (A') (A")
       Virtual   (A") (A') (A") (A') (A') (A') (A') (A') (A') (A')
                 (A') (A') (A') (A") (A') (A") (A') (A') (A") (A')
                 (A') (A') (A') (A') (A") (A') (A") (A') (A") (A')
                 (A') (A") (A') (A") (A") (A') (A') (A") (A') (A')
                 (A') (A') (A") (A') (A') (A") (A') (A") (A') (A")
                 (A') (A') (A') (A") (A') (A') (A") (A') (A') (A')
                 (A") (A") (A') (A") (A') (A') (A') (A') (A') (A')
                 (A') (A')
 Requested convergence on RMS density matrix=1.00D-08 within  64 cycles.
 Requested convergence on MAX density matrix=1.00D-06.
 Keep R1 and R2 integrals in memory in canonical form, NReq=    21270441.
 SCF Done:  E(RB+HF-PW91) =  -226.150262887     A.U. after    9 cycles
             Convg  =     .3404D-08             -V/T =  2.0066
             S**2   =    .0000
 ***** Axes restored to original set *****
 -------------------------------------------------------------------
 Center     Atomic                   Forces (Hartrees/Bohr)
 Number     Number              X              Y              Z
 -------------------------------------------------------------------
    1          7            .001552803     .000000000     .000161418
    2          1           -.000241476     .000000000     .000386152
    3          6           -.000400004     .000000000     .000614509
    4          1            .000352407     .000000000     .000161081
    5          6           -.001165048     .000000000    -.000972203
    6          1            .000507198     .000000000    -.000270896
    7          1           -.000375596     .000000000     .000076247
    8          6           -.001092500     .000000000     .000442086
    9          7            .000862214     .000000000    -.000598395
 -------------------------------------------------------------------
 Cartesian Forces:  Max      .001552803 RMS      .000564472

 GradGradGradGradGradGradGradGradGradGradGradGradGradGradGradGradGradGrad
 Berny optimization.
 Internal  Forces:  Max      .000775168 RMS      .000307881
 Search for a local minimum.
 Step number   5 out of a maximum of  48
 All quantities printed in internal units (Hartrees-Bohrs-Radians)
 Update second derivatives using information from points  1  2  3  4  5

 Trust test= 1.25D+00 RLast= 1.93D-02 DXMaxT set to 4.24D-01
     Eigenvalues ---     .03205    .03261    .03287    .03303    .03349
     Eigenvalues ---     .03404    .14225    .15975    .16002    .16017
     Eigenvalues ---     .21353    .28885    .43424    .47711    .49657
     Eigenvalues ---     .49799    .56372    .59755    .64700    .68992
     Eigenvalues ---     .764341000.000001000.000001000.000001000.00000
     Eigenvalues --- 1000.000001000.000001000.000001000.000001000.00000
     Eigenvalues --- 1000.000001000.000001000.000001000.000001000.00000
     Eigenvalues --- 1000.000001000.000001000.00000
 RFO step:  Lambda=-1.49415413D-06.
 Quartic linear search produced a step of   .33608.
 Iteration  1 RMS(Cart)=   .00084304 RMS(Int)=   .00000123
 Iteration  2 RMS(Cart)=   .00000059 RMS(Int)=   .00000113
 Variable       Old X    -DE/DX   Delta X   Delta X   Delta X     New X
                                 (Linear)    (Quad)   (Total)
    R1        2.59360    .00078    .00196    .00051    .00247   2.59607
    R2        2.48768   -.00077   -.00180   -.00004   -.00185   2.48584
    R3        1.91160   -.00043   -.00047   -.00048   -.00095   1.91065
    R4        2.05297   -.00038   -.00052   -.00043   -.00095   2.05202
    R5        2.60057   -.00067   -.00222    .00008   -.00215   2.59842
    R6        2.59817    .00007    .00196   -.00057    .00140   2.59956
    R7        2.05787   -.00055   -.00080   -.00059   -.00139   2.05648
    R8        2.05753   -.00038   -.00043   -.00037   -.00081   2.05673
    R9        2.57702   -.00028    .00030   -.00070   -.00039   2.57662
    A1        1.83586   -.00054   -.00154   -.00024   -.00178   1.83409
    A2        2.31767    .00009    .00130   -.00050    .00080   2.31848
    A3        2.13468   -.00005   -.00171    .00069   -.00102   2.13366
    A4        1.83084   -.00004    .00041   -.00019    .00022   1.83105
    A5        1.93437    .00020    .00080   -.00009    .00071   1.93508
    A6        2.12116   -.00028   -.00157   -.00034   -.00191   2.11925
    A7        2.22766    .00008    .00077    .00043    .00120   2.22886
    A8        2.19812   -.00033   -.00097   -.00017   -.00115   2.19697
    A9        1.94963    .00060    .00222    .00002    .00225   1.95187
   A10        2.13544   -.00028   -.00125    .00015   -.00110   2.13434
   A11        2.20367   -.00003    .00023   -.00059   -.00036   2.20331
   A12        2.20543    .00024    .00167    .00009    .00176   2.20719
   A13        1.87408   -.00021   -.00189    .00050   -.00140   1.87268
    D1         .00000    .00000    .00000    .00000    .00000    .00000
    D2        3.14159    .00000    .00000    .00000    .00000   3.14159
    D3        3.14159    .00000    .00000    .00000    .00000   3.14159
    D4         .00000    .00000    .00000    .00000    .00000    .00000
    D5        3.14159    .00000    .00000    .00000    .00000   3.14159
    D6         .00000    .00000    .00000    .00000    .00000    .00000
    D7         .00000    .00000    .00000    .00000    .00000    .00000
    D8        3.14159    .00000    .00000    .00000    .00000   3.14159
    D9         .00000    .00000    .00000    .00000    .00000    .00000
   D10        3.14159    .00000    .00000    .00000    .00000   3.14159
   D11        3.14159    .00000    .00000    .00000    .00000   3.14159
   D12         .00000    .00000    .00000    .00000    .00000    .00000
   D13        3.14159    .00000    .00000    .00000    .00000   3.14159
   D14         .00000    .00000    .00000    .00000    .00000    .00000
   D15         .00000    .00000    .00000    .00000    .00000    .00000
   D16        3.14159    .00000    .00000    .00000    .00000   3.14159
         Item               Value     Threshold  Converged?
 Maximum Force             .000775      .000450     NO 
 RMS     Force             .000308      .000300     NO 
 Maximum Displacement      .002582      .001800     NO 
 RMS     Displacement      .000843      .001200     YES
 Predicted change in Energy=-5.725394D-06
 GradGradGradGradGradGradGradGradGradGradGradGradGradGradGradGradGradGrad

                          Input orientation:                          
 ---------------------------------------------------------------------
 Center     Atomic     Atomic              Coordinates (Angstroms)
 Number     Number      Type              X           Y           Z
 ---------------------------------------------------------------------
    1          7             0         .497569     .000000    1.130204
    2          1             0         .491338     .000000   -2.057002
    3          6             0       -1.020349     .000000    -.549052
    4          1             0       -1.906865     .000000   -1.176133
    5          6             0        -.839325     .000000     .814003
    6          1             0       -1.605207     .000000    1.587113
    7          1             0        2.202177     .000000    -.168780
    8          6             0        1.123077     .000000    -.027009
    9          7             0         .250781     .000000   -1.074963
 ---------------------------------------------------------------------
                    Distance matrix (angstroms):
                    1          2          3          4          5
     1  N     .000000
     2  H    3.187213    .000000
     3  C    2.263621   2.135207    .000000
     4  H    3.331740   2.554859   1.085882    .000000
     5  C    1.373780   3.164386   1.375023   2.258380    .000000
     6  H    2.151844   4.204174   2.214782   2.779663   1.088243
     7  H    2.143140   2.548010   3.244885   4.230719   3.196342
     8  C    1.315448   2.126021   2.206084   3.240530   2.135024
     9  N    2.218934   1.011073   1.375629   2.160017   2.180946
                    6          7          8          9
     6  H     .000000
     7  H    4.192771    .000000
     8  C    3.170004   1.088373    .000000
     9  N    3.245203   2.151538   1.363491    .000000
 Stoichiometry    C3H4N2
 Framework group  CS[SG(C3H4N2)]
 Deg. of freedom   15
 Full point group                 CS      NOp   2
 Largest Abelian subgroup         CS      NOp   2
 Largest concise Abelian subgroup C1      NOp   1
                         Standard orientation:                         
 ---------------------------------------------------------------------
 Center     Atomic     Atomic              Coordinates (Angstroms)
 Number     Number      Type              X           Y           Z
 ---------------------------------------------------------------------
    1          7             0        -.741321    -.987624     .000000
    2          1             0        -.011159    2.114825     .000000
    3          6             0        1.118411     .302870     .000000
    4          1             0        2.124210     .712148     .000000
    5          6             0         .632452    -.983416     .000000
    6          1             0        1.202666   -1.910309     .000000
    7          1             0       -2.106242     .664659     .000000
    8          6             0       -1.087568     .281438     .000000
    9          7             0         .000000    1.103814     .000000
 ---------------------------------------------------------------------
 Rotational constants (GHZ):      9.7794249      9.3660444      4.7841359
 Isotopes: N-14,H-1,C-12,H-1,C-12,H-1,H-1,C-12,N-14
 Standard basis: CC-pVDZ (5D, 7F)
 There are    66 symmetry adapted basis functions of A'  symmetry.
 There are    24 symmetry adapted basis functions of A"  symmetry.
 Crude estimate of integral set expansion from redundant integrals=1.000.
 Integral buffers will be    262144 words long.
 Raffenetti 2 integral format.
 Two-electron integral symmetry is turned on.
    90 basis functions      203 primitive gaussians
    18 alpha electrons       18 beta electrons
       nuclear repulsion energy       163.1219416897 Hartrees.
 One-electron integrals computed using PRISM.
 NBasis=    90 RedAO= T  NBF=    66    24
 NBsUse=    90 1.00D-04 NBFU=    66    24
 Initial guess read from the read-write file:
 Initial guess orbital symmetries:
       Occupied  (A') (A') (A') (A') (A') (A') (A') (A') (A') (A')
                 (A') (A') (A') (A") (A') (A") (A') (A")
       Virtual   (A") (A') (A") (A') (A') (A') (A') (A') (A') (A')
                 (A') (A') (A') (A") (A') (A") (A') (A') (A") (A')
                 (A') (A') (A') (A') (A") (A') (A") (A') (A") (A')
                 (A') (A") (A') (A") (A") (A') (A') (A") (A') (A')
                 (A') (A') (A") (A') (A') (A") (A') (A") (A') (A")
                 (A') (A') (A') (A") (A') (A") (A') (A') (A') (A')
                 (A") (A") (A') (A") (A') (A') (A') (A') (A') (A')
                 (A') (A')
 Requested convergence on RMS density matrix=1.00D-08 within  64 cycles.
 Requested convergence on MAX density matrix=1.00D-06.
 Keep R1 and R2 integrals in memory in canonical form, NReq=    21270441.
 SCF Done:  E(RB+HF-PW91) =  -226.150268821     A.U. after    9 cycles
             Convg  =     .3306D-08             -V/T =  2.0066
             S**2   =    .0000
 ***** Axes restored to original set *****
 -------------------------------------------------------------------
 Center     Atomic                   Forces (Hartrees/Bohr)
 Number     Number              X              Y              Z
 -------------------------------------------------------------------
    1          7            .000199918     .000000000     .000147947
    2          1           -.000020633     .000000000     .000016473
    3          6            .000171024     .000000000    -.000170214
    4          1            .000003557     .000000000     .000031422
    5          6           -.000320847     .000000000     .000028474
    6          1            .000051092     .000000000    -.000002032
    7          1           -.000006561     .000000000     .000007678
    8          6           -.000108942     .000000000    -.000224835
    9          7            .000031393     .000000000     .000165087
 -------------------------------------------------------------------
 Cartesian Forces:  Max      .000320847 RMS      .000108679

 GradGradGradGradGradGradGradGradGradGradGradGradGradGradGradGradGradGrad
 Berny optimization.
 Internal  Forces:  Max      .000190289 RMS      .000054860
 Search for a local minimum.
 Step number   6 out of a maximum of  48
 All quantities printed in internal units (Hartrees-Bohrs-Radians)
 Update second derivatives using information from points  1  2  3  4  5
                                                        6
 Trust test= 1.04D+00 RLast= 6.62D-03 DXMaxT set to 4.24D-01
     Eigenvalues ---     .03205    .03261    .03286    .03303    .03349
     Eigenvalues ---     .03404    .14038    .15745    .16001    .16035
     Eigenvalues ---     .21011    .29288    .43123    .46535    .49644
     Eigenvalues ---     .49717    .56343    .59411    .64185    .70037
     Eigenvalues ---     .764531000.000001000.000001000.000001000.00000
     Eigenvalues --- 1000.000001000.000001000.000001000.000001000.00000
     Eigenvalues --- 1000.000001000.000001000.000001000.000001000.00000
     Eigenvalues --- 1000.000001000.000001000.00000
 RFO step:  Lambda=-2.09185347D-07.
 Quartic linear search produced a step of   .03834.
 Iteration  1 RMS(Cart)=   .00009227 RMS(Int)=   .00000001
 Iteration  2 RMS(Cart)=   .00000001 RMS(Int)=   .00000001
 Variable       Old X    -DE/DX   Delta X   Delta X   Delta X     New X
                                 (Linear)    (Quad)   (Total)
    R1        2.59607    .00019    .00009    .00026    .00035   2.59642
    R2        2.48584    .00008   -.00007    .00015    .00008   2.48592
    R3        1.91065   -.00002   -.00004   -.00003   -.00006   1.91059
    R4        2.05202   -.00002   -.00004   -.00004   -.00007   2.05194
    R5        2.59842    .00006   -.00008    .00015    .00007   2.59848
    R6        2.59956   -.00011    .00005   -.00020   -.00015   2.59942
    R7        2.05648   -.00004   -.00005   -.00006   -.00012   2.05636
    R8        2.05673   -.00001   -.00003   -.00001   -.00004   2.05668
    R9        2.57662   -.00015   -.00002   -.00025   -.00027   2.57636
    A1        1.83409   -.00007   -.00007   -.00007   -.00014   1.83395
    A2        2.31848   -.00005    .00003   -.00026   -.00022   2.31825
    A3        2.13366    .00001   -.00004    .00012    .00008   2.13374
    A4        1.83105    .00004    .00001    .00013    .00014   1.83120
    A5        1.93508   -.00007    .00003   -.00020   -.00017   1.93491
    A6        2.11925    .00000   -.00007   -.00011   -.00018   2.11906
    A7        2.22886    .00007    .00005    .00031    .00035   2.22921
    A8        2.19697   -.00003   -.00004   -.00008   -.00012   2.19685
    A9        1.95187    .00005    .00009    .00009    .00017   1.95205
   A10        2.13434   -.00002   -.00004   -.00001   -.00005   2.13429
   A11        2.20331   -.00004   -.00001   -.00011   -.00012   2.20319
   A12        2.20719   -.00001    .00007    .00006    .00013   2.20732
   A13        1.87268    .00006   -.00005    .00005   -.00001   1.87267
    D1         .00000    .00000    .00000    .00000    .00000    .00000
    D2        3.14159    .00000    .00000    .00000    .00000   3.14159
    D3        3.14159    .00000    .00000    .00000    .00000   3.14159
    D4         .00000    .00000    .00000    .00000    .00000    .00000
    D5        3.14159    .00000    .00000    .00000    .00000   3.14159
    D6         .00000    .00000    .00000    .00000    .00000    .00000
    D7         .00000    .00000    .00000    .00000    .00000    .00000
    D8        3.14159    .00000    .00000    .00000    .00000   3.14159
    D9         .00000    .00000    .00000    .00000    .00000    .00000
   D10        3.14159    .00000    .00000    .00000    .00000   3.14159
   D11        3.14159    .00000    .00000    .00000    .00000   3.14159
   D12         .00000    .00000    .00000    .00000    .00000    .00000
   D13        3.14159    .00000    .00000    .00000    .00000   3.14159
   D14         .00000    .00000    .00000    .00000    .00000    .00000
   D15         .00000    .00000    .00000    .00000    .00000    .00000
   D16        3.14159    .00000    .00000    .00000    .00000   3.14159
         Item               Value     Threshold  Converged?
 Maximum Force             .000190      .000450     YES
 RMS     Force             .000055      .000300     YES
 Maximum Displacement      .000260      .001800     YES
 RMS     Displacement      .000092      .001200     YES
 Predicted change in Energy=-1.127081D-07
 Optimization completed.
    -- Stationary point found.
                         ----------------------------
                         !   Optimized Parameters   !
                         ! (Angstroms and Degrees)  !
 ------------------------                            -------------------------
 ! Name  Definition              Value          Derivative Info.             !
 -----------------------------------------------------------------------------
 ! R1    R(1,5)                  1.3738         -DE/DX =    0.0002           !
 ! R2    R(1,8)                  1.3154         -DE/DX =    0.0001           !
 ! R3    R(2,9)                  1.0111         -DE/DX =    0.               !
 ! R4    R(3,4)                  1.0859         -DE/DX =    0.               !
 ! R5    R(3,5)                  1.375          -DE/DX =    0.0001           !
 ! R6    R(3,9)                  1.3756         -DE/DX =   -0.0001           !
 ! R7    R(5,6)                  1.0882         -DE/DX =    0.               !
 ! R8    R(7,8)                  1.0884         -DE/DX =    0.               !
 ! R9    R(8,9)                  1.3635         -DE/DX =   -0.0002           !
 ! A1    A(5,1,8)              105.0855         -DE/DX =   -0.0001           !
 ! A2    A(4,3,5)              132.8389         -DE/DX =    0.               !
 ! A3    A(4,3,9)              122.2496         -DE/DX =    0.               !
 ! A4    A(5,3,9)              104.9116         -DE/DX =    0.               !
 ! A5    A(1,5,3)              110.872          -DE/DX =   -0.0001           !
 ! A6    A(1,5,6)              121.4239         -DE/DX =    0.               !
 ! A7    A(3,5,6)              127.7041         -DE/DX =    0.0001           !
 ! A8    A(1,8,7)              125.8771         -DE/DX =    0.               !
 ! A9    A(1,8,9)              111.8342         -DE/DX =    0.0001           !
 ! A10   A(7,8,9)              122.2888         -DE/DX =    0.               !
 ! A11   A(2,9,3)              126.2405         -DE/DX =    0.               !
 ! A12   A(2,9,8)              126.4627         -DE/DX =    0.               !
 ! A13   A(3,9,8)              107.2967         -DE/DX =    0.0001           !
 ! D1    D(8,1,5,3)              0.             -DE/DX =    0.               !
 ! D2    D(8,1,5,6)            180.             -DE/DX =    0.               !
 ! D3    D(5,1,8,7)            180.             -DE/DX =    0.               !
 ! D4    D(5,1,8,9)              0.             -DE/DX =    0.               !
 ! D5    D(4,3,5,1)            180.             -DE/DX =    0.               !
[...]
 Frc consts  --     6.8752                 7.0556                 8.5590
 IR Inten    --      .8325                  .9115                59.4342
 Raman Activ --      .0000                  .0000                  .0000
 Depolar     --      .0000                  .0000                  .0000
 Atom AN      X      Y      Z        X      Y      Z        X      Y      Z
   1   7      .00    .00    .00      .00    .00    .00      .00    .00    .00
   2   1     -.01    .02    .00     -.01   -.02    .00     -.01   1.00    .00
   3   6     -.01    .00    .00     -.08   -.04    .00      .00    .00    .00
   4   1      .11    .04    .00      .87    .36    .00      .01    .00    .00
   5   6      .01   -.01    .00     -.01    .03    .00      .00    .00    .00
   6   1     -.08    .13    .00      .16   -.27    .00      .00    .00    .00
   7   1      .92   -.34    .00     -.05    .02    .00     -.01    .00    .00
   8   6     -.08    .03    .00      .01    .00    .00      .00    .00    .00
   9   7      .00    .00    .00      .00    .00    .00      .00   -.08    .00

 -------------------
 - Thermochemistry -
 -------------------
 Temperature   298.150 Kelvin.  Pressure   1.00000 Atm.
 Atom  1 has atomic number  7 and mass  14.00307
 Atom  2 has atomic number  1 and mass   1.00783
 Atom  3 has atomic number  6 and mass  12.00000
 Atom  4 has atomic number  1 and mass   1.00783
 Atom  5 has atomic number  6 and mass  12.00000
 Atom  6 has atomic number  1 and mass   1.00783
 Atom  7 has atomic number  1 and mass   1.00783
 Atom  8 has atomic number  6 and mass  12.00000
 Atom  9 has atomic number  7 and mass  14.00307
 Molecular mass:    68.03745 amu.
 Principal axes and moments of inertia in atomic units:
                           1         2         3
     EIGENVALUES --   184.54471 192.68979 377.23451
           X             .45711    .88941    .00000
           Y             .88941   -.45711    .00000
           Z             .00000    .00000   1.00000
 THIS MOLECULE IS AN ASYMMETRIC TOP.
 ROTATIONAL SYMMETRY NUMBER  1.
 ROTATIONAL TEMPERATURES (KELVIN)       .46934      .44950      .22960
 ROTATIONAL CONSTANTS (GHZ)            9.77942     9.36604     4.78414
 Zero-point vibrational energy     187154.1 (Joules/Mol)
                                   44.73091 (Kcal/Mol)
 WARNING-- EXPLICIT CONSIDERATION OF   1 DEGREES OF FREEDOM AS
           VIBRATIONS MAY CAUSE SIGNIFICANT ERROR
 VIBRATIONAL TEMPERATURES:    763.80   934.45   984.54  1048.71  1167.29
          (KELVIN)           1247.55  1295.49  1351.22  1550.01  1577.52
                             1645.21  1716.33  1826.24  1992.01  2098.90
                             2184.86  2255.22  4682.28  4690.86  4735.73
                             5270.47
 
 Zero-point correction=                            .071283 (Hartree/Particle)
 Thermal correction to Energy=                     .075036
 Thermal correction to Enthalpy=                   .075980
 Thermal correction to Gibbs Free Energy=          .045019
 Sum of electronic and zero-point Energies=           -226.078986
 Sum of electronic and thermal Energies=              -226.075233
 Sum of electronic and thermal Enthalpies=            -226.074289
 Sum of electronic and thermal Free Energies=         -226.105250
 
                     E (Thermal)             CV                S
                      KCAL/MOL        CAL/MOL-KELVIN    CAL/MOL-KELVIN
 TOTAL                   47.086             13.363             65.163
 ELECTRONIC                .000               .000               .000
 TRANSLATIONAL             .889              2.981             38.570
 ROTATIONAL                .889              2.981             24.110
 VIBRATIONAL             45.308              7.401              2.483
 VIBRATION  1              .886              1.182               .585
                       Q            LOG10(Q)             LN(Q)
 TOTAL BOT        .196286D-20        -20.707111        -47.679885
 TOTAL V=0        .120415D+13         12.080682         27.816799
 VIB (BOT)        .214620D-32        -32.668329        -75.221607
 VIB (BOT)  1     .301015D+00          -.521412         -1.200595
 VIB (V=0)        .131663D+01           .119465           .275078
 VIB (V=0)  1     .108362D+01           .034876           .080305
 ELECTRONIC       .100000D+01           .000000           .000000
 TRANSLATIONAL    .220588D+08          7.343582         16.909224
 ROTATIONAL       .414606D+05          4.617635         10.632498
 ***** Axes restored to original set *****
 -------------------------------------------------------------------
 Center     Atomic                   Forces (Hartrees/Bohr)
 Number     Number              X              Y              Z
 -------------------------------------------------------------------
    1          7            .000199890     .000000000     .000147969
    2          1           -.000020632     .000000000     .000016469
    3          6            .000171028     .000000000    -.000170197
    4          1            .000003562     .000000000     .000031425
    5          6           -.000320852     .000000000     .000028473
    6          1            .000051104     .000000000    -.000002044
    7          1           -.000006540     .000000000     .000007676
    8          6           -.000108938     .000000000    -.000224847
    9          7            .000031379     .000000000     .000165075
 -------------------------------------------------------------------
 Cartesian Forces:  Max      .000320852 RMS      .000108679

 GradGradGradGradGradGradGradGradGradGradGradGradGradGradGradGradGradGrad
 Berny optimization.
 Internal  Forces:  Max      .000190278 RMS      .000054858
 Search for a local minimum.
 Step number   1 out of a maximum of  48
 All quantities printed in internal units (Hartrees-Bohrs-Radians)
 Second derivative matrix not updated -- analytic derivatives used.
     Eigenvalues ---     .00544    .01105    .02014    .02752    .05990
     Eigenvalues ---     .06230    .09566    .10179    .10733    .11598
     Eigenvalues ---     .23116    .24815    .35780    .37302    .37650
     Eigenvalues ---     .37946    .41560    .45735    .47848    .48458
     Eigenvalues ---     .590561000.000001000.000001000.000001000.00000
     Eigenvalues --- 1000.000001000.000001000.000001000.000001000.00000
     Eigenvalues --- 1000.000001000.000001000.000001000.000001000.00000
     Eigenvalues --- 1000.000001000.000001000.00000
 Angle between quadratic step and forces=  28.59 degrees.
 Linear search not attempted -- first point.
 Iteration  1 RMS(Cart)=   .00013088 RMS(Int)=   .00000002
 Iteration  2 RMS(Cart)=   .00000003 RMS(Int)=   .00000000
 Variable       Old X    -DE/DX   Delta X   Delta X   Delta X     New X
                                 (Linear)    (Quad)   (Total)
    R1        2.59607    .00019    .00000    .00061    .00061   2.59668
    R2        2.48584    .00008    .00000    .00016    .00016   2.48600
    R3        1.91065   -.00002    .00000   -.00004   -.00004   1.91061
    R4        2.05202   -.00002    .00000   -.00005   -.00005   2.05197
    R5        2.59842    .00006    .00000    .00010    .00010   2.59852
    R6        2.59956   -.00011    .00000   -.00032   -.00032   2.59924
    R7        2.05648   -.00004    .00000   -.00013   -.00013   2.05635
    R8        2.05673   -.00001    .00000   -.00001   -.00001   2.05671
    R9        2.57662   -.00015    .00000   -.00042   -.00042   2.57620
    A1        1.83409   -.00007    .00000   -.00022   -.00022   1.83387
    A2        2.31848   -.00005    .00000   -.00038   -.00038   2.31810
    A3        2.13366    .00001    .00000    .00023    .00023   2.13388
    A4        1.83105    .00004    .00000    .00015    .00015   1.83120
    A5        1.93508   -.00007    .00000   -.00024   -.00024   1.93485
    A6        2.11925    .00000    .00000   -.00031   -.00031   2.11893
    A7        2.22886    .00007    .00000    .00055    .00055   2.22941
    A8        2.19697   -.00003    .00000   -.00020   -.00020   2.19677
    A9        1.95187    .00005    .00000    .00017    .00017   1.95204
   A10        2.13434   -.00002    .00000    .00003    .00003   2.13437
   A11        2.20331   -.00004    .00000   -.00023   -.00023   2.20308
   A12        2.20719   -.00001    .00000    .00010    .00010   2.20729
   A13        1.87268    .00006    .00000    .00013    .00013   1.87281
    D1         .00000    .00000    .00000    .00000    .00000    .00000
    D2        3.14159    .00000    .00000    .00000    .00000   3.14159
    D3        3.14159    .00000    .00000    .00000    .00000   3.14159
    D4         .00000    .00000    .00000    .00000    .00000    .00000
    D5        3.14159    .00000    .00000    .00000    .00000   3.14159
    D6         .00000    .00000    .00000    .00000    .00000    .00000
    D7         .00000    .00000    .00000    .00000    .00000    .00000
    D8        3.14159    .00000    .00000    .00000    .00000   3.14159
    D9         .00000    .00000    .00000    .00000    .00000    .00000
   D10        3.14159    .00000    .00000    .00000    .00000   3.14159
   D11        3.14159    .00000    .00000    .00000    .00000   3.14159
   D12         .00000    .00000    .00000    .00000    .00000    .00000
   D13        3.14159    .00000    .00000    .00000    .00000   3.14159
   D14         .00000    .00000    .00000    .00000    .00000    .00000
   D15         .00000    .00000    .00000    .00000    .00000    .00000
   D16        3.14159    .00000    .00000    .00000    .00000   3.14159
         Item               Value     Threshold  Converged?
 Maximum Force             .000190      .000450     YES
 RMS     Force             .000055      .000300     YES
 Maximum Displacement      .000412      .001800     YES
 RMS     Displacement      .000131      .001200     YES
 Predicted change in Energy=-1.866021D-07
 Optimization completed.
    -- Stationary point found.
                         ----------------------------
                         !   Optimized Parameters   !
                         ! (Angstroms and Degrees)  !
 ------------------------                            -------------------------
 ! Name  Definition              Value          Derivative Info.             !
 -----------------------------------------------------------------------------
 ! R1    R(1,5)                  1.3738         -DE/DX =    0.0002           !
 ! R2    R(1,8)                  1.3154         -DE/DX =    0.0001           !
 ! R3    R(2,9)                  1.0111         -DE/DX =    0.               !
 ! R4    R(3,4)                  1.0859         -DE/DX =    0.               !
 ! R5    R(3,5)                  1.375          -DE/DX =    0.0001           !
 ! R6    R(3,9)                  1.3756         -DE/DX =   -0.0001           !
 ! R7    R(5,6)                  1.0882         -DE/DX =    0.               !
 ! R8    R(7,8)                  1.0884         -DE/DX =    0.               !
 ! R9    R(8,9)                  1.3635         -DE/DX =   -0.0002           !
 ! A1    A(5,1,8)              105.0855         -DE/DX =   -0.0001           !
 ! A2    A(4,3,5)              132.8389         -DE/DX =    0.               !
 ! A3    A(4,3,9)              122.2496         -DE/DX =    0.               !
 ! A4    A(5,3,9)              104.9116         -DE/DX =    0.               !
 ! A5    A(1,5,3)              110.872          -DE/DX =   -0.0001           !
 ! A6    A(1,5,6)              121.4239         -DE/DX =    0.               !
 ! A7    A(3,5,6)              127.7041         -DE/DX =    0.0001           !
 ! A8    A(1,8,7)              125.8771         -DE/DX =    0.               !
 ! A9    A(1,8,9)              111.8342         -DE/DX =    0.0001           !
 ! A10   A(7,8,9)              122.2888         -DE/DX =    0.               !
 ! A11   A(2,9,3)              126.2405         -DE/DX =    0.               !
 ! A12   A(2,9,8)              126.4627         -DE/DX =    0.               !
 ! A13   A(3,9,8)              107.2967         -DE/DX =    0.0001           !
 ! D1    D(8,1,5,3)              0.             -DE/DX =    0.               !
 ! D2    D(8,1,5,6)            180.             -DE/DX =    0.               !
 ! D3    D(5,1,8,7)            180.             -DE/DX =    0.               !
 ! D4    D(5,1,8,9)              0.             -DE/DX =    0.               !
 ! D5    D(4,3,5,1)            180.             -DE/DX =    0.               !
 ! D6    D(4,3,5,6)              0.             -DE/DX =    0.               !
 ! D7    D(9,3,5,1)              0.             -DE/DX =    0.               !
 ! D8    D(9,3,5,6)            180.             -DE/DX =    0.               !
 ! D9    D(4,3,9,2)              0.             -DE/DX =    0.               !
 ! D10   D(4,3,9,8)            180.             -DE/DX =    0.               !
 ! D11   D(5,3,9,2)            180.             -DE/DX =    0.               !
 ! D12   D(5,3,9,8)              0.             -DE/DX =    0.               !
 ! D13   D(1,8,9,2)            180.             -DE/DX =    0.               !
 ! D14   D(1,8,9,3)              0.             -DE/DX =    0.               !
 ! D15   D(7,8,9,2)              0.             -DE/DX =    0.               !
 ! D16   D(7,8,9,3)            180.             -DE/DX =    0.               !
 -----------------------------------------------------------------------------
 GradGradGradGradGradGradGradGradGradGradGradGradGradGradGradGradGradGrad

 1\1\GINC-SCI-APPS\Freq\RB3PW91\CC-pVDZ\C3H4N2\RUS\29-Jan-2001\0\\#N GE
 OM=ALLCHECK GUESS=TCHECK RB3PW91/CC-PVDZ FREQ\\1H imidazole C3H4N2 cas
 no=288324\\0,1\N,0.4975607038,0.,1.1302171771\H,0.4913291575,0.,-2.056
 9893163\C,-1.0203577835,0.,-0.5490392916\H,-1.9068734745,0.,-1.1761197
 99\C,-0.8393342029,0.,0.8140159599\H,-1.6052154287,0.,1.5871259007\H,2
 .2021683638,0.,-0.1687670128\C,1.1230684778,0.,-0.0269965201\N,0.25077
 25011,0.,-1.0749501288\\Version=IBM-RS6000-G98RevA.7\State=1-A'\HF=-22
 6.1502688\RMSD=9.563e-10\RMSF=1.087e-04\Dipole=-0.0740321,0.,-1.446487
 6\DipoleDeriv=-0.3656366,0.000075,-0.0462578,0.0000162,-0.2930085,0.00
 00495,-0.0294821,-0.0000241,-0.5726615,0.1742449,0.0000224,-0.0109751,
 0.0000616,0.3085699,-0.0000136,-0.0120507,-0.0001295,0.2064487,-0.0226
 327,-0.0001824,-0.2455824,-0.000065,-0.1402514,0.0000391,-0.0373358,-0
 .0001349,0.1643826,0.0279252,0.0000905,-0.0433511,-0.0000027,0.1753202
 ,-0.0000466,-0.0655232,0.0000308,0.0395252,0.1717376,0.0000806,-0.0287
 791,0.000005,-0.1186813,-0.0000119,-0.0632453,0.0000481,0.1359081,-0.0
 009327,-0.0000768,0.0610467,0.000002,0.1399276,-0.0000115,0.077979,0.0
 000491,0.0335637,-0.0162404,-0.0000498,0.0353505,-0.0000831,0.1533036,
 0.000053,0.0345854,-0.0000118,0.0687309,0.0953945,0.00011,0.0940685,0.
 0000148,-0.0115895,-0.0000639,0.0135311,0.0001755,0.5095654,-0.0638576
 ,-0.0000696,0.1844799,0.000051,-0.2135903,0.0000059,0.0815413,-0.00000
 33,-0.5854606\Polar=50.3160437,-0.0011119,20.0257848,-0.8281629,-0.007
 6581,46.3338478\PG=CS [SG(C3H4N2)]\NImag=0\\0.50934887,-0.00000417,0.1
 0441865,-0.05827690,0.00000012,0.58312473,-0.00288672,-0.00000067,-0.0
 0802419,0.08023362,0.00000107,0.00694745,-0.00000041,-0.00000023,0.011
 67925,-0.00304138,0.00000117,-0.00342000,-0.09783808,-0.00000002,0.452
 44042,-0.03298056,0.00000024,-0.01247961,0.00767543,0.00000070,-0.0044
 3118,0.75787041,-0.00000132,0.01750020,0.00000066,0.00000029,-0.007397
 09,0.,0.00000040,0.11017653,-0.08679726,0.,-0.02004184,0.02700781,-0.0
 0000124,-0.00070546,0.15711762,0.00000106,0.74684892,0.00154523,0.0000
 0009,0.00102760,0.00026296,0.,-0.00014263,-0.25656235,0.00000015,-0.14
 185139,0.27000734,0.00000137,0.00688824,-0.00000013,-0.00000015,-0.001
 31356,0.00000076,0.00000238,-0.02085776,0.00000051,0.00000013,0.018297
 22,-0.00421883,0.00000017,-0.00554450,-0.00085726,0.00000006,0.0002696
 4,-0.15235075,-0.00000004,-0.16511492,0.15521974,0.00000038,0.15746284
 ,-0.27478291,0.00000308,-0.04337458,-0.00850169,0.00000015,-0.00107669
 ,-0.09656234,0.00000073,-0.01962780,0.00453725,-0.00000107,-0.02112545
 ,0.67547594,0.00000171,-0.07055766,0.00000017,0.00000034,0.00253020,-0
 .00000179,-0.00000138,-0.06614553,-0.00000061,0.00000011,-0.00137497,0
 .,-0.00000150,0.13364621,-0.05359925,0.,-0.11072992,0.00350617,0.00000
 042,0.00044295,-0.03820006,-0.00000136,-0.39849903,0.00222357,-0.00000
 227,0.00373872,-0.15056665,0.00000091,0.80142798,-0.01870286,-0.000000
 09,0.02022696,0.00079529,-0.00000071,-0.00002646,0.00785265,0.00000026
 ,-0.00610467,-0.00020690,-0.00000047,0.00065252,-0.19330806,-0.0000000
 2,0.14871807,0.20926668,-0.00000050,-0.00524068,-0.00000013,-0.0000000
 2,0.00200161,0.00000021,-0.00000058,-0.00027710,0.00000034,-0.00000004
 ,-0.00215363,-0.00000011,-0.00000006,-0.02876867,0.00000087,0.00000047
 ,0.02294407,-0.00651497,0.00000008,0.01158557,0.00118851,0.00000061,0.
 00024986,0.02032776,-0.00000026,-0.00673440,-0.00046543,0.00000060,-0.
 00004360,0.15053446,0.00000014,-0.21650447,-0.16019969,-0.00000056,0.2
 1557230,-0.00828093,0.00000022,0.00311231,-0.00050367,-0.00000054,-0.0
 0027643,0.00114026,0.00000180,-0.00328730,-0.00028998,-0.00000037,0.00
 039490,0.00113372,-0.00000114,0.00251156,-0.00028114,0.00000004,-0.000
 21768,0.36837931,-0.00000284,-0.00531837,0.00000170,0.00000031,-0.0013
 7158,-0.00000067,-0.00000116,0.00268581,0.00000076,0.00000028,0.001865
 37,0.00000002,0.00000091,0.00694031,-0.00000069,0.00000077,0.00117375,
 -0.00000047,0.00000134,0.02063646,0.02829942,-0.00000013,0.00095309,0.
 00038747,0.00000011,0.00040059,-0.00117439,-0.00000021,-0.00569277,-0.
 00102085,0.00000013,0.00098507,0.00314763,0.00000002,-0.00432023,0.001
 33065,0.00000004,0.00065927,-0.03962210,-0.00000021,0.06037317,-0.1666
 8787,0.00000059,0.12358882,0.01773142,-0.00000057,0.01483182,-0.093353
 28,-0.00000046,0.00449656,-0.00304677,-0.00000083,0.00419811,-0.091234
 08,0.00000173,0.01571893,-0.00595146,-0.00000015,-0.00341591,-0.348840
 84,0.00000124,0.03735333,0.90349355,0.00000426,-0.07651841,-0.00000053
 ,0.00000003,-0.00868483,0.00000080,0.00000294,0.01661917,-0.00000032,-
 0.00000002,0.00280239,0.00000023,-0.00000203,0.01013460,-0.00000215,-0
 .00000111,0.00541888,0.00000100,0.00000001,-0.02459811,0.00000018,-0.0
 0000254,0.13434969,0.14758097,-0.00000081,-0.35017733,-0.01561551,-0.0
 0000067,-0.00901244,-0.04677283,0.00000087,-0.01145642,0.00388849,-0.0
 0000132,-0.00517632,0.07652125,0.00000075,-0.00264281,-0.00177803,-0.0
 0000005,0.00055292,0.03222922,0.00000029,-0.06015334,-0.08368178,-0.00
 000087,0.65977237,-0.00657224,0.00000071,-0.02580040,-0.09480664,0.000
 00014,0.09200105,-0.29508020,-0.00000185,0.06904643,-0.01624677,-0.000
 00100,0.01808703,-0.01675784,0.00000014,0.06968769,0.00053582,0.000000
 85,-0.00123707,-0.01245668,-0.00000086,-0.02870117,-0.21211072,-0.0000
 0154,-0.11237179,0.65349526,0.00000042,0.02188058,-0.00000147,0.000000
 10,-0.00439146,-0.00000046,-0.00000355,-0.05230421,-0.00000051,-0.0000
 0068,-0.00415329,-0.00000069,-0.00000021,0.01359550,0.00000427,0.00000
 090,0.00490177,-0.00000115,-0.00000136,-0.00201365,0.00000007,0.000000
 97,-0.05952339,0.00000182,0.00000341,0.08200814,0.03656819,-0.00000059
 ,-0.10574979,0.09024507,0.00000113,-0.44066553,0.07796340,-0.00000072,
 -0.13860413,-0.01887907,0.00000132,0.01342310,0.00556786,0.00000042,-0
 .07291323,-0.00281937,-0.00000061,-0.00533744,0.00515550,-0.00000072,0
 .00679516,-0.11308983,0.00000165,-0.22170664,-0.08071177,-0.00000188,0
 .96475843\\-0.00019989,0.,-0.00014797,0.00002063,0.,-0.00001647,-0.000
 17103,0.,0.00017020,-0.00000356,0.,-0.00003143,0.00032085,0.,-0.000028
 47,-0.00005110,0.,0.00000204,0.00000654,0.,-0.00000768,0.00010894,0.,0
 .00022485,-0.00003138,0.,-0.00016507\\\@


 LIFE CAN ONLY BE UNDERSTOOD BACKWARD, BUT MUST
 BE LIVED FORWARD. -- KIRKEGAARD
 Job cpu time:  0 days  0 hours 16 minutes 18.8 seconds.
 File lengths (MBytes):  RWF=   14 Int=    0 D2E=    0 Chk=    3 Scr=    1
 Normal termination of Gaussian 98.
