PGI: Undefined variable.
 Entering Gaussian System, Link 0=g98
 Initial command:
 /usr/local/apps/g98/l1.exe /wrk/rdj3/Gau-10072.inp -scrdir=/wrk/rdj3/
 Entering Link 1 = /usr/local/apps/g98/l1.exe PID=     10073.
  
 Copyright (c) 1988,1990,1992,1993,1995,1998 Gaussian, Inc.
                  All Rights Reserved.
  
 This is part of the Gaussian(R) 98 program.  It is based on
 the Gaussian 94(TM) system (copyright 1995 Gaussian, Inc.),
 the Gaussian 92(TM) system (copyright 1992 Gaussian, Inc.),
 the Gaussian 90(TM) system (copyright 1990 Gaussian, Inc.),
 the Gaussian 88(TM) system (copyright 1988 Gaussian, Inc.),
 the Gaussian 86(TM) system (copyright 1986 Carnegie Mellon
 University), and the Gaussian 82(TM) system (copyright 1983
 Carnegie Mellon University). Gaussian is a federally registered
 trademark of Gaussian, Inc.
  
 This software contains proprietary and confidential information,
 including trade secrets, belonging to Gaussian, Inc.
  
 This software is provided under written license and may be
 used, copied, transmitted, or stored only in accord with that
 written license.
  
 The following legend is applicable only to US Government
 contracts under DFARS:
  
                    RESTRICTED RIGHTS LEGEND
  
 Use, duplication or disclosure by the US Government is subject
 to restrictions as set forth in subparagraph (c)(1)(ii) of the
 Rights in Technical Data and Computer Software clause at DFARS
 252.227-7013.
  
 Gaussian, Inc.
 Carnegie Office Park, Building 6, Pittsburgh, PA 15106 USA
  
 The following legend is applicable only to US Government
 contracts under FAR:
  
                    RESTRICTED RIGHTS LEGEND
  
 Use, reproduction and disclosure by the US Government is subject
 to restrictions as set forth in subparagraph (c) of the
 Commercial Computer Software - Restricted Rights clause at FAR
 52.227-19.
  
 Gaussian, Inc.
 Carnegie Office Park, Building 6, Pittsburgh, PA 15106 USA
  
  
 ---------------------------------------------------------------
 Warning -- This program may not be used in any manner that
 competes with the business of Gaussian, Inc. or will provide
 assistance to any competitor of Gaussian, Inc.  The licensee
 of this program is prohibited from giving any competitor of
 Gaussian, Inc. access to this program.  By using this program,
 the user acknowledges that Gaussian, Inc. is engaged in the
 business of creating and licensing software in the field of
 computational chemistry and represents and warrants to the
 licensee that it is not a competitor of Gaussian, Inc. and that
 it will not use this program in any manner prohibited above.
 ---------------------------------------------------------------
  

 Cite this work as:
 Gaussian 98, Revision A.4,
 M. J. Frisch, G. W. Trucks, H. B. Schlegel, G. E. Scuseria, 
 M. A. Robb, J. R. Cheeseman, V. G. Zakrzewski, J. A. Montgomery, Jr., 
 R. E. Stratmann, J. C. Burant, S. Dapprich, J. M. Millam, 
 A. D. Daniels, K. N. Kudin, M. C. Strain, O. Farkas, J. Tomasi, 
 V. Barone, M. Cossi, R. Cammi, B. Mennucci, C. Pomelli, C. Adamo, 
 S. Clifford, J. Ochterski, G. A. Petersson, P. Y. Ayala, Q. Cui, 
 K. Morokuma, D. K. Malick, A. D. Rabuck, K. Raghavachari, 
 J. B. Foresman, J. Cioslowski, J. V. Ortiz, B. B. Stefanov, G. Liu, 
 A. Liashenko, P. Piskorz, I. Komaromi, R. Gomperts, R. L. Martin, 
 D. J. Fox, T. Keith, M. A. Al-Laham, C. Y. Peng, A. Nanayakkara, 
 C. Gonzalez, M. Challacombe, P. M. W. Gill, B. Johnson, W. Chen, 
 M. W. Wong, J. L. Andres, C. Gonzalez, M. Head-Gordon, 
 E. S. Replogle, and J. A. Pople, 
 Gaussian, Inc., Pittsburgh PA, 1998.

 *********************************************
 Gaussian 98:  x86-Linux-G98RevA.4 11-Sep-1998
                   4-Nov-1998 
 *********************************************
 %mem=24000000
 -------------------
 #HF/6-31G* opt freq
 -------------------
 1/18=20,38=1/1,3;
 2/9=110,17=6,18=5/2;
 3/5=1,6=6,7=1,11=9,25=1,30=1/1,2,3;
 4//1;
 5/5=2,38=4/2;
 6/7=2,8=2,9=2,10=2,28=1/1;
 7//1,2,3,16;
 1/18=20/3(1);
 99//99;
 2/9=110/2;
 3/5=1,6=6,7=1,11=9,25=1,30=1/1,2,3;
 4/5=5,16=2/1;
 5/5=2,38=4/2;
 7//1,2,3,16;
 1/18=20/3(-5);
 2/9=110/2;
 6/7=2,8=2,9=2,10=2,19=2,28=1/1;
 99/9=1/99;
 --------------------------------
 1H imidazole C3H4N2 casno=288324
 --------------------------------
 Symbolic Z-matrix:
 Charge =  0 Multiplicity = 1
 N                     0.30938   0.        1.30938 
 H                     0.3125    0.       -1.6875 
 C                    -1.06875   0.       -0.28438 
 H                    -1.91875   0.       -0.79063 
 C                    -0.93438   0.        1.02812 
 H                    -1.675     0.        1.6875 
 H                     1.91875   0.        0.09063 
 C                     0.93438   0.        0.19063 
 N                     0.09688   0.       -0.775 

 GradGradGradGradGradGradGradGradGradGradGradGradGradGradGradGradGradGrad
 Berny optimization.
 Initialization pass.
                         ----------------------------
                         !    Initial Parameters    !
                         ! (Angstroms and Degrees)  !
 ------------------------                            -------------------------
 ! Name  Definition              Value          Derivative Info.             !
 -----------------------------------------------------------------------------
 ! R1    R(1,5)                  1.2752         estimate D2E/DX2             !
 ! R2    R(1,8)                  1.2815         estimate D2E/DX2             !
 ! R3    R(2,9)                  0.9376         estimate D2E/DX2             !
 ! R4    R(3,4)                  0.9893         estimate D2E/DX2             !
 ! R5    R(3,5)                  1.3194         estimate D2E/DX2             !
 ! R6    R(3,9)                  1.2647         estimate D2E/DX2             !
 ! R7    R(5,6)                  0.9916         estimate D2E/DX2             !
 ! R8    R(7,8)                  0.9894         estimate D2E/DX2             !
 ! R9    R(8,9)                  1.2782         estimate D2E/DX2             !
 ! A1    A(5,1,8)              106.4483         estimate D2E/DX2             !
 ! A2    A(4,3,5)              126.6232         estimate D2E/DX2             !
 ! A3    A(4,3,9)              126.3957         estimate D2E/DX2             !
 ! A4    A(5,3,9)              106.9812         estimate D2E/DX2             !
 ! A5    A(1,5,3)              108.5877         estimate D2E/DX2             !
 ! A6    A(1,5,6)              125.5794         estimate D2E/DX2             !
 ! A7    A(3,5,6)              125.8329         estimate D2E/DX2             !
 ! A8    A(1,8,7)              124.9909         estimate D2E/DX2             !
 ! A9    A(1,8,9)              109.8741         estimate D2E/DX2             !
 ! A10   A(7,8,9)              125.1349         estimate D2E/DX2             !
 ! A11   A(2,9,3)              126.122          estimate D2E/DX2             !
 ! A12   A(2,9,8)              125.7693         estimate D2E/DX2             !
 ! A13   A(3,9,8)              108.1088         estimate D2E/DX2             !
 ! D1    D(8,1,5,3)              0.             estimate D2E/DX2             !
 ! D2    D(8,1,5,6)            180.             estimate D2E/DX2             !
 ! D3    D(5,1,8,7)            180.             estimate D2E/DX2             !
 ! D4    D(5,1,8,9)              0.             estimate D2E/DX2             !
 ! D5    D(4,3,5,1)            180.             estimate D2E/DX2             !
 ! D6    D(4,3,5,6)              0.             estimate D2E/DX2             !
 ! D7    D(9,3,5,1)              0.             estimate D2E/DX2             !
 ! D8    D(9,3,5,6)            180.             estimate D2E/DX2             !
 ! D9    D(4,3,9,2)              0.             estimate D2E/DX2             !
 ! D10   D(4,3,9,8)            180.             estimate D2E/DX2             !
 ! D11   D(5,3,9,2)            180.             estimate D2E/DX2             !
 ! D12   D(5,3,9,8)              0.             estimate D2E/DX2             !
 ! D13   D(1,8,9,2)            180.             estimate D2E/DX2             !
 ! D14   D(1,8,9,3)              0.             estimate D2E/DX2             !
 ! D15   D(7,8,9,2)              0.             estimate D2E/DX2             !
 ! D16   D(7,8,9,3)            180.             estimate D2E/DX2             !
 -----------------------------------------------------------------------------
 Trust Radius=3.00D-01 FncErr=1.00D-07 GrdErr=1.00D-07
 Number of steps in this run=  48 maximum allowed number of steps= 100.
 GradGradGradGradGradGradGradGradGradGradGradGradGradGradGradGradGradGrad

                          Input orientation:                          
 ---------------------------------------------------------------------
 Center     Atomic     Atomic              Coordinates (Angstroms)
 Number     Number      Type              X           Y           Z
 ---------------------------------------------------------------------
    1          7             0        0.309375    0.000000    1.309375
    2          1             0        0.312500    0.000000   -1.687500
    3          6             0       -1.068750    0.000000   -0.284375
    4          1             0       -1.918750    0.000000   -0.790625
    5          6             0       -0.934375    0.000000    1.028125
    6          1             0       -1.675000    0.000000    1.687500
    7          1             0        1.918750    0.000000    0.090625
    8          6             0        0.934375    0.000000    0.190625
    9          7             0        0.096875    0.000000   -0.775000
 ---------------------------------------------------------------------
                    Distance matrix (angstroms):
                    1          2          3          4          5
     1  N    0.000000
     2  H    2.996877   0.000000
     3  C    2.106957   1.968911   0.000000
     4  H    3.061787   2.404758   0.989338   0.000000
     5  C    1.275153   2.988196   1.319361   2.068054   0.000000
     6  H    2.020080   3.916731   2.062966   2.490084   0.991615
     7  H    2.018772   2.396199   3.010944   3.937386   3.003203
     8  C    1.281494   1.978404   2.058673   3.017147   2.047836
     9  N    2.095179   0.937630   1.264672   2.015686   2.077194
                    6          7          8          9
     6  H    0.000000
     7  H    3.932563   0.000000
     8  C    3.008234   0.989441   0.000000
     9  N    3.033718   2.017061   1.278217   0.000000
 Stoichiometry    C3H4N2
 Framework group  CS[SG(C3H4N2)]
 Deg. of freedom   15
 Full point group                 CS      NOp   2
 Largest Abelian subgroup         CS      NOp   2
 Largest concise Abelian subgroup C1      NOp   1
                         Standard orientation:                         
 ---------------------------------------------------------------------
 Center     Atomic     Atomic              Coordinates (Angstroms)
 Number     Number      Type              X           Y           Z
 ---------------------------------------------------------------------
    1          7             0       -0.674969   -0.941702    0.000000
    2          1             0       -0.005288    1.979393    0.000000
    3          6             0        1.025744    0.302019    0.000000
    4          1             0        1.967693    0.604544    0.000000
    5          6             0        0.600174   -0.946822    0.000000
    6          1             0        1.173884   -1.755622    0.000000
    7          1             0       -1.969692    0.607211    0.000000
    8          6             0       -1.032886    0.288794    0.000000
    9          7             0        0.000000    1.041778    0.000000
 ---------------------------------------------------------------------
 Rotational constants (GHZ):     11.1543393     10.4769603      5.4025219
 Isotopes: N-14,H-1,C-12,H-1,C-12,H-1,H-1,C-12,N-14
 Standard basis: 6-31G(d) (6D, 7F)
 There are    63 symmetry adapted basis functions of A'  symmetry.
 There are    20 symmetry adapted basis functions of A"  symmetry.
 Crude estimate of integral set expansion from redundant integrals=1.000.
 Integral buffers will be    262144 words long.
 Raffenetti 1 integral format.
 Two-electron integral symmetry is turned on.
    83 basis functions      156 primitive gaussians
    18 alpha electrons       18 beta electrons
       nuclear repulsion energy       173.5664837334 Hartrees.
 One-electron integrals computed using PRISM.
 NBasis=    83 RedAO= T  NBF=    63    20
 NBsUse=    83 1.00D-04 NBFU=    63    20
 Projected INDO Guess.
 Initial guess orbital symmetries:
       Occupied  (A') (A') (A') (A') (A') (A') (A') (A') (A') (A')
                 (A') (A") (A') (A') (A') (A") (A') (A")
       Virtual   (A") (A') (A') (A") (A') (A') (A') (A') (A') (A')
                 (A') (A') (A') (A') (A') (A') (A') (A') (A') (A')
                 (A') (A') (A') (A') (A') (A') (A') (A') (A') (A')
                 (A') (A') (A') (A') (A') (A') (A') (A') (A') (A')
                 (A') (A') (A') (A') (A') (A') (A') (A') (A') (A')
                 (A") (A") (A") (A") (A") (A") (A") (A") (A") (A")
                 (A") (A") (A") (A") (A")
 Requested convergence on RMS density matrix=1.00D-08 within  64 cycles.
 Requested convergence on MAX density matrix=1.00D-06.
 Keep R1 integrals in memory in canonical form, NReq=     6535303.
 SCF Done:  E(RHF) =  -224.763306312     A.U. after   13 cycles
             Convg  =    0.7410D-08             -V/T =  1.9943
             S**2   =   0.0000

 **********************************************************************

            Population analysis using the SCF density.

 **********************************************************************

 Orbital Symmetries:
       Occupied  (A') (A') (A') (A') (A') (A') (A') (A') (A') (A')
                 (A') (A') (A") (A') (A') (A') (A") (A")
       Virtual   (A") (A') (A") (A') (A') (A') (A') (A') (A') (A')
                 (A') (A') (A") (A") (A') (A") (A') (A') (A') (A')
                 (A") (A') (A') (A') (A") (A') (A') (A') (A') (A')
                 (A') (A") (A') (A') (A") (A") (A') (A') (A") (A")
                 (A') (A') (A') (A') (A') (A') (A") (A") (A') (A")
                 (A') (A") (A') (A') (A") (A') (A') (A') (A') (A')
                 (A') (A') (A') (A') (A')
  The electronic state is 1-A'.
 Alpha  occ. eigenvalues --  -15.61684 -15.51623 -11.25684 -11.21954 -11.19996
 Alpha  occ. eigenvalues --   -1.40937  -1.20141  -1.03087  -0.86442  -0.82628
 Alpha  occ. eigenvalues --   -0.79690  -0.63865  -0.63544  -0.61037  -0.59073
 Alpha  occ. eigenvalues --   -0.41568  -0.40806  -0.31072
 Alpha virt. eigenvalues --    0.21800   0.22685   0.27436   0.30552   0.32107
 Alpha virt. eigenvalues --    0.34031   0.42505   0.43603   0.50397   0.52222
 Alpha virt. eigenvalues --    0.69576   0.73041   0.75740   0.80281   0.83093
 Alpha virt. eigenvalues --    0.86795   0.88133   0.93230   0.96821   0.98823
 Alpha virt. eigenvalues --    1.02268   1.06154   1.07648   1.11763   1.12725
 Alpha virt. eigenvalues --    1.17734   1.19980   1.21691   1.29160   1.32306
 Alpha virt. eigenvalues --    1.54933   1.55480   1.56244   1.61378   1.64880
 Alpha virt. eigenvalues --    1.68309   1.75698   1.86031   1.89443   1.90359
 Alpha virt. eigenvalues --    2.08917   2.29496   2.49344   2.51986   2.56543
 Alpha virt. eigenvalues --    2.60130   2.60544   2.62881   2.71259   2.75502
 Alpha virt. eigenvalues --    2.77247   2.82546   2.98587   3.02379   3.08348
 Alpha virt. eigenvalues --    3.15342   3.20221   3.45510   3.57407   3.70874
 Alpha virt. eigenvalues --    4.43512   4.52390   4.66568   4.68322   4.84561
          Condensed to atoms (all electrons):
              1          2          3          4          5          6
  1  N    6.668961   0.005748  -0.113861   0.006397   0.502257  -0.035166
  2  H    0.005748   0.315498  -0.024038  -0.001708   0.004611  -0.000085
  3  C   -0.113861  -0.024038   4.936844   0.392452   0.673489  -0.056321
  4  H    0.006397  -0.001708   0.392452   0.467267  -0.025815   0.001146
  5  C    0.502257   0.004611   0.673489  -0.025815   4.697984   0.414901
  6  H   -0.035166  -0.000085  -0.056321   0.001146   0.414901   0.484319
  7  H   -0.031618  -0.000542   0.003482  -0.000081   0.005556  -0.000096
  8  C    0.609453  -0.023059  -0.140939   0.004966  -0.154382   0.007314
  9  N   -0.117708   0.336215   0.371505  -0.043965  -0.086314   0.003385
              7          8          9
  1  N   -0.031618   0.609453  -0.117708
  2  H   -0.000542  -0.023059   0.336215
  3  C    0.003482  -0.140939   0.371505
  4  H   -0.000081   0.004966  -0.043965
  5  C    0.005556  -0.154382  -0.086314
  6  H   -0.000096   0.007314   0.003385
  7  H    0.458334   0.423378  -0.056285
  8  C    0.423378   4.659666   0.411094
  9  N   -0.056285   0.411094   6.780397
 Total atomic charges:
              1
  1  N   -0.494462
  2  H    0.387361
  3  C   -0.042613
  4  H    0.199341
  5  C   -0.032286
  6  H    0.180604
  7  H    0.197872
  8  C    0.202509
  9  N   -0.598326
 Sum of Mulliken charges=   0.00000
 Atomic charges with hydrogens summed into heavy atoms:
              1
  1  N   -0.494462
  2  H    0.000000
  3  C    0.156728
  4  H    0.000000
  5  C    0.148318
  6  H    0.000000
  7  H    0.000000
  8  C    0.400381
  9  N   -0.210965
 Sum of Mulliken charges=   0.00000
 Electronic spatial extent (au):  <R**2>=   258.2662
 Charge=     0.0000 electrons
 Dipole moment (Debye):
    X=     1.1214    Y=     3.8399    Z=     0.0000  Tot=     4.0003
 Quadrupole moment (Debye-Ang):
   XX=   -26.3636   YY=   -25.3887   ZZ=   -30.6827
   XY=    -3.3951   XZ=     0.0000   YZ=     0.0000
 Octapole moment (Debye-Ang**2):
  XXX=     0.2821  YYY=    15.9781  ZZZ=     0.0000  XYY=     5.0385
  XXY=     5.4022  XXZ=     0.0000  XZZ=    -0.7349  YZZ=     1.2837
  YYZ=     0.0000  XYZ=     0.0000
 Hexadecapole moment (Debye-Ang**3):
 XXXX=  -136.4981 YYYY=  -126.0656 ZZZZ=   -29.7001 XXXY=    -3.2420
 XXXZ=     0.0000 YYYX=    -7.2928 YYYZ=     0.0000 ZZZX=     0.0000
 ZZZY=     0.0000 XXYY=   -50.8185 XXZZ=   -33.1948 YYZZ=   -31.5085
 XXYZ=     0.0000 YYXZ=     0.0000 ZZXY=     0.5243
 N-N= 1.735664837334D+02 E-N=-8.736117063382D+02  KE= 2.260487543419D+02
 Symmetry A'   KE= 2.181680113043D+02
 Symmetry A"   KE= 7.880743037536D+00
 ***** Axes restored to original set *****
 -------------------------------------------------------------------
 Center     Atomic                   Forces (Hartrees/Bohr)
 Number     Number              X              Y              Z
 -------------------------------------------------------------------
    1          7           0.091022861    0.000000000    0.065128290
    2          1           0.016213522    0.000000000   -0.067780914
    3          6          -0.078496528    0.000000000    0.030875319
    4          1          -0.064189333    0.000000000   -0.049757015
    5          6          -0.028926230    0.000000000   -0.026420193
    6          1          -0.055066668    0.000000000    0.056918270
    7          1           0.079758047    0.000000000   -0.010840670
    8          6          -0.001665901    0.000000000    0.056028441
    9          7           0.041350230    0.000000000   -0.054151528
 -------------------------------------------------------------------
 Cartesian Forces:  Max     0.091022861 RMS     0.044374185

 GradGradGradGradGradGradGradGradGradGradGradGradGradGradGradGradGradGrad
 Berny optimization.
 Internal  Forces:  Max     0.125449742 RMS     0.042584396
 Search for a local minimum.
 Step number   1 out of a maximum of  48
 All quantities printed in internal units (Hartrees-Bohrs-Radians)
 Second derivative matrix not updated -- first step.
     Eigenvalues ---    0.03211   0.03261   0.03288   0.03318   0.03352
     Eigenvalues ---    0.03407   0.16000   0.16000   0.16000   0.16000
     Eigenvalues ---    0.22000   0.22917   0.49193   0.49594   0.49613
     Eigenvalues ---    0.54578   0.60577   0.63413   0.68379   0.73836
     Eigenvalues ---    0.765081000.000001000.000001000.000001000.00000
     Eigenvalues --- 1000.000001000.000001000.000001000.000001000.00000
     Eigenvalues --- 1000.000001000.000001000.000001000.000001000.00000
     Eigenvalues --- 1000.000001000.000001000.00000
 RFO step:  Lambda=-9.48351406D-02.
 Linear search not attempted -- first point.
 Maximum step size (   0.300) exceeded in Quadratic search.
    -- Step size scaled by   0.811
 Iteration  1 RMS(Cart)=  0.06459913 RMS(Int)=  0.00055796
 Iteration  2 RMS(Cart)=  0.00064322 RMS(Int)=  0.00013285
 Iteration  3 RMS(Cart)=  0.00000048 RMS(Int)=  0.00013284
 Variable       Old X    -DE/DX   Delta X   Delta X   Delta X     New X
                                 (Linear)    (Quad)   (Total)
    R1        2.40969   0.11312   0.00000   0.10649   0.10642   2.51611
    R2        2.42167   0.03784   0.00000   0.03434   0.03410   2.45577
    R3        1.77186   0.06969   0.00000   0.08067   0.08067   1.85253
    R4        1.86958   0.08061   0.00000   0.11062   0.11062   1.98019
    R5        2.49323   0.06442   0.00000   0.07459   0.07479   2.56802
    R6        2.38988   0.12545   0.00000   0.11958   0.11977   2.50965
    R7        1.87388   0.07898   0.00000   0.10915   0.10915   1.98303
    R8        1.86977   0.08045   0.00000   0.11043   0.11043   1.98020
    R9        2.41548   0.09889   0.00000   0.09724   0.09715   2.51263
    A1        1.85787   0.00414   0.00000  -0.00658  -0.00697   1.85090
    A2        2.20999   0.01815   0.00000   0.04620   0.04600   2.25600
    A3        2.20602  -0.00036   0.00000  -0.01272  -0.01291   2.19311
    A4        1.86717  -0.01779   0.00000  -0.03347  -0.03309   1.83408
    A5        1.89521   0.01022   0.00000   0.02437   0.02451   1.91972
    A6        2.19177  -0.01063   0.00000  -0.02976  -0.02983   2.16195
    A7        2.19620   0.00041   0.00000   0.00539   0.00532   2.20152
    A8        2.18150  -0.00030   0.00000   0.00272   0.00285   2.18436
    A9        1.91767   0.00570   0.00000   0.01077   0.01051   1.92817
   A10        2.18402  -0.00540   0.00000  -0.01349  -0.01336   2.17066
   A11        2.20124   0.00131   0.00000  -0.00192  -0.00198   2.19926
   A12        2.19509   0.00097   0.00000  -0.00300  -0.00306   2.19202
   A13        1.88685  -0.00228   0.00000   0.00492   0.00505   1.89190
    D1        0.00000   0.00000   0.00000   0.00000   0.00000   0.00000
    D2        3.14159   0.00000   0.00000   0.00000   0.00000   3.14159
    D3        3.14159   0.00000   0.00000   0.00000   0.00000   3.14159
    D4        0.00000   0.00000   0.00000   0.00000   0.00000   0.00000
    D5        3.14159   0.00000   0.00000   0.00000   0.00000   3.14159
    D6        0.00000   0.00000   0.00000   0.00000   0.00000   0.00000
    D7        0.00000   0.00000   0.00000   0.00000   0.00000   0.00000
    D8       -3.14159   0.00000   0.00000   0.00000   0.00000  -3.14159
    D9        0.00000   0.00000   0.00000   0.00000   0.00000   0.00000
   D10        3.14159   0.00000   0.00000   0.00000   0.00000   3.14159
   D11        3.14159   0.00000   0.00000   0.00000   0.00000   3.14159
   D12        0.00000   0.00000   0.00000   0.00000   0.00000   0.00000
   D13        3.14159   0.00000   0.00000   0.00000   0.00000   3.14159
   D14        0.00000   0.00000   0.00000   0.00000   0.00000   0.00000
   D15        0.00000   0.00000   0.00000   0.00000   0.00000   0.00000
   D16        3.14159   0.00000   0.00000   0.00000   0.00000   3.14159
         Item               Value     Threshold  Converged?
 Maximum Force            0.125450     0.000450     NO 
 RMS     Force            0.042584     0.000300     NO 
 Maximum Displacement     0.180408     0.001800     NO 
 RMS     Displacement     0.064509     0.001200     NO 
 Predicted change in Energy=-2.692261D-02
 GradGradGradGradGradGradGradGradGradGradGradGradGradGradGradGradGradGrad

                          Input orientation:                          
 ---------------------------------------------------------------------
 Center     Atomic     Atomic              Coordinates (Angstroms)
 Number     Number      Type              X           Y           Z
 ---------------------------------------------------------------------
    1          7             0        0.480943    0.000000    1.107099
    2          1             0        0.478237    0.000000   -1.991883
    3          6             0       -0.985348    0.000000   -0.538111
    4          1             0       -1.872592    0.000000   -1.095639
    5          6             0       -0.817041    0.000000    0.810364
    6          1             0       -1.581345    0.000000    1.529410
    7          1             0        2.151197    0.000000   -0.143997
    8          6             0        1.109505    0.000000   -0.030314
    9          7             0        0.244256    0.000000   -1.039897
 ---------------------------------------------------------------------
                    Distance matrix (angstroms):
                    1          2          3          4          5
     1  N    0.000000
     2  H    3.098983   0.000000
     3  C    2.203797   2.062895   0.000000
     4  H    3.223535   2.515879   1.047874   0.000000
     5  C    1.331470   3.087124   1.358937   2.178769   0.000000
     6  H    2.105084   4.079385   2.151709   2.641156   1.049375
     7  H    2.086862   2.492685   3.161209   4.134791   3.117890
     8  C    1.299538   2.060644   2.155520   3.166673   2.101980
     9  N    2.160003   0.980319   1.328050   2.117582   2.133030
                    6          7          8          9
     6  H    0.000000
     7  H    4.090497   0.000000
     8  C    3.110212   1.047877   0.000000
     9  N    3.151850   2.106908   1.329629   0.000000
 Stoichiometry    C3H4N2
 Framework group  CS[SG(C3H4N2)]
 Deg. of freedom   15
 Full point group                 CS      NOp   2
 Largest Abelian subgroup         CS      NOp   2
 Largest concise Abelian subgroup C1      NOp   1
                         Standard orientation:                         
 ---------------------------------------------------------------------
 Center     Atomic     Atomic              Coordinates (Angstroms)
 Number     Number      Type              X           Y           Z
 ---------------------------------------------------------------------
    1          7             0       -0.713847   -0.965084    0.000000
    2          1             0       -0.013709    2.053775    0.000000
    3          6             0        1.085116    0.307889    0.000000
    4          1             0        2.075079    0.651416    0.000000
    5          6             0        0.617620   -0.968105    0.000000
    6          1             0        1.200475   -1.840726    0.000000
    7          1             0       -2.059656    0.629843    0.000000
    8          6             0       -1.070279    0.284619    0.000000
    9          7             0        0.000000    1.073552    0.000000
 ---------------------------------------------------------------------
 Rotational constants (GHZ):     10.2283764      9.8660151      5.0219643
 Isotopes: N-14,H-1,C-12,H-1,C-12,H-1,H-1,C-12,N-14
 Standard basis: 6-31G(d) (6D, 7F)
 There are    63 symmetry adapted basis functions of A'  symmetry.
 There are    20 symmetry adapted basis functions of A"  symmetry.
 Crude estimate of integral set expansion from redundant integrals=1.000.
 Integral buffers will be    262144 words long.
 Raffenetti 1 integral format.
 Two-electron integral symmetry is turned on.
    83 basis functions      156 primitive gaussians
    18 alpha electrons       18 beta electrons
       nuclear repulsion energy       167.1983640489 Hartrees.
 One-electron integrals computed using PRISM.
 NBasis=    83 RedAO= T  NBF=    63    20
 NBsUse=    83 1.00D-04 NBFU=    63    20
 Initial guess read from the read-write file:
 Initial guess orbital symmetries:
       Occupied  (A') (A') (A') (A') (A') (A') (A') (A') (A') (A')
                 (A') (A') (A") (A') (A') (A') (A") (A")
       Virtual   (A") (A') (A") (A') (A') (A') (A') (A') (A') (A')
                 (A') (A') (A") (A") (A') (A") (A') (A') (A') (A')
                 (A") (A') (A') (A') (A") (A') (A') (A') (A') (A')
                 (A') (A") (A') (A') (A") (A") (A') (A') (A") (A")
                 (A') (A') (A') (A') (A') (A') (A") (A") (A') (A")
                 (A') (A") (A') (A') (A") (A') (A') (A') (A') (A')
                 (A') (A') (A') (A') (A')
 Requested convergence on RMS density matrix=1.00D-08 within  64 cycles.
 Requested convergence on MAX density matrix=1.00D-06.
 Keep R1 integrals in memory in canonical form, NReq=     6535303.
 SCF Done:  E(RHF) =  -224.809334409     A.U. after   13 cycles
             Convg  =    0.6736D-08             -V/T =  1.9997
             S**2   =   0.0000
 ***** Axes restored to original set *****
 -------------------------------------------------------------------
 Center     Atomic                   Forces (Hartrees/Bohr)
 Number     Number              X              Y              Z
 -------------------------------------------------------------------
    1          7           0.033487142    0.000000000    0.010716318
    2          1           0.003680862    0.000000000   -0.014395001
    3          6          -0.025112865    0.000000000    0.030656106
    4          1          -0.011521640    0.000000000   -0.014656700
    5          6          -0.016638383    0.000000000   -0.022857601
    6          1          -0.010222532    0.000000000    0.015229149
    7          1           0.017926667    0.000000000   -0.004585036
    8          6          -0.012969764    0.000000000    0.025585117
    9          7           0.021370514    0.000000000   -0.025692352
 -------------------------------------------------------------------
 Cartesian Forces:  Max     0.033487142 RMS     0.015861370

 GradGradGradGradGradGradGradGradGradGradGradGradGradGradGradGradGradGrad
 Berny optimization.
 Internal  Forces:  Max     0.037385359 RMS     0.010676647
 Search for a local minimum.
 Step number   2 out of a maximum of  48
 All quantities printed in internal units (Hartrees-Bohrs-Radians)
 Update second derivatives using information from points  1  2
 Trust test= 1.71D+00 RLast= 3.00D-01 DXMaxT set to 4.24D-01
     Eigenvalues ---    0.03209   0.03262   0.03288   0.03313   0.03351
     Eigenvalues ---    0.03406   0.15886   0.16000   0.16000   0.16002
     Eigenvalues ---    0.22146   0.22875   0.49306   0.49599   0.51429
     Eigenvalues ---    0.55844   0.61078   0.63763   0.69472   0.74484
     Eigenvalues ---    0.773611000.000001000.000001000.000001000.00000
     Eigenvalues --- 1000.000001000.000001000.000001000.000001000.00000
     Eigenvalues --- 1000.000001000.000001000.000001000.000001000.00000
     Eigenvalues --- 1000.000001000.000001000.00000
 RFO step:  Lambda=-2.46370905D-03.
 Quartic linear search produced a step of  0.38347.
 Iteration  1 RMS(Cart)=  0.02766266 RMS(Int)=  0.00052357
 Iteration  2 RMS(Cart)=  0.00060709 RMS(Int)=  0.00007376
 Iteration  3 RMS(Cart)=  0.00000042 RMS(Int)=  0.00007376
 Variable       Old X    -DE/DX   Delta X   Delta X   Delta X     New X
                                 (Linear)    (Quad)   (Total)
    R1        2.51611   0.03227   0.04081   0.01079   0.05147   2.56758
    R2        2.45577  -0.00098   0.01308  -0.01927  -0.00626   2.44951
    R3        1.85253   0.01486   0.03093  -0.00146   0.02948   1.88201
    R4        1.98019   0.01755   0.04242   0.00060   0.04302   2.02321
    R5        2.56802   0.00315   0.02868  -0.02446   0.00421   2.57222
    R6        2.50965   0.03739   0.04593   0.01618   0.06223   2.57188
    R7        1.98303   0.01788   0.04186   0.00258   0.04444   2.02747
    R8        1.98020   0.01832   0.04235   0.00283   0.04517   2.02537
    R9        2.51263   0.02126   0.03726  -0.00217   0.03517   2.54780
    A1        1.85090  -0.00022  -0.00267  -0.01474  -0.01766   1.83324
    A2        2.25600   0.00725   0.01764   0.03427   0.05185   2.30785
    A3        2.19311  -0.00519  -0.00495  -0.04743  -0.05245   2.14066
    A4        1.83408  -0.00206  -0.01269   0.01316   0.00059   1.83468
    A5        1.91972   0.00252   0.00940   0.00276   0.01206   1.93177
    A6        2.16195  -0.00531  -0.01144  -0.02868  -0.04006   2.12188
    A7        2.20152   0.00279   0.00204   0.02591   0.02801   2.22953
    A8        2.18436  -0.00033   0.00109   0.00480   0.00588   2.19023
    A9        1.92817   0.00583   0.00403   0.02781   0.03186   1.96004
   A10        2.17066  -0.00550  -0.00512  -0.03261  -0.03774   2.13291
   A11        2.19926   0.00316  -0.00076   0.01537   0.01451   2.21377
   A12        2.19202   0.00291  -0.00118   0.01363   0.01235   2.20437
   A13        1.89190  -0.00607   0.00194  -0.02900  -0.02685   1.86505
    D1        0.00000   0.00000   0.00000   0.00000   0.00000   0.00000
    D2        3.14159   0.00000   0.00000   0.00000   0.00000   3.14159
    D3        3.14159   0.00000   0.00000   0.00000   0.00000   3.14159
    D4        0.00000   0.00000   0.00000   0.00000   0.00000   0.00000
    D5        3.14159   0.00000   0.00000   0.00000   0.00000   3.14159
    D6        0.00000   0.00000   0.00000   0.00000   0.00000   0.00000
    D7        0.00000   0.00000   0.00000   0.00000   0.00000   0.00000
    D8        3.14159   0.00000   0.00000   0.00000   0.00000   3.14159
    D9        0.00000   0.00000   0.00000   0.00000   0.00000   0.00000
   D10        3.14159   0.00000   0.00000   0.00000   0.00000   3.14159
   D11        3.14159   0.00000   0.00000   0.00000   0.00000   3.14159
   D12        0.00000   0.00000   0.00000   0.00000   0.00000   0.00000
   D13        3.14159   0.00000   0.00000   0.00000   0.00000   3.14159
   D14        0.00000   0.00000   0.00000   0.00000   0.00000   0.00000
   D15        0.00000   0.00000   0.00000   0.00000   0.00000   0.00000
   D16        3.14159   0.00000   0.00000   0.00000   0.00000   3.14159
         Item               Value     Threshold  Converged?
 Maximum Force            0.037385     0.000450     NO 
 RMS     Force            0.010677     0.000300     NO 
 Maximum Displacement     0.094602     0.001800     NO 
 RMS     Displacement     0.027622     0.001200     NO 
 Predicted change in Energy=-5.540539D-03
 GradGradGradGradGradGradGradGradGradGradGradGradGradGradGradGradGradGrad

                          Input orientation:                          
 ---------------------------------------------------------------------
 Center     Atomic     Atomic              Coordinates (Angstroms)
 Number     Number      Type              X           Y           Z
 ---------------------------------------------------------------------
    1          7             0        0.491513    0.000000    1.120953
    2          1             0        0.491263    0.000000   -2.027262
    3          6             0       -1.009386    0.000000   -0.538124
    4          1             0       -1.889407    0.000000   -1.147904
    5          6             0       -0.831451    0.000000    0.811359
    6          1             0       -1.586728    0.000000    1.573362
    7          1             0        2.167344    0.000000   -0.157197
    8          6             0        1.104210    0.000000   -0.021328
    9          7             0        0.246807    0.000000   -1.061813
 ---------------------------------------------------------------------
                    Distance matrix (angstroms):
                    1          2          3          4          5
     1  N    0.000000
     2  H    3.148215   0.000000
     3  C    2.237238   2.114114   0.000000
     4  H    3.288843   2.537885   1.070639   0.000000
     5  C    1.358706   3.131667   1.361163   2.226652   0.000000
     6  H    2.126913   4.157227   2.188994   2.738047   1.072890
     7  H    2.107623   2.511253   3.199487   4.175970   3.151329
     8  C    1.296227   2.097493   2.175860   3.198581   2.107167
     9  N    2.196440   0.995916   1.360982   2.137948   2.161345
                    6          7          8          9
     6  H    0.000000
     7  H    4.133750   0.000000
     8  C    3.127968   1.071781   0.000000
     9  N    3.210296   2.122921   1.348240   0.000000
 Stoichiometry    C3H4N2
 Framework group  CS[SG(C3H4N2)]
 Deg. of freedom   15
 Full point group                 CS      NOp   2
 Largest Abelian subgroup         CS      NOp   2
 Largest concise Abelian subgroup C1      NOp   1
                         Standard orientation:                         
 ---------------------------------------------------------------------
 Center     Atomic     Atomic              Coordinates (Angstroms)
 Number     Number      Type              X           Y           Z
 ---------------------------------------------------------------------
    1          7             0       -0.734091   -0.975078    0.000000
    2          1             0       -0.018780    2.090796    0.000000
    3          6             0        1.104413    0.299730    0.000000
    4          1             0        2.099935    0.693689    0.000000
    5          6             0        0.624615   -0.974066    0.000000
    6          1             0        1.187074   -1.887703    0.000000
    7          1             0       -2.075810    0.650304    0.000000
    8          6             0       -1.071324    0.276512    0.000000
    9          7             0        0.000000    1.095057    0.000000
 ---------------------------------------------------------------------
 Rotational constants (GHZ):     10.0290280      9.5728658      4.8978196
 Isotopes: N-14,H-1,C-12,H-1,C-12,H-1,H-1,C-12,N-14
 Standard basis: 6-31G(d) (6D, 7F)
 There are    63 symmetry adapted basis functions of A'  symmetry.
 There are    20 symmetry adapted basis functions of A"  symmetry.
 Crude estimate of integral set expansion from redundant integrals=1.000.
 Integral buffers will be    262144 words long.
 Raffenetti 1 integral format.
 Two-electron integral symmetry is turned on.
    83 basis functions      156 primitive gaussians
    18 alpha electrons       18 beta electrons
       nuclear repulsion energy       165.0820401840 Hartrees.
 One-electron integrals computed using PRISM.
 NBasis=    83 RedAO= T  NBF=    63    20
 NBsUse=    83 1.00D-04 NBFU=    63    20
 Initial guess read from the read-write file:
 Initial guess orbital symmetries:
       Occupied  (A') (A') (A') (A') (A') (A') (A') (A') (A') (A')
                 (A') (A') (A") (A') (A') (A') (A") (A")
       Virtual   (A") (A') (A") (A') (A') (A') (A') (A') (A') (A')
                 (A') (A') (A") (A") (A') (A') (A") (A') (A') (A')
                 (A") (A') (A') (A') (A") (A') (A') (A') (A') (A')
                 (A') (A') (A') (A") (A") (A") (A') (A') (A") (A")
                 (A') (A') (A') (A') (A') (A') (A") (A") (A') (A')
                 (A") (A") (A') (A') (A") (A') (A') (A') (A') (A')
                 (A') (A') (A') (A') (A')
 Requested convergence on RMS density matrix=1.00D-08 within  64 cycles.
 Requested convergence on MAX density matrix=1.00D-06.
 Keep R1 integrals in memory in canonical form, NReq=     6535303.
 SCF Done:  E(RHF) =  -224.814050566     A.U. after   13 cycles
             Convg  =    0.2967D-08             -V/T =  2.0014
             S**2   =   0.0000
 ***** Axes restored to original set *****
 -------------------------------------------------------------------
 Center     Atomic                   Forces (Hartrees/Bohr)
 Number     Number              X              Y              Z
 -------------------------------------------------------------------
    1          7           0.009831892    0.000000000   -0.007241237
    2          1          -0.000622907    0.000000000    0.002612076
    3          6          -0.008697777    0.000000000    0.010676136
    4          1           0.001434990    0.000000000    0.001070203
    5          6          -0.012577084    0.000000000   -0.008003815
    6          1           0.001433679    0.000000000   -0.001547291
    7          1          -0.000898144    0.000000000    0.000088860
    8          6           0.002466131    0.000000000    0.005305712
    9          7           0.007629221    0.000000000   -0.002960644
 -------------------------------------------------------------------
 Cartesian Forces:  Max     0.012577084 RMS     0.005010579

 GradGradGradGradGradGradGradGradGradGradGradGradGradGradGradGradGradGrad
 Berny optimization.
 Internal  Forces:  Max     0.009697060 RMS     0.003040342
 Search for a local minimum.
 Step number   3 out of a maximum of  48
 All quantities printed in internal units (Hartrees-Bohrs-Radians)
 Update second derivatives using information from points  1  2  3
 Trust test= 8.51D-01 RLast= 1.62D-01 DXMaxT set to 4.87D-01
     Eigenvalues ---    0.03205   0.03261   0.03287   0.03304   0.03349
     Eigenvalues ---    0.03405   0.15347   0.16000   0.16000   0.16002
     Eigenvalues ---    0.22466   0.23999   0.43822   0.49331   0.49632
     Eigenvalues ---    0.56130   0.57760   0.62807   0.65270   0.74666
     Eigenvalues ---    0.799251000.000001000.000001000.000001000.00000
     Eigenvalues --- 1000.000001000.000001000.000001000.000001000.00000
     Eigenvalues --- 1000.000001000.000001000.000001000.000001000.00000
     Eigenvalues --- 1000.000001000.000001000.00000
 RFO step:  Lambda=-6.24985585D-04.
 Quartic linear search produced a step of  0.05462.
 Iteration  1 RMS(Cart)=  0.00652287 RMS(Int)=  0.00001643
 Iteration  2 RMS(Cart)=  0.00001494 RMS(Int)=  0.00000335
 Iteration  3 RMS(Cart)=  0.00000000 RMS(Int)=  0.00000335
 Variable       Old X    -DE/DX   Delta X   Delta X   Delta X     New X
                                 (Linear)    (Quad)   (Total)
    R1        2.56758   0.00933   0.00281   0.01440   0.01722   2.58480
    R2        2.44951  -0.00648  -0.00034  -0.00930  -0.00964   2.43987
    R3        1.88201  -0.00269   0.00161  -0.00352  -0.00191   1.88010
    R4        2.02321  -0.00179   0.00235  -0.00215   0.00020   2.02342
    R5        2.57222  -0.00970   0.00023  -0.01518  -0.01494   2.55728
    R6        2.57188   0.00898   0.00340   0.01402   0.01742   2.58930
    R7        2.02747  -0.00211   0.00243  -0.00287  -0.00044   2.02702
    R8        2.02537  -0.00090   0.00247  -0.00027   0.00220   2.02757
    R9        2.54780  -0.00025   0.00192   0.00092   0.00283   2.55064
    A1        1.83324   0.00355  -0.00096   0.01319   0.01223   1.84547
    A2        2.30785   0.00037   0.00283   0.00189   0.00472   2.31257
    A3        2.14066   0.00049  -0.00286   0.00063  -0.00224   2.13842
    A4        1.83468  -0.00086   0.00003  -0.00252  -0.00248   1.83219
    A5        1.93177  -0.00137   0.00066  -0.00544  -0.00478   1.92700
    A6        2.12188   0.00076  -0.00219   0.00254   0.00035   2.12223
    A7        2.22953   0.00061   0.00153   0.00290   0.00443   2.23396
    A8        2.19023   0.00144   0.00032   0.00733   0.00766   2.19789
    A9        1.96004  -0.00283   0.00174  -0.01361  -0.01187   1.94816
   A10        2.13291   0.00139  -0.00206   0.00628   0.00422   2.13713
   A11        2.21377  -0.00072   0.00079  -0.00394  -0.00314   2.21062
   A12        2.20437  -0.00079   0.00067  -0.00444  -0.00376   2.20061
   A13        1.86505   0.00151  -0.00147   0.00838   0.00691   1.87195
    D1        0.00000   0.00000   0.00000   0.00000   0.00000   0.00000
    D2        3.14159   0.00000   0.00000   0.00000   0.00000   3.14159
    D3        3.14159   0.00000   0.00000   0.00000   0.00000   3.14159
    D4        0.00000   0.00000   0.00000   0.00000   0.00000   0.00000
    D5        3.14159   0.00000   0.00000   0.00000   0.00000   3.14159
    D6        0.00000   0.00000   0.00000   0.00000   0.00000   0.00000
    D7        0.00000   0.00000   0.00000   0.00000   0.00000   0.00000
    D8        3.14159   0.00000   0.00000   0.00000   0.00000   3.14159
    D9        0.00000   0.00000   0.00000   0.00000   0.00000   0.00000
   D10        3.14159   0.00000   0.00000   0.00000   0.00000   3.14159
   D11        3.14159   0.00000   0.00000   0.00000   0.00000   3.14159
   D12        0.00000   0.00000   0.00000   0.00000   0.00000   0.00000
   D13        3.14159   0.00000   0.00000   0.00000   0.00000   3.14159
   D14        0.00000   0.00000   0.00000   0.00000   0.00000   0.00000
   D15        0.00000   0.00000   0.00000   0.00000   0.00000   0.00000
   D16        3.14159   0.00000   0.00000   0.00000   0.00000   3.14159
         Item               Value     Threshold  Converged?
 Maximum Force            0.009697     0.000450     NO 
 RMS     Force            0.003040     0.000300     NO 
 Maximum Displacement     0.017688     0.001800     NO 
 RMS     Displacement     0.006522     0.001200     NO 
 Predicted change in Energy=-3.250897D-04
 GradGradGradGradGradGradGradGradGradGradGradGradGradGradGradGradGradGrad

                          Input orientation:                          
 ---------------------------------------------------------------------
 Center     Atomic     Atomic              Coordinates (Angstroms)
 Number     Number      Type              X           Y           Z
 ---------------------------------------------------------------------
    1          7             0        0.496259    0.000000    1.107828
    2          1             0        0.494033    0.000000   -2.027845
    3          6             0       -1.014790    0.000000   -0.538354
    4          1             0       -1.892322    0.000000   -1.151895
    5          6             0       -0.837207    0.000000    0.803200
    6          1             0       -1.588551    0.000000    1.568754
    7          1             0        2.178622    0.000000   -0.162465
    8          6             0        1.114432    0.000000   -0.025692
    9          7             0        0.250952    0.000000   -1.063090
 ---------------------------------------------------------------------
                    Distance matrix (angstroms):
                    1          2          3          4          5
     1  N    0.000000
     2  H    3.135674   0.000000
     3  C    2.234543   2.120172   0.000000
     4  H    3.288110   2.542042   1.070745   0.000000
     5  C    1.367820   3.128421   1.353256   2.221635   0.000000
     6  H    2.135154   4.156041   2.183828   2.737555   1.072655
     7  H    2.108078   2.513460   3.215458   4.189458   3.166660
     8  C    1.291126   2.096071   2.190070   3.210748   2.120367
     9  N    2.184734   0.994908   1.370201   2.145112   2.160354
                    6          7          8          9
     6  H    0.000000
     7  H    4.145927   0.000000
     8  C    3.138212   1.072943   0.000000
     9  N    3.210977   2.127684   1.349738   0.000000
 Stoichiometry    C3H4N2
 Framework group  CS[SG(C3H4N2)]
 Deg. of freedom   15
 Full point group                 CS      NOp   2
 Largest Abelian subgroup         CS      NOp   2
 Largest concise Abelian subgroup C1      NOp   1
                         Standard orientation:                         
 ---------------------------------------------------------------------
 Center     Atomic     Atomic              Coordinates (Angstroms)
 Number     Number      Type              X           Y           Z
 ---------------------------------------------------------------------
    1          7             0       -0.737966   -0.964681    0.000000
    2          1             0       -0.014707    2.086442    0.000000
    3          6             0        1.111148    0.289895    0.000000
    4          1             0        2.106254    0.685192    0.000000
    5          6             0        0.629815   -0.974867    0.000000
    6          1             0        1.184972   -1.892685    0.000000
    7          1             0       -2.083119    0.658451    0.000000
    8          6             0       -1.078903    0.280617    0.000000
    9          7             0        0.000000    1.091643    0.000000
 ---------------------------------------------------------------------
 Rotational constants (GHZ):      9.9030215      9.6582149      4.8895432
 Isotopes: N-14,H-1,C-12,H-1,C-12,H-1,H-1,C-12,N-14
 Standard basis: 6-31G(d) (6D, 7F)
 There are    63 symmetry adapted basis functions of A'  symmetry.
 There are    20 symmetry adapted basis functions of A"  symmetry.
 Crude estimate of integral set expansion from redundant integrals=1.000.
 Integral buffers will be    262144 words long.
 Raffenetti 1 integral format.
 Two-electron integral symmetry is turned on.
    83 basis functions      156 primitive gaussians
    18 alpha electrons       18 beta electrons
       nuclear repulsion energy       164.9364030461 Hartrees.
 One-electron integrals computed using PRISM.
 NBasis=    83 RedAO= T  NBF=    63    20
 NBsUse=    83 1.00D-04 NBFU=    63    20
 Initial guess read from the read-write file:
 Initial guess orbital symmetries:
       Occupied  (A') (A') (A') (A') (A') (A') (A') (A') (A') (A')
                 (A') (A') (A') (A") (A') (A') (A") (A")
       Virtual   (A") (A') (A") (A') (A') (A') (A') (A') (A') (A')
                 (A') (A') (A") (A") (A') (A') (A") (A') (A') (A')
                 (A") (A') (A') (A') (A") (A') (A') (A') (A') (A')
                 (A') (A') (A') (A") (A") (A") (A') (A') (A") (A")
                 (A') (A') (A') (A') (A') (A') (A") (A") (A') (A')
                 (A") (A") (A') (A') (A") (A') (A') (A') (A') (A')
                 (A') (A') (A') (A') (A')
 Requested convergence on RMS density matrix=1.00D-08 within  64 cycles.
 Requested convergence on MAX density matrix=1.00D-06.
 Keep R1 integrals in memory in canonical form, NReq=     6535303.
 SCF Done:  E(RHF) =  -224.814346718     A.U. after   11 cycles
             Convg  =    0.4090D-08             -V/T =  2.0014
             S**2   =   0.0000
 ***** Axes restored to original set *****
 -------------------------------------------------------------------
 Center     Atomic                   Forces (Hartrees/Bohr)
 Number     Number              X              Y              Z
 -------------------------------------------------------------------
    1          7           0.004353572    0.000000000    0.001640950
    2          1          -0.000810284    0.000000000    0.001368072
    3          6          -0.000437132    0.000000000    0.002366521
    4          1           0.001657135    0.000000000    0.001007369
    5          6          -0.003216556    0.000000000   -0.002169045
    6          1           0.001820641    0.000000000   -0.001275953
    7          1          -0.001911294    0.000000000    0.000340162
    8          6          -0.004467408    0.000000000    0.001558207
    9          7           0.003011326    0.000000000   -0.004836283
 -------------------------------------------------------------------
 Cartesian Forces:  Max     0.004836283 RMS     0.002039725

 GradGradGradGradGradGradGradGradGradGradGradGradGradGradGradGradGradGrad
 Berny optimization.
 Internal  Forces:  Max     0.003186913 RMS     0.001202104
 Search for a local minimum.
 Step number   4 out of a maximum of  48
 All quantities printed in internal units (Hartrees-Bohrs-Radians)
 Update second derivatives using information from points  1  2  3  4
 Trust test= 9.11D-01 RLast= 3.80D-02 DXMaxT set to 4.87D-01
     Eigenvalues ---    0.03204   0.03262   0.03287   0.03304   0.03349
     Eigenvalues ---    0.03405   0.14877   0.16000   0.16001   0.16043
     Eigenvalues ---    0.22419   0.27135   0.49015   0.49607   0.50815
     Eigenvalues ---    0.52933   0.56319   0.61252   0.64282   0.74636
     Eigenvalues ---    0.763251000.000001000.000001000.000001000.00000
     Eigenvalues --- 1000.000001000.000001000.000001000.000001000.00000
     Eigenvalues --- 1000.000001000.000001000.000001000.000001000.00000
     Eigenvalues --- 1000.000001000.000001000.00000
 RFO step:  Lambda=-1.43075890D-04.
 Quartic linear search produced a step of -0.07900.
 Iteration  1 RMS(Cart)=  0.00303670 RMS(Int)=  0.00000827
 Iteration  2 RMS(Cart)=  0.00000819 RMS(Int)=  0.00000476
 Iteration  3 RMS(Cart)=  0.00000000 RMS(Int)=  0.00000476
 Variable       Old X    -DE/DX   Delta X   Delta X   Delta X     New X
                                 (Linear)    (Quad)   (Total)
    R1        2.58480   0.00125  -0.00136   0.00723   0.00586   2.59067
    R2        2.43987  -0.00174   0.00076  -0.00471  -0.00394   2.43593
    R3        1.88010  -0.00152   0.00015  -0.00226  -0.00211   1.87800
    R4        2.02342  -0.00194  -0.00002  -0.00261  -0.00263   2.02079
    R5        2.55728  -0.00176   0.00118  -0.00609  -0.00492   2.55237
    R6        2.58930  -0.00002  -0.00138   0.00580   0.00442   2.59373
    R7        2.02702  -0.00219   0.00003  -0.00333  -0.00330   2.02373
    R8        2.02757  -0.00194  -0.00017  -0.00206  -0.00223   2.02534
    R9        2.55064  -0.00047  -0.00022   0.00088   0.00066   2.55130
    A1        1.84547  -0.00244  -0.00097  -0.00607  -0.00703   1.83844
    A2        2.31257  -0.00035  -0.00037   0.00034  -0.00003   2.31254
    A3        2.13842  -0.00060   0.00018  -0.00327  -0.00309   2.13534
    A4        1.83219   0.00095   0.00020   0.00293   0.00312   1.83531
    A5        1.92700   0.00067   0.00038   0.00177   0.00213   1.92913
    A6        2.12223  -0.00074  -0.00003  -0.00385  -0.00387   2.11836
    A7        2.23396   0.00008  -0.00035   0.00208   0.00174   2.23570
    A8        2.19789  -0.00169  -0.00060  -0.00462  -0.00523   2.19266
    A9        1.94816   0.00319   0.00094   0.00901   0.00996   1.95812
   A10        2.13713  -0.00150  -0.00033  -0.00439  -0.00473   2.13240
   A11        2.21062   0.00076   0.00025   0.00147   0.00171   2.21233
   A12        2.20061   0.00161   0.00030   0.00618   0.00647   2.20708
   A13        1.87195  -0.00236  -0.00055  -0.00764  -0.00818   1.86377
    D1        0.00000   0.00000   0.00000   0.00000   0.00000   0.00000
    D2        3.14159   0.00000   0.00000   0.00000   0.00000   3.14159
    D3        3.14159   0.00000   0.00000   0.00000   0.00000   3.14159
    D4        0.00000   0.00000   0.00000   0.00000   0.00000   0.00000
    D5       -3.14159   0.00000   0.00000   0.00000   0.00000  -3.14159
    D6        0.00000   0.00000   0.00000   0.00000   0.00000   0.00000
    D7        0.00000   0.00000   0.00000   0.00000   0.00000   0.00000
    D8        3.14159   0.00000   0.00000   0.00000   0.00000   3.14159
    D9        0.00000   0.00000   0.00000   0.00000   0.00000   0.00000
   D10        3.14159   0.00000   0.00000   0.00000   0.00000   3.14159
   D11        3.14159   0.00000   0.00000   0.00000   0.00000   3.14159
   D12        0.00000   0.00000   0.00000   0.00000   0.00000   0.00000
   D13        3.14159   0.00000   0.00000   0.00000   0.00000   3.14159
   D14        0.00000   0.00000   0.00000   0.00000   0.00000   0.00000
   D15        0.00000   0.00000   0.00000   0.00000   0.00000   0.00000
   D16        3.14159   0.00000   0.00000   0.00000   0.00000   3.14159
         Item               Value     Threshold  Converged?
 Maximum Force            0.003187     0.000450     NO 
 RMS     Force            0.001202     0.000300     NO 
 Maximum Displacement     0.009469     0.001800     NO 
 RMS     Displacement     0.003038     0.001200     NO 
 Predicted change in Energy=-7.369669D-05
 GradGradGradGradGradGradGradGradGradGradGradGradGradGradGradGradGradGrad

                          Input orientation:                          
 ---------------------------------------------------------------------
 Center     Atomic     Atomic              Coordinates (Angstroms)
 Number     Number      Type              X           Y           Z
 ---------------------------------------------------------------------
    1          7             0        0.498770    0.000000    1.110961
    2          1             0        0.494002    0.000000   -2.029780
    3          6             0       -1.013994    0.000000   -0.536470
    4          1             0       -1.890288    0.000000   -1.149356
    5          6             0       -0.837007    0.000000    0.802538
    6          1             0       -1.585942    0.000000    1.568010
    7          1             0        2.173699    0.000000   -0.159690
    8          6             0        1.110608    0.000000   -0.023622
    9          7             0        0.252366    0.000000   -1.065811
 ---------------------------------------------------------------------
                    Distance matrix (angstroms):
                    1          2          3          4          5
     1  N    0.000000
     2  H    3.140745   0.000000
     3  C    2.236623   2.122270   0.000000
     4  H    3.288864   2.541651   1.069355   0.000000
     5  C    1.370921   3.129475   1.350654   2.217947   0.000000
     6  H    2.134226   4.155751   2.180816   2.734356   1.070911
     7  H    2.102365   2.513687   3.209883   4.182754   3.160733
     8  C    1.289040   2.098779   2.185622   3.205098   2.115596
     9  N    2.190674   0.993793   1.372541   2.144282   2.162745
                    6          7          8          9
     6  H    0.000000
     7  H    4.137614   0.000000
     8  C    3.131242   1.071763   0.000000
     9  N    3.211914   2.124283   1.350088   0.000000
 Stoichiometry    C3H4N2
 Framework group  CS[SG(C3H4N2)]
 Deg. of freedom   15
 Full point group                 CS      NOp   2
 Largest Abelian subgroup         CS      NOp   2
 Largest concise Abelian subgroup C1      NOp   1
                         Standard orientation:                         
 ---------------------------------------------------------------------
 Center     Atomic     Atomic              Coordinates (Angstroms)
 Number     Number      Type              X           Y           Z
 ---------------------------------------------------------------------
    1          7             0       -0.740970   -0.966322    0.000000
    2          1             0       -0.013197    2.088940    0.000000
    3          6             0        1.110460    0.288544    0.000000
    4          1             0        2.104323    0.683203    0.000000
    5          6             0        0.629931   -0.973739    0.000000
    6          1             0        1.182500   -1.891082    0.000000
    7          1             0       -2.078341    0.655830    0.000000
    8          6             0       -1.075140    0.278649    0.000000
    9          7             0        0.000000    1.095234    0.000000
 ---------------------------------------------------------------------
 Rotational constants (GHZ):      9.9261051      9.6330996      4.8887038
 Isotopes: N-14,H-1,C-12,H-1,C-12,H-1,H-1,C-12,N-14
 Standard basis: 6-31G(d) (6D, 7F)
 There are    63 symmetry adapted basis functions of A'  symmetry.
 There are    20 symmetry adapted basis functions of A"  symmetry.
 Crude estimate of integral set expansion from redundant integrals=1.000.
 Integral buffers will be    262144 words long.
 Raffenetti 1 integral format.
 Two-electron integral symmetry is turned on.
    83 basis functions      156 primitive gaussians
    18 alpha electrons       18 beta electrons
       nuclear repulsion energy       164.9393456307 Hartrees.
 One-electron integrals computed using PRISM.
 NBasis=    83 RedAO= T  NBF=    63    20
 NBsUse=    83 1.00D-04 NBFU=    63    20
 Initial guess read from the read-write file:
 Initial guess orbital symmetries:
       Occupied  (A') (A') (A') (A') (A') (A') (A') (A') (A') (A')
                 (A') (A') (A') (A") (A') (A') (A") (A")
       Virtual   (A") (A') (A") (A') (A') (A') (A') (A') (A') (A')
                 (A') (A') (A") (A") (A') (A') (A") (A') (A') (A')
                 (A") (A') (A') (A') (A") (A') (A') (A') (A') (A')
                 (A') (A') (A') (A") (A") (A") (A') (A') (A") (A")
                 (A') (A') (A') (A') (A') (A') (A") (A") (A') (A')
                 (A") (A") (A') (A') (A") (A') (A') (A') (A') (A')
                 (A') (A') (A') (A') (A')
 Requested convergence on RMS density matrix=1.00D-08 within  64 cycles.
 Requested convergence on MAX density matrix=1.00D-06.
 Keep R1 integrals in memory in canonical form, NReq=     6535303.
 SCF Done:  E(RHF) =  -224.814425039     A.U. after   11 cycles
             Convg  =    0.4916D-08             -V/T =  2.0014
             S**2   =   0.0000
 ***** Axes restored to original set *****
 -------------------------------------------------------------------
 Center     Atomic                   Forces (Hartrees/Bohr)
 Number     Number              X              Y              Z
 -------------------------------------------------------------------
    1          7           0.000429904    0.000000000   -0.000081652
    2          1          -0.000166604    0.000000000    0.000576754
    3          6           0.000372055    0.000000000   -0.000384232
    4          1           0.000539792    0.000000000    0.000587771
    5          6          -0.001349860    0.000000000    0.000225980
    6          1           0.000579155    0.000000000   -0.000562375
    7          1          -0.000716748    0.000000000    0.000118818
    8          6           0.000120866    0.000000000   -0.000738981
    9          7           0.000191439    0.000000000    0.000257919
 -------------------------------------------------------------------
 Cartesian Forces:  Max     0.001349860 RMS     0.000438490

 GradGradGradGradGradGradGradGradGradGradGradGradGradGradGradGradGradGrad
 Berny optimization.
 Internal  Forces:  Max     0.000807006 RMS     0.000310347
 Search for a local minimum.
 Step number   5 out of a maximum of  48
 All quantities printed in internal units (Hartrees-Bohrs-Radians)
 Update second derivatives using information from points  1  2  3  4  5

 Trust test= 1.06D+00 RLast= 2.18D-02 DXMaxT set to 4.87D-01
     Eigenvalues ---    0.03204   0.03262   0.03287   0.03304   0.03349
     Eigenvalues ---    0.03405   0.15244   0.15908   0.16003   0.16040
     Eigenvalues ---    0.21955   0.29433   0.46345   0.49319   0.49615
     Eigenvalues ---    0.51314   0.56143   0.60141   0.64442   0.72421
     Eigenvalues ---    0.752401000.000001000.000001000.000001000.00000
     Eigenvalues --- 1000.000001000.000001000.000001000.000001000.00000
     Eigenvalues --- 1000.000001000.000001000.000001000.000001000.00000
     Eigenvalues --- 1000.000001000.000001000.00000
 RFO step:  Lambda=-7.13899906D-06.
 Quartic linear search produced a step of  0.06603.
 Iteration  1 RMS(Cart)=  0.00076598 RMS(Int)=  0.00000038
 Iteration  2 RMS(Cart)=  0.00000029 RMS(Int)=  0.00000025
 Variable       Old X    -DE/DX   Delta X   Delta X   Delta X     New X
                                 (Linear)    (Quad)   (Total)
    R1        2.59067   0.00029   0.00039   0.00026   0.00065   2.59131
    R2        2.43593  -0.00007  -0.00026   0.00018  -0.00008   2.43585
    R3        1.87800  -0.00060  -0.00014  -0.00096  -0.00110   1.87690
    R4        2.02079  -0.00078  -0.00017  -0.00155  -0.00172   2.01907
    R5        2.55237  -0.00045  -0.00032  -0.00041  -0.00073   2.55164
    R6        2.59373  -0.00050   0.00029  -0.00103  -0.00074   2.59299
    R7        2.02373  -0.00081  -0.00022  -0.00161  -0.00183   2.02190
    R8        2.02534  -0.00073  -0.00015  -0.00146  -0.00161   2.02373
    R9        2.55130  -0.00080   0.00004  -0.00127  -0.00122   2.55007
    A1        1.83844  -0.00010  -0.00046   0.00049   0.00002   1.83847
    A2        2.31254  -0.00029   0.00000  -0.00173  -0.00173   2.31081
    A3        2.13534   0.00005  -0.00020   0.00102   0.00082   2.13616
    A4        1.83531   0.00024   0.00021   0.00070   0.00091   1.83622
    A5        1.92913  -0.00031   0.00014  -0.00110  -0.00096   1.92817
    A6        2.11836   0.00013  -0.00026   0.00064   0.00038   2.11874
    A7        2.23570   0.00018   0.00011   0.00046   0.00058   2.23628
    A8        2.19266  -0.00006  -0.00035  -0.00003  -0.00038   2.19228
    A9        1.95812   0.00006   0.00066  -0.00045   0.00021   1.95833
   A10        2.13240   0.00000  -0.00031   0.00048   0.00017   2.13257
   A11        2.21233  -0.00008   0.00011  -0.00022  -0.00011   2.21222
   A12        2.20708  -0.00004   0.00043  -0.00013   0.00030   2.20738
   A13        1.86377   0.00011  -0.00054   0.00035  -0.00019   1.86359
    D1        0.00000   0.00000   0.00000   0.00000   0.00000   0.00000
    D2        3.14159   0.00000   0.00000   0.00000   0.00000   3.14159
    D3        3.14159   0.00000   0.00000   0.00000   0.00000   3.14159
    D4        0.00000   0.00000   0.00000   0.00000   0.00000   0.00000
    D5        3.14159   0.00000   0.00000   0.00000   0.00000   3.14159
    D6        0.00000   0.00000   0.00000   0.00000   0.00000   0.00000
    D7        0.00000   0.00000   0.00000   0.00000   0.00000   0.00000
    D8        3.14159   0.00000   0.00000   0.00000   0.00000   3.14159
    D9        0.00000   0.00000   0.00000   0.00000   0.00000   0.00000
   D10        3.14159   0.00000   0.00000   0.00000   0.00000   3.14159
   D11       -3.14159   0.00000   0.00000   0.00000   0.00000  -3.14159
   D12        0.00000   0.00000   0.00000   0.00000   0.00000   0.00000
   D13        3.14159   0.00000   0.00000   0.00000   0.00000   3.14159
   D14        0.00000   0.00000   0.00000   0.00000   0.00000   0.00000
   D15        0.00000   0.00000   0.00000   0.00000   0.00000   0.00000
   D16        3.14159   0.00000   0.00000   0.00000   0.00000   3.14159
         Item               Value     Threshold  Converged?
 Maximum Force            0.000807     0.000450     NO 
 RMS     Force            0.000310     0.000300     NO 
 Maximum Displacement     0.002656     0.001800     NO 
 RMS     Displacement     0.000766     0.001200     YES
 Predicted change in Energy=-3.870935D-06
 GradGradGradGradGradGradGradGradGradGradGradGradGradGradGradGradGradGrad

                          Input orientation:                          
 ---------------------------------------------------------------------
 Center     Atomic     Atomic              Coordinates (Angstroms)
 Number     Number      Type              X           Y           Z
 ---------------------------------------------------------------------
    1          7             0        0.498539    0.000000    1.110612
    2          1             0        0.493678    0.000000   -2.029231
    3          6             0       -1.013516    0.000000   -0.536414
    4          1             0       -1.889644    0.000000   -1.147948
    5          6             0       -0.837626    0.000000    0.802348
    6          1             0       -1.586042    0.000000    1.566977
    7          1             0        2.172461    0.000000   -0.159746
    8          6             0        1.110184    0.000000   -0.024028
    9          7             0        0.252414    0.000000   -1.065767
 ---------------------------------------------------------------------
                    Distance matrix (angstroms):
                    1          2          3          4          5
     1  N    0.000000
     2  H    3.139846   0.000000
     3  C    2.235845   2.121352   0.000000
     4  H    3.287021   2.541040   1.068444   0.000000
     5  C    1.371264   3.128931   1.350267   2.215941   0.000000
     6  H    2.133951   4.154268   2.179918   2.731847   1.069945
     7  H    2.101386   2.512625   3.208166   4.180579   3.160103
     8  C    1.288998   2.097837   2.184638   3.203461   2.115860
     9  N    2.190251   0.993213   1.372149   2.143634   2.162878
                    6          7          8          9
     6  H    0.000000
     7  H    4.136172   0.000000
     8  C    3.130643   1.070912   0.000000
     9  N    3.211115   2.123076   1.349441   0.000000
 Stoichiometry    C3H4N2
 Framework group  CS[SG(C3H4N2)]
 Deg. of freedom   15
 Full point group                 CS      NOp   2
 Largest Abelian subgroup         CS      NOp   2
 Largest concise Abelian subgroup C1      NOp   1
                         Standard orientation:                         
 ---------------------------------------------------------------------
 Center     Atomic     Atomic              Coordinates (Angstroms)
 Number     Number      Type              X           Y           Z
 ---------------------------------------------------------------------
    1          7             0       -0.741059   -0.965959    0.000000
    2          1             0       -0.012734    2.088247    0.000000
    3          6             0        1.109862    0.288272    0.000000
    4          1             0        2.103339    0.681436    0.000000
    5          6             0        0.630182   -0.973920    0.000000
    6          1             0        1.182239   -1.890444    0.000000
    7          1             0       -2.077162    0.655969    0.000000
    8          6             0       -1.074756    0.279096    0.000000
    9          7             0        0.000000    1.095117    0.000000
 ---------------------------------------------------------------------
 Rotational constants (GHZ):      9.9280220      9.6396700      4.8908607
 Isotopes: N-14,H-1,C-12,H-1,C-12,H-1,H-1,C-12,N-14
 Standard basis: 6-31G(d) (6D, 7F)
 There are    63 symmetry adapted basis functions of A'  symmetry.
 There are    20 symmetry adapted basis functions of A"  symmetry.
 Crude estimate of integral set expansion from redundant integrals=1.000.
 Integral buffers will be    262144 words long.
 Raffenetti 1 integral format.
 Two-electron integral symmetry is turned on.
    83 basis functions      156 primitive gaussians
    18 alpha electrons       18 beta electrons
       nuclear repulsion energy       164.9792003296 Hartrees.
 One-electron integrals computed using PRISM.
 NBasis=    83 RedAO= T  NBF=    63    20
 NBsUse=    83 1.00D-04 NBFU=    63    20
 Initial guess read from the read-write file:
 Initial guess orbital symmetries:
       Occupied  (A') (A') (A') (A') (A') (A') (A') (A') (A') (A')
                 (A') (A') (A') (A") (A') (A') (A") (A")
       Virtual   (A") (A') (A") (A') (A') (A') (A') (A') (A') (A')
                 (A') (A') (A") (A') (A") (A') (A") (A') (A') (A')
                 (A") (A') (A') (A') (A") (A') (A') (A') (A') (A')
                 (A') (A') (A') (A") (A") (A") (A') (A') (A") (A")
                 (A') (A') (A') (A') (A') (A') (A") (A") (A') (A')
                 (A") (A") (A') (A') (A") (A') (A') (A') (A') (A')
                 (A') (A') (A') (A') (A')
 Requested convergence on RMS density matrix=1.00D-08 within  64 cycles.
 Requested convergence on MAX density matrix=1.00D-06.
 Keep R1 integrals in memory in canonical form, NReq=     6535303.
 SCF Done:  E(RHF) =  -224.814429221     A.U. after    9 cycles
             Convg  =    0.4877D-08             -V/T =  2.0013
             S**2   =   0.0000
 ***** Axes restored to original set *****
 -------------------------------------------------------------------
 Center     Atomic                   Forces (Hartrees/Bohr)
 Number     Number              X              Y              Z
 -------------------------------------------------------------------
    1          7           0.000234978    0.000000000    0.000126000
    2          1          -0.000011092    0.000000000    0.000004604
    3          6           0.000145916    0.000000000   -0.000235584
    4          1           0.000009651    0.000000000    0.000036326
    5          6          -0.000222319    0.000000000   -0.000076344
    6          1           0.000067553    0.000000000   -0.000027323
    7          1          -0.000043207    0.000000000    0.000023011
    8          6          -0.000023988    0.000000000   -0.000155340
    9          7          -0.000157493    0.000000000    0.000304650
 -------------------------------------------------------------------
 Cartesian Forces:  Max     0.000304650 RMS     0.000114620

 GradGradGradGradGradGradGradGradGradGradGradGradGradGradGradGradGradGrad
 Berny optimization.
 Internal  Forces:  Max     0.000232272 RMS     0.000063489
 Search for a local minimum.
 Step number   6 out of a maximum of  48
 All quantities printed in internal units (Hartrees-Bohrs-Radians)
 Update second derivatives using information from points  1  2  3  4  5
                                                        6
 Trust test= 1.08D+00 RLast= 4.40D-03 DXMaxT set to 4.87D-01
     Eigenvalues ---    0.03204   0.03262   0.03287   0.03304   0.03349
     Eigenvalues ---    0.03405   0.15134   0.15558   0.16006   0.16051
     Eigenvalues ---    0.23677   0.29194   0.42504   0.49315   0.49641
     Eigenvalues ---    0.51206   0.56543   0.58994   0.63110   0.74156
     Eigenvalues ---    0.764571000.000001000.000001000.000001000.00000
     Eigenvalues --- 1000.000001000.000001000.000001000.000001000.00000
     Eigenvalues --- 1000.000001000.000001000.000001000.000001000.00000
     Eigenvalues --- 1000.000001000.000001000.00000
 RFO step:  Lambda=-3.15108109D-07.
 Quartic linear search produced a step of  0.08655.
 Iteration  1 RMS(Cart)=  0.00017106 RMS(Int)=  0.00000002
 Iteration  2 RMS(Cart)=  0.00000002 RMS(Int)=  0.00000001
 Variable       Old X    -DE/DX   Delta X   Delta X   Delta X     New X
                                 (Linear)    (Quad)   (Total)
    R1        2.59131   0.00019   0.00006   0.00026   0.00032   2.59163
    R2        2.43585  -0.00002  -0.00001  -0.00001  -0.00002   2.43584
    R3        1.87690  -0.00001  -0.00009   0.00002  -0.00007   1.87683
    R4        2.01907  -0.00003  -0.00015   0.00000  -0.00015   2.01891
    R5        2.55164   0.00001  -0.00006   0.00005  -0.00001   2.55163
    R6        2.59299  -0.00023  -0.00006  -0.00035  -0.00041   2.59257
    R7        2.02190  -0.00007  -0.00016  -0.00008  -0.00024   2.02166
    R8        2.02373  -0.00005  -0.00014  -0.00005  -0.00019   2.02354
    R9        2.55007  -0.00009  -0.00011  -0.00012  -0.00023   2.54984
    A1        1.83847  -0.00012   0.00000  -0.00033  -0.00032   1.83814
    A2        2.31081   0.00000  -0.00015   0.00006  -0.00009   2.31072
    A3        2.13616   0.00005   0.00007   0.00028   0.00035   2.13651
    A4        1.83622  -0.00004   0.00008  -0.00034  -0.00026   1.83596
    A5        1.92817   0.00002  -0.00008   0.00029   0.00020   1.92837
    A6        2.11874  -0.00004   0.00003  -0.00033  -0.00030   2.11844
    A7        2.23628   0.00002   0.00005   0.00005   0.00010   2.23637
    A8        2.19228  -0.00003  -0.00003  -0.00011  -0.00015   2.19213
    A9        1.95833   0.00002   0.00002   0.00000   0.00002   1.95836
   A10        2.13257   0.00001   0.00001   0.00011   0.00012   2.13269
   A11        2.21222  -0.00007  -0.00001  -0.00024  -0.00025   2.21197
   A12        2.20738  -0.00006   0.00003  -0.00013  -0.00011   2.20727
   A13        1.86359   0.00013  -0.00002   0.00038   0.00036   1.86395
    D1        0.00000   0.00000   0.00000   0.00000   0.00000   0.00000
    D2        3.14159   0.00000   0.00000   0.00000   0.00000   3.14159
    D3        3.14159   0.00000   0.00000   0.00000   0.00000   3.14159
    D4        0.00000   0.00000   0.00000   0.00000   0.00000   0.00000
    D5        3.14159   0.00000   0.00000   0.00000   0.00000   3.14159
    D6        0.00000   0.00000   0.00000   0.00000   0.00000   0.00000
    D7        0.00000   0.00000   0.00000   0.00000   0.00000   0.00000
    D8        3.14159   0.00000   0.00000   0.00000   0.00000   3.14159
    D9        0.00000   0.00000   0.00000   0.00000   0.00000   0.00000
   D10        3.14159   0.00000   0.00000   0.00000   0.00000   3.14159
   D11        3.14159   0.00000   0.00000   0.00000   0.00000   3.14159
   D12        0.00000   0.00000   0.00000   0.00000   0.00000   0.00000
   D13        3.14159   0.00000   0.00000   0.00000   0.00000   3.14159
   D14        0.00000   0.00000   0.00000   0.00000   0.00000   0.00000
   D15        0.00000   0.00000   0.00000   0.00000   0.00000   0.00000
   D16        3.14159   0.00000   0.00000   0.00000   0.00000   3.14159
         Item               Value     Threshold  Converged?
 Maximum Force            0.000232     0.000450     YES
 RMS     Force            0.000063     0.000300     YES
 Maximum Displacement     0.000453     0.001800     YES
 RMS     Displacement     0.000171     0.001200     YES
 Predicted change in Energy=-1.842358D-07
 Optimization completed.
    -- Stationary point found.
                         ----------------------------
                         !   Optimized Parameters   !
                         ! (Angstroms and Degrees)  !
 ------------------------                            -------------------------
 ! Name  Definition              Value          Derivative Info.             !
 -----------------------------------------------------------------------------
 ! R1    R(1,5)                  1.3713         -DE/DX =    0.0002           !
 ! R2    R(1,8)                  1.289          -DE/DX =    0.               !
 ! R3    R(2,9)                  0.9932         -DE/DX =    0.               !
 ! R4    R(3,4)                  1.0684         -DE/DX =    0.               !
 ! R5    R(3,5)                  1.3503         -DE/DX =    0.               !
 ! R6    R(3,9)                  1.3721         -DE/DX =   -0.0002           !
 ! R7    R(5,6)                  1.0699         -DE/DX =   -0.0001           !
 ! R8    R(7,8)                  1.0709         -DE/DX =    0.               !
 ! R9    R(8,9)                  1.3494         -DE/DX =   -0.0001           !
 ! A1    A(5,1,8)              105.3363         -DE/DX =   -0.0001           !
 ! A2    A(4,3,5)              132.3996         -DE/DX =    0.               !
 ! A3    A(4,3,9)              122.3928         -DE/DX =    0.               !
 ! A4    A(5,3,9)              105.2076         -DE/DX =    0.               !
 ! A5    A(1,5,3)              110.476          -DE/DX =    0.               !
 ! A6    A(1,5,6)              121.3948         -DE/DX =    0.               !
 ! A7    A(3,5,6)              128.1292         -DE/DX =    0.               !
 ! A8    A(1,8,7)              125.6084         -DE/DX =    0.               !
 ! A9    A(1,8,9)              112.2043         -DE/DX =    0.               !
 ! A10   A(7,8,9)              122.1873         -DE/DX =    0.               !
 ! A11   A(2,9,3)              126.7509         -DE/DX =   -0.0001           !
 ! A12   A(2,9,8)              126.4734         -DE/DX =   -0.0001           !
 ! A13   A(3,9,8)              106.7757         -DE/DX =    0.0001           !
 ! D1    D(8,1,5,3)              0.             -DE/DX =    0.               !
 ! D2    D(8,1,5,6)            180.             -DE/DX =    0.               !
 ! D3    D(5,1,8,7)            180.             -DE/DX =    0.               !
 ! D4    D(5,1,8,9)              0.             -DE/DX =    0.               !
 ! D5    D(4,3,5,1)            180.             -DE/DX =    0.               !
 ! D6    D(4,3,5,6)              0.             -DE/DX =    0.               !
 ! D7    D(9,3,5,1)              0.             -DE/DX =    0.               !
 ! D8    D(9,3,5,6)            180.             -DE/DX =    0.               !
 ! D9    D(4,3,9,2)              0.             -DE/DX =    0.               !
 ! D10   D(4,3,9,8)            180.             -DE/DX =    0.               !
 ! D11   D(5,3,9,2)            180.             -DE/DX =    0.               !
 ! D12   D(5,3,9,8)              0.             -DE/DX =    0.               !
 ! D13   D(1,8,9,2)            180.             -DE/DX =    0.               !
 ! D14   D(1,8,9,3)              0.             -DE/DX =    0.               !
 ! D15   D(7,8,9,2)              0.             -DE/DX =    0.               !
 ! D16   D(7,8,9,3)            180.             -DE/DX =    0.               !
 -----------------------------------------------------------------------------
 GradGradGradGradGradGradGradGradGradGradGradGradGradGradGradGradGradGrad

[...]
                    19                     20                     21
                    A'                     A'                     A'
 Frequencies --  3445.9563              3474.5550              3921.3221
 Red. masses --     1.0978                 1.1071                 1.0827
 Frc consts  --     7.6804                 7.8748                 9.8091
 IR Inten    --     1.2802                 4.2194                89.6255
 Raman Activ --    91.3737               100.4209                78.3331
 Depolar     --     0.2932                 0.1427                 0.2835
 Atom AN      X      Y      Z        X      Y      Z        X      Y      Z
   1   7     0.00   0.00   0.00     0.00   0.00   0.00     0.00   0.00   0.00
   2   1    -0.01   0.01   0.00    -0.01  -0.01   0.00    -0.01   1.00   0.00
   3   6    -0.02  -0.01   0.00    -0.08  -0.03   0.00     0.00   0.00   0.00
   4   1     0.24   0.09   0.00     0.84   0.34   0.00     0.01   0.00   0.00
   5   6     0.02  -0.03   0.00    -0.02   0.04   0.00     0.00   0.00   0.00
   6   1    -0.22   0.36   0.00     0.21  -0.36   0.00     0.00   0.00   0.00
   7   1     0.81  -0.30   0.00    -0.06   0.02   0.00    -0.01   0.00   0.00
   8   6    -0.07   0.03   0.00     0.01   0.00   0.00     0.00   0.00   0.00
   9   7     0.00   0.00   0.00     0.00   0.00   0.00     0.00  -0.08   0.00

 -------------------
 - Thermochemistry -
 -------------------
 Temperature   298.150 Kelvin.  Pressure   1.00000 Atm.
 Atom  1 has atomic number  7 and mass  14.00307
 Atom  2 has atomic number  1 and mass   1.00783
 Atom  3 has atomic number  6 and mass  12.00000
 Atom  4 has atomic number  1 and mass   1.00783
 Atom  5 has atomic number  6 and mass  12.00000
 Atom  6 has atomic number  1 and mass   1.00783
 Atom  7 has atomic number  1 and mass   1.00783
 Atom  8 has atomic number  6 and mass  12.00000
 Atom  9 has atomic number  7 and mass  14.00307
 Molecular mass:    68.03745 amu.
 Principal axes and moments of inertia in atomic units:
                           1         2         3
     EIGENVALUES --   181.78255 187.22022 369.00277
           X            0.50548   0.86284   0.00000
           Y            0.86284  -0.50548   0.00000
           Z            0.00000   0.00000   1.00000
 THIS MOLECULE IS AN ASYMMETRIC TOP.
 ROTATIONAL SYMMETRY NUMBER  1.
 ROTATIONAL TEMPERATURES (KELVIN)      0.47647     0.46263     0.23472
 ROTATIONAL CONSTANTS (GHZ)            9.92802     9.63967     4.89086
 Zero-point vibrational energy     202247.8 (Joules/Mol)
                                   48.33838 (Kcal/Mol)
 WARNING-- EXPLICIT CONSIDERATION OF   1 DEGREES OF FREEDOM AS
           VIBRATIONS MAY CAUSE SIGNIFICANT ERROR
 VIBRATIONAL TEMPERATURES:    769.83   997.07  1055.26  1207.11  1388.60
          (KELVIN)           1416.84  1437.68  1469.92  1665.84  1714.29
                             1776.65  1809.88  2030.79  2165.74  2283.93
                             2396.20  2510.11  4954.73  4957.93  4999.08
                             5641.88
 
 Zero-point correction=                           0.077032 (Hartree/Particle)
 Thermal correction to Energy=                    0.080584
 Thermal correction to Enthalpy=                  0.081528
 Thermal correction to Gibbs Free Energy=         0.050860
 Sum of electronic and zero-point Energies=           -224.737397
 Sum of electronic and thermal Energies=              -224.733845
 Sum of electronic and thermal Enthalpies=            -224.732901
 Sum of electronic and thermal Free Energies=         -224.763569
 
                     E (Thermal)             CV                S
                      KCAL/MOL        CAL/MOL-KELVIN    CAL/MOL-KELVIN
 TOTAL                   50.567             11.976             64.546
 ELECTRONIC               0.000              0.000              0.000
 TRANSLATIONAL            0.889              2.981             38.570
 ROTATIONAL               0.889              2.981             24.044
 VIBRATIONAL             48.790              6.015              1.931
 VIBRATION  1             0.890              1.172              0.576
                       Q            LOG10(Q)             LN(Q)
 TOTAL BOT       0.403604D-23        -23.394044        -53.866777
 TOTAL V=0       0.109150D+13         12.038024         27.718574
 VIB (BOT)       0.456097D-35        -35.340943        -81.375529
 VIB (BOT)  1    0.297490D+00         -0.526528         -1.212376
 VIB (V=0)       0.123346D+01          0.091125          0.209822
 VIB (V=0)  1    0.108181D+01          0.034150          0.078633
 ELECTRONIC      0.100000D+01          0.000000          0.000000
 TRANSLATIONAL   0.220588D+08          7.343582         16.909224
 ROTATIONAL      0.401159D+05          4.603317         10.599528
 ***** Axes restored to original set *****
 -------------------------------------------------------------------
 Center     Atomic                   Forces (Hartrees/Bohr)
 Number     Number              X              Y              Z
 -------------------------------------------------------------------
    1          7           0.000234985    0.000000000    0.000125999
    2          1          -0.000011093    0.000000000    0.000004604
    3          6           0.000145914    0.000000000   -0.000235586
    4          1           0.000009647    0.000000000    0.000036323
    5          6          -0.000222319    0.000000000   -0.000076337
    6          1           0.000067552    0.000000000   -0.000027323
    7          1          -0.000043209    0.000000000    0.000023013
    8          6          -0.000023998    0.000000000   -0.000155346
    9          7          -0.000157478    0.000000000    0.000304654
 -------------------------------------------------------------------
 Cartesian Forces:  Max     0.000304654 RMS     0.000114621

 GradGradGradGradGradGradGradGradGradGradGradGradGradGradGradGradGradGrad
 Berny optimization.
 Internal  Forces:  Max     0.000232266 RMS     0.000063489
 Search for a local minimum.
 Step number   1 out of a maximum of  48
 All quantities printed in internal units (Hartrees-Bohrs-Radians)
 Second derivative matrix not updated -- analytic derivatives used.
     Eigenvalues ---    0.00536   0.01459   0.02675   0.03377   0.06857
     Eigenvalues ---    0.07146   0.11617   0.12339   0.12853   0.13958
     Eigenvalues ---    0.26555   0.27876   0.40292   0.41709   0.42003
     Eigenvalues ---    0.42248   0.47888   0.50228   0.54698   0.56751
     Eigenvalues ---    0.697591000.000001000.000001000.000001000.00000
     Eigenvalues --- 1000.000001000.000001000.000001000.000001000.00000
     Eigenvalues --- 1000.000001000.000001000.000001000.000001000.00000
     Eigenvalues --- 1000.000001000.000001000.00000
 Angle between quadratic step and forces=  23.52 degrees.
 Linear search not attempted -- first point.
 Iteration  1 RMS(Cart)=  0.00014045 RMS(Int)=  0.00000002
 Iteration  2 RMS(Cart)=  0.00000002 RMS(Int)=  0.00000001
 Variable       Old X    -DE/DX   Delta X   Delta X   Delta X     New X
                                 (Linear)    (Quad)   (Total)
    R1        2.59131   0.00019   0.00000   0.00049   0.00049   2.59180
    R2        2.43585  -0.00002   0.00000   0.00005   0.00005   2.43590
    R3        1.87690  -0.00001   0.00000   0.00000   0.00000   1.87690
    R4        2.01907  -0.00003   0.00000  -0.00007  -0.00007   2.01900
    R5        2.55164   0.00001   0.00000   0.00004   0.00004   2.55168
    R6        2.59299  -0.00023   0.00000  -0.00054  -0.00054   2.59245
    R7        2.02190  -0.00007   0.00000  -0.00017  -0.00017   2.02174
    R8        2.02373  -0.00005   0.00000  -0.00011  -0.00011   2.02362
    R9        2.55007  -0.00009   0.00000  -0.00024  -0.00024   2.54983
    A1        1.83847  -0.00012   0.00000  -0.00027  -0.00027   1.83819
    A2        2.31081   0.00000   0.00000  -0.00021  -0.00021   2.31060
    A3        2.13616   0.00005   0.00000   0.00030   0.00030   2.13646
    A4        1.83622  -0.00004   0.00000  -0.00009  -0.00009   1.83613
    A5        1.92817   0.00002   0.00000   0.00001   0.00001   1.92818
    A6        2.11874  -0.00004   0.00000  -0.00030  -0.00030   2.11844
    A7        2.23628   0.00002   0.00000   0.00029   0.00029   2.23657
    A8        2.19228  -0.00003   0.00000  -0.00012  -0.00012   2.19216
    A9        1.95833   0.00002   0.00000   0.00002   0.00002   1.95835
   A10        2.13257   0.00001   0.00000   0.00010   0.00010   2.13267
   A11        2.21222  -0.00007   0.00000  -0.00021  -0.00021   2.21201
   A12        2.20738  -0.00006   0.00000  -0.00013  -0.00013   2.20724
   A13        1.86359   0.00013   0.00000   0.00034   0.00034   1.86393
    D1        0.00000   0.00000   0.00000   0.00000   0.00000   0.00000
    D2        3.14159   0.00000   0.00000   0.00000   0.00000   3.14159
    D3        3.14159   0.00000   0.00000   0.00000   0.00000   3.14159
    D4        0.00000   0.00000   0.00000   0.00000   0.00000   0.00000
    D5        3.14159   0.00000   0.00000   0.00000   0.00000   3.14159
    D6        0.00000   0.00000   0.00000   0.00000   0.00000   0.00000
    D7        0.00000   0.00000   0.00000   0.00000   0.00000   0.00000
    D8        3.14159   0.00000   0.00000   0.00000   0.00000   3.14159
    D9        0.00000   0.00000   0.00000   0.00000   0.00000   0.00000
   D10        3.14159   0.00000   0.00000   0.00000   0.00000   3.14159
   D11        3.14159   0.00000   0.00000   0.00000   0.00000   3.14159
   D12        0.00000   0.00000   0.00000   0.00000   0.00000   0.00000
   D13        3.14159   0.00000   0.00000   0.00000   0.00000   3.14159
   D14        0.00000   0.00000   0.00000   0.00000   0.00000   0.00000
   D15        0.00000   0.00000   0.00000   0.00000   0.00000   0.00000
   D16        3.14159   0.00000   0.00000   0.00000   0.00000   3.14159
         Item               Value     Threshold  Converged?
 Maximum Force            0.000232     0.000450     YES
 RMS     Force            0.000063     0.000300     YES
 Maximum Displacement     0.000369     0.001800     YES
 RMS     Displacement     0.000140     0.001200     YES
 Predicted change in Energy=-1.992924D-07
 Optimization completed.
    -- Stationary point found.
                         ----------------------------
                         !   Optimized Parameters   !
                         ! (Angstroms and Degrees)  !
 ------------------------                            -------------------------
 ! Name  Definition              Value          Derivative Info.             !
 -----------------------------------------------------------------------------
 ! R1    R(1,5)                  1.3713         -DE/DX =    0.0002           !
 ! R2    R(1,8)                  1.289          -DE/DX =    0.               !
 ! R3    R(2,9)                  0.9932         -DE/DX =    0.               !
 ! R4    R(3,4)                  1.0684         -DE/DX =    0.               !
 ! R5    R(3,5)                  1.3503         -DE/DX =    0.               !
 ! R6    R(3,9)                  1.3721         -DE/DX =   -0.0002           !
 ! R7    R(5,6)                  1.0699         -DE/DX =   -0.0001           !
 ! R8    R(7,8)                  1.0709         -DE/DX =    0.               !
 ! R9    R(8,9)                  1.3494         -DE/DX =   -0.0001           !
 ! A1    A(5,1,8)              105.3363         -DE/DX =   -0.0001           !
 ! A2    A(4,3,5)              132.3996         -DE/DX =    0.               !
 ! A3    A(4,3,9)              122.3928         -DE/DX =    0.               !
 ! A4    A(5,3,9)              105.2076         -DE/DX =    0.               !
 ! A5    A(1,5,3)              110.476          -DE/DX =    0.               !
 ! A6    A(1,5,6)              121.3948         -DE/DX =    0.               !
 ! A7    A(3,5,6)              128.1292         -DE/DX =    0.               !
 ! A8    A(1,8,7)              125.6084         -DE/DX =    0.               !
 ! A9    A(1,8,9)              112.2043         -DE/DX =    0.               !
 ! A10   A(7,8,9)              122.1873         -DE/DX =    0.               !
 ! A11   A(2,9,3)              126.7509         -DE/DX =   -0.0001           !
 ! A12   A(2,9,8)              126.4734         -DE/DX =   -0.0001           !
 ! A13   A(3,9,8)              106.7757         -DE/DX =    0.0001           !
 ! D1    D(8,1,5,3)              0.             -DE/DX =    0.               !
 ! D2    D(8,1,5,6)            180.             -DE/DX =    0.               !
 ! D3    D(5,1,8,7)            180.             -DE/DX =    0.               !
 ! D4    D(5,1,8,9)              0.             -DE/DX =    0.               !
 ! D5    D(4,3,5,1)            180.             -DE/DX =    0.               !
 ! D6    D(4,3,5,6)              0.             -DE/DX =    0.               !
 ! D7    D(9,3,5,1)              0.             -DE/DX =    0.               !
 ! D8    D(9,3,5,6)            180.             -DE/DX =    0.               !
 ! D9    D(4,3,9,2)              0.             -DE/DX =    0.               !
 ! D10   D(4,3,9,8)            180.             -DE/DX =    0.               !
 ! D11   D(5,3,9,2)            180.             -DE/DX =    0.               !
 ! D12   D(5,3,9,8)              0.             -DE/DX =    0.               !
 ! D13   D(1,8,9,2)            180.             -DE/DX =    0.               !
 ! D14   D(1,8,9,3)              0.             -DE/DX =    0.               !
 ! D15   D(7,8,9,2)              0.             -DE/DX =    0.               !
 ! D16   D(7,8,9,3)            180.             -DE/DX =    0.               !
 -----------------------------------------------------------------------------
 GradGradGradGradGradGradGradGradGradGradGradGradGradGradGradGradGradGrad

 1\1\GINC-QCHEM4\Freq\RHF\6-31G(d)\C3H4N2\RDJ3\04-Nov-1998\0\\#N GEOM=A
 LLCHECK GUESS=TCHECK RHF/6-31G(D) FREQ\\1H imidazole C3H4N2 casno=2883
 24\\0,1\N,0.4985006827,0.,1.1107392411\H,0.4936395241,0.,-2.0291031736
 \C,-1.0135540176,0.,-0.5362867082\H,-1.8896821808,0.,-1.1478199425\C,-
 0.8376644827,0.,0.8024758257\H,-1.5860799836,0.,1.567104533\H,2.172422
 7878,0.,-0.1596185829\C,1.1101458319,0.,-0.0238998153\N,0.2523758691,0
 .,-1.0656390478\\Version=x86-Linux-G98RevA.4\State=1-A'\HF=-224.814429
 2\RMSD=8.332e-10\RMSF=1.146e-04\Dipole=-0.10478,0.,-1.5156419\DipoleDe
 riv=-0.5316906,0.,-0.0090762,0.,-0.3794793,0.,0.0864927,0.,-0.6543896,
 0.2008879,0.,-0.0008518,0.,0.3800707,0.,-0.0066481,0.,0.256533,0.02696
 64,0.,-0.2963969,0.,-0.1092682,0.,-0.0146597,0.,0.2313518,0.0052707,0.
 ,-0.0471715,0.,0.1868562,0.,-0.0631811,0.,0.0417063,0.2838927,0.,-0.02
 94024,0.,-0.1035193,0.,-0.1389438,0.,0.1431385,-0.0178654,0.,0.076047,
 0.,0.1517063,0.,0.082728,0.,0.0164741,-0.04877,0.,0.0328164,0.,0.13838
 04,0.,0.0330924,0.,0.0680813,0.2780038,0.,0.0845728,0.,0.1265536,0.,-0
 .0496339,0.,0.6676558,-0.1966955,0.,0.1894626,0.,-0.3913004,0.,0.07075
 34,0.,-0.7705512\Polar=44.0658914,0.,17.1857571,-0.6948661,0.,43.28624
 23\PolarDeriv=-9.0632035,0.,-0.2690047,-0.6817579,0.,5.6763144,0.,0.44
 74525,0.,0.,3.1026892,0.,5.6297653,0.,0.2758224,2.0499546,0.,6.4734764
 ,0.6960669,0.,-0.0317959,-1.6059226,0.,1.499079,0.,0.2557285,0.,0.,-0.
 9377309,0.,-0.9279775,0.,-0.063705,1.7670562,0.,-8.6867796,0.4846742,0
 .,0.2889257,-1.0352499,0.,-1.6129571,0.,-3.1401681,0.,0.,-4.0881704,0.
 ,-5.0582689,0.,-0.9300774,-1.7761889,0.,-3.4773004,-6.5692,0.,-0.37500
 33,-3.0950972,0.,-1.9278899,0.,-0.8633864,0.,0.,-0.2669628,0.,-2.84833
 64,0.,-0.1621462,-2.8364109,0.,-3.1768471,7.3076523,0.,0.1571407,2.853
 6485,0.,-1.8486977,0.,-0.5460807,0.,0.,4.0604867,0.,5.7398953,0.,0.532
 3236,3.3131531,0.,2.3881961,-4.5576029,0.,-0.3038063,3.5128878,0.,-2.7
 689548,0.,-1.2516521,0.,0.,0.688864,0.,2.6180799,0.,0.2724046,-3.09550
 91,0.,5.0694057,9.877894,0.,0.4482029,-0.6471383,0.,0.778534,0.,1.1666
 3,0.,0.,-0.0451491,0.,-0.9649501,0.,-0.0479105,1.650304,0.,-0.3833007,
 4.5569078,0.,0.6190744,-0.2198257,0.,0.2518442,0.,3.6041501,0.,0.,-1.0
 178386,0.,-4.9643819,0.,-0.268791,-0.6490642,0.,1.9322965,-2.7331888,0
 .,-0.5337336,0.9184553,0.,-0.0472721,0.,0.3273263,0.,0.,-1.4961882,0.,
 0.7761744,0.,0.3920795,-0.4232948,0.,-0.1391469\HyperPolar=32.8358962,
 0.,1.1262265,0.,-13.5603723,0.,-3.2340655,-26.2679749,0.,-26.0484788\P
 G=CS [SG(C3H4N2)]\NImag=0\\0.57173766,0.,0.12350086,-0.08008165,0.,0.7
 1652193,-0.00302567,0.,-0.01017390,0.09877355,0.,0.00789351,0.,0.,0.01
 195909,-0.00420495,0.,-0.00276350,-0.11178314,0.,0.51807027,-0.0349176
 2,0.,-0.01201987,0.01063356,0.,-0.00189805,0.83775969,0.,0.01926383,0.
 ,0.,-0.00894190,0.,0.,0.13840025,-0.10605325,0.,-0.02088358,0.03191936
 ,0.,-0.00019259,0.19080520,0.,0.88219014,0.00242883,0.,0.00081426,0.00
 003840,0.,0.00022871,-0.28908182,0.,-0.15284275,0.30448234,0.,0.008952
 54,0.,0.,-0.00116896,0.,0.,-0.02992130,0.,0.,0.02415541,-0.00448048,0.
 ,-0.00620410,-0.00125826,0.,0.00016858,-0.16334042,0.,-0.18837163,0.16
 912932,0.,0.17812335,-0.28812448,0.,-0.04916683,-0.01024617,0.,0.00019
 263,-0.12757227,0.,-0.02696060,0.00663561,0.,-0.02586547,0.75547309,0.
 ,-0.08384267,0.,0.,0.00215395,0.,0.,-0.08150066,0.,0.,0.00042479,0.,0.
 ,0.16572513,-0.04963768,0.,-0.14103755,0.00399317,0.,0.00145584,-0.049
 95236,0.,-0.47791803,0.00063576,0.,0.00247570,-0.16707693,0.,0.9419404
 0,-0.02017479,0.,0.02504553,0.00091992,0.,-0.00003574,0.01145350,0.,-0
 .00554365,-0.00027731,0.,0.00090845,-0.22060217,0.,0.16064235,0.235565
 23,0.,-0.00448829,0.,0.,0.00253091,0.,0.,0.00142713,0.,0.,-0.00324590,
 0.,0.,-0.03873990,0.,0.,0.02916248,-0.00782117,0.,0.01523856,0.0014578
 3,0.,0.00026537,0.02401796,0.,-0.00840659,-0.00066634,0.,-0.00021119,0
 .16475424,0.,-0.24737118,-0.17655485,0.,0.24642289,-0.00911235,0.,0.00
 435742,-0.00067246,0.,-0.00068265,0.00091956,0.,-0.00395584,-0.0004460
 8,0.,0.00045768,0.00117491,0.,0.00311475,-0.00042057,0.,-0.00020631,0.
 41182003,0.,-0.00366375,0.,0.,-0.00170671,0.,0.,0.00325870,0.,0.,0.002
 01029,0.,0.,0.00919144,0.,0.,0.00094145,0.,0.,0.02877247,0.03508354,0.
 ,0.00214112,0.00070358,0.,0.00036061,-0.00060386,0.,-0.00699204,-0.001
 24233,0.,0.00115067,0.00300468,0.,-0.00511514,0.00164302,0.,0.00074454
 ,-0.04207204,0.,0.07372387,-0.21945674,0.,0.15877743,0.02308410,0.,0.0
 1491274,-0.10346857,0.,0.00522830,-0.00380887,0.,0.00456106,-0.0916989
 7,0.,0.01865145,-0.00741312,0.,-0.00404128,-0.38858348,0.,0.03845202,1
 .04052085,0.,-0.09497971,0.,0.,-0.00975575,0.,0.,0.01862800,0.,0.,0.00
 299993,0.,0.,0.01136321,0.,0.,0.00570121,0.,0.,-0.03931919,0.,0.,0.179
 66763,0.16484807,0.,-0.43466672,-0.01927641,0.,-0.01177401,-0.05632432
 ,0.,-0.01828253,0.00572159,0.,-0.00582573,0.10290638,0.,0.01312226,-0.
 00305197,0.,-0.00009304,0.03452546,0.,-0.07624506,-0.11722628,0.,0.787
 11631,0.00064517,0.,-0.03755239,-0.11950523,0.,0.10327044,-0.30572603,
 0.,0.06740323,-0.01997109,0.,0.01988813,-0.02503955,0.,0.07962950,0.00
 094931,0.,-0.00094008,-0.01467956,0.,-0.03496861,-0.24917520,0.,-0.112
 12252,0.73250219,0.,0.02736368,0.,0.,-0.00296414,0.,0.,-0.06061405,0.,
 0.,-0.00420680,0.,0.,0.01522471,0.,0.,0.00671090,0.,0.,0.00051530,0.,0
 .,-0.07430533,0.,0.,0.09227571,0.05234756,0.,-0.12834616,0.10441777,0.
 ,-0.50559057,0.06931572,0.,-0.16114314,-0.02177822,0.,0.01869435,-0.00
 178809,0.,-0.08755229,-0.00305315,0.,-0.00658935,0.00446153,0.,0.01023
 143,-0.11931544,0.,-0.25335148,-0.08460769,0.,1.11364719\\-0.00023498,
 0.,-0.00012600,0.00001109,0.,-0.00000460,-0.00014591,0.,0.00023559,-0.
 00000965,0.,-0.00003632,0.00022232,0.,0.00007634,-0.00006755,0.,0.0000
 2732,0.00004321,0.,-0.00002301,0.00002400,0.,0.00015535,0.00015748,0.,
 -0.00030465\\\@


 THERE ARE TWO THINGS THAT EVERYBODY THINKS THEY CAN DO BETTER THAN
 ANYONE ELSE - PUNCH THE FIRE, AND EDIT A DAILY PAPER.
 -- UNCLE ESEK, "CENTURY MAGAZINE", 1885
 Job cpu time:  0 days  0 hours  8 minutes 56.9 seconds.
 File lengths (MBytes):  RWF=   14 Int=    0 D2E=    0 Chk=    3 Scr=    1
 Normal termination of Gaussian 98.
