 Entering Gaussian System, Link 0=g98
 Initial command:
 /usr/local/apps/g98a6/g98/l1.exe /wrk/rdj3/Gau-15138.inp -scrdir=/wrk/rdj3/
 Entering Link 1 = /usr/local/apps/g98a6/g98/l1.exe PID=     15362.
  
 Copyright (c) 1988,1990,1992,1993,1995,1998 Gaussian, Inc.
                  All Rights Reserved.
  
 This is part of the Gaussian(R) 98 program.  It is based on
 the Gaussian 94(TM) system (copyright 1995 Gaussian, Inc.),
 the Gaussian 92(TM) system (copyright 1992 Gaussian, Inc.),
 the Gaussian 90(TM) system (copyright 1990 Gaussian, Inc.),
 the Gaussian 88(TM) system (copyright 1988 Gaussian, Inc.),
 the Gaussian 86(TM) system (copyright 1986 Carnegie Mellon
 University), and the Gaussian 82(TM) system (copyright 1983
 Carnegie Mellon University). Gaussian is a federally registered
 trademark of Gaussian, Inc.
  
 This software contains proprietary and confidential information,
 including trade secrets, belonging to Gaussian, Inc.
  
 This software is provided under written license and may be
 used, copied, transmitted, or stored only in accord with that
 written license.
  
 The following legend is applicable only to US Government
 contracts under DFARS:
  
                    RESTRICTED RIGHTS LEGEND
  
 Use, duplication or disclosure by the US Government is subject
 to restrictions as set forth in subparagraph (c)(1)(ii) of the
 Rights in Technical Data and Computer Software clause at DFARS
 252.227-7013.
  
 Gaussian, Inc.
 Carnegie Office Park, Building 6, Pittsburgh, PA 15106 USA
  
 The following legend is applicable only to US Government
 contracts under FAR:
  
                    RESTRICTED RIGHTS LEGEND
  
 Use, reproduction and disclosure by the US Government is subject
 to restrictions as set forth in subparagraph (c) of the
 Commercial Computer Software - Restricted Rights clause at FAR
 52.227-19.
  
 Gaussian, Inc.
 Carnegie Office Park, Building 6, Pittsburgh, PA 15106 USA
  
  
 ---------------------------------------------------------------
 Warning -- This program may not be used in any manner that
 competes with the business of Gaussian, Inc. or will provide
 assistance to any competitor of Gaussian, Inc.  The licensee
 of this program is prohibited from giving any competitor of
 Gaussian, Inc. access to this program.  By using this program,
 the user acknowledges that Gaussian, Inc. is engaged in the
 business of creating and licensing software in the field of
 computational chemistry and represents and warrants to the
 licensee that it is not a competitor of Gaussian, Inc. and that
 it will not use this program in any manner prohibited above.
 ---------------------------------------------------------------
  

 Cite this work as:
 Gaussian 98, Revision A.6,
 M. J. Frisch, G. W. Trucks, H. B. Schlegel, G. E. Scuseria, 
 M. A. Robb, J. R. Cheeseman, V. G. Zakrzewski, J. A. Montgomery, Jr., 
 R. E. Stratmann, J. C. Burant, S. Dapprich, J. M. Millam, 
 A. D. Daniels, K. N. Kudin, M. C. Strain, O. Farkas, J. Tomasi, 
 V. Barone, M. Cossi, R. Cammi, B. Mennucci, C. Pomelli, C. Adamo, 
 S. Clifford, J. Ochterski, G. A. Petersson, P. Y. Ayala, Q. Cui, 
 K. Morokuma, D. K. Malick, A. D. Rabuck, K. Raghavachari, 
 J. B. Foresman, J. Cioslowski, J. V. Ortiz, B. B. Stefanov, G. Liu, 
 A. Liashenko, P. Piskorz, I. Komaromi, R. Gomperts, R. L. Martin, 
 D. J. Fox, T. Keith, M. A. Al-Laham, C. Y. Peng, A. Nanayakkara, 
 C. Gonzalez, M. Challacombe, P. M. W. Gill, B. Johnson, W. Chen, 
 M. W. Wong, J. L. Andres, C. Gonzalez, M. Head-Gordon, 
 E. S. Replogle, and J. A. Pople, 
 Gaussian, Inc., Pittsburgh PA, 1998.

 **********************************************
 Gaussian 98:  IBM-RS6000-G98RevA.6 19-Oct-1998
                  30-Aug-2000 
 **********************************************
 %mem=24000000
 --------------------
 #HF/CEP-31G opt freq
 --------------------
 1/18=20,38=1/1,3;
 2/9=110,17=6,18=5/2;
 3/5=9,6=1,11=9,16=1,25=1,30=1/1,2,3;
 4/11=1/1;
 5/5=2,38=4/2;
 6/7=2,8=2,9=2,10=2,28=1/1;
 7//1,2,3,16;
 1/18=20/3(1);
 99//99;
 2/9=110/2;
 3/5=9,6=1,11=9,16=1,25=1,30=1/1,2,3;
 4/5=5,11=1,16=2/1;
 5/5=2,38=4/2;
 7//1,2,3,16;
 1/18=20/3(-5);
 2/9=110/2;
 6/7=2,8=2,9=2,10=2,19=2,28=1/1;
 99/9=1/99;
 --------------------------------
 1H imidazole C3H4N2 casno=288324
 --------------------------------
 Symbolic Z-matrix:
 Charge =  0 Multiplicity = 1
 N                     0.30938   0.        1.30938 
 H                     0.3125    0.       -1.6875 
 C                    -1.06875   0.       -0.28438 
 H                    -1.91875   0.       -0.79063 
 C                    -0.93438   0.        1.02812 
 H                    -1.675     0.        1.6875 
 H                     1.91875   0.        0.09063 
 C                     0.93438   0.        0.19063 
 N                     0.09688   0.       -0.775 

 GradGradGradGradGradGradGradGradGradGradGradGradGradGradGradGradGradGrad
 Berny optimization.
 Initialization pass.
                         ----------------------------
                         !    Initial Parameters    !
                         ! (Angstroms and Degrees)  !
 ------------------------                            -------------------------
 ! Name  Definition              Value          Derivative Info.             !
 -----------------------------------------------------------------------------
 ! R1    R(1,5)                  1.2752         estimate D2E/DX2             !
 ! R2    R(1,8)                  1.2815         estimate D2E/DX2             !
 ! R3    R(2,9)                  0.9376         estimate D2E/DX2             !
 ! R4    R(3,4)                  0.9893         estimate D2E/DX2             !
 ! R5    R(3,5)                  1.3194         estimate D2E/DX2             !
 ! R6    R(3,9)                  1.2647         estimate D2E/DX2             !
 ! R7    R(5,6)                  0.9916         estimate D2E/DX2             !
 ! R8    R(7,8)                  0.9894         estimate D2E/DX2             !
 ! R9    R(8,9)                  1.2782         estimate D2E/DX2             !
 ! A1    A(5,1,8)              106.4483         estimate D2E/DX2             !
 ! A2    A(4,3,5)              126.6232         estimate D2E/DX2             !
 ! A3    A(4,3,9)              126.3957         estimate D2E/DX2             !
 ! A4    A(5,3,9)              106.9812         estimate D2E/DX2             !
 ! A5    A(1,5,3)              108.5877         estimate D2E/DX2             !
 ! A6    A(1,5,6)              125.5794         estimate D2E/DX2             !
 ! A7    A(3,5,6)              125.8329         estimate D2E/DX2             !
 ! A8    A(1,8,7)              124.9909         estimate D2E/DX2             !
 ! A9    A(1,8,9)              109.8741         estimate D2E/DX2             !
 ! A10   A(7,8,9)              125.1349         estimate D2E/DX2             !
 ! A11   A(2,9,3)              126.122          estimate D2E/DX2             !
 ! A12   A(2,9,8)              125.7693         estimate D2E/DX2             !
 ! A13   A(3,9,8)              108.1088         estimate D2E/DX2             !
 ! D1    D(8,1,5,3)              0.             estimate D2E/DX2             !
 ! D2    D(8,1,5,6)            180.             estimate D2E/DX2             !
 ! D3    D(5,1,8,7)            180.             estimate D2E/DX2             !
 ! D4    D(5,1,8,9)              0.             estimate D2E/DX2             !
 ! D5    D(4,3,5,1)            180.             estimate D2E/DX2             !
 ! D6    D(4,3,5,6)              0.             estimate D2E/DX2             !
 ! D7    D(9,3,5,1)              0.             estimate D2E/DX2             !
 ! D8    D(9,3,5,6)            180.             estimate D2E/DX2             !
 ! D9    D(4,3,9,2)              0.             estimate D2E/DX2             !
 ! D10   D(4,3,9,8)            180.             estimate D2E/DX2             !
 ! D11   D(5,3,9,2)            180.             estimate D2E/DX2             !
 ! D12   D(5,3,9,8)              0.             estimate D2E/DX2             !
 ! D13   D(1,8,9,2)            180.             estimate D2E/DX2             !
 ! D14   D(1,8,9,3)              0.             estimate D2E/DX2             !
 ! D15   D(7,8,9,2)              0.             estimate D2E/DX2             !
 ! D16   D(7,8,9,3)            180.             estimate D2E/DX2             !
 -----------------------------------------------------------------------------
 Trust Radius=3.00D-01 FncErr=1.00D-07 GrdErr=1.00D-07
 Number of steps in this run=  48 maximum allowed number of steps= 100.
 GradGradGradGradGradGradGradGradGradGradGradGradGradGradGradGradGradGrad

                          Input orientation:                          
 ---------------------------------------------------------------------
 Center     Atomic     Atomic              Coordinates (Angstroms)
 Number     Number      Type              X           Y           Z
 ---------------------------------------------------------------------
    1          7             0        0.309375    0.000000    1.309375
    2          1             0        0.312500    0.000000   -1.687500
    3          6             0       -1.068750    0.000000   -0.284375
    4          1             0       -1.918750    0.000000   -0.790625
    5          6             0       -0.934375    0.000000    1.028125
    6          1             0       -1.675000    0.000000    1.687500
    7          1             0        1.918750    0.000000    0.090625
    8          6             0        0.934375    0.000000    0.190625
    9          7             0        0.096875    0.000000   -0.775000
 ---------------------------------------------------------------------
                    Distance matrix (angstroms):
                    1          2          3          4          5
     1  N    0.000000
     2  H    2.996877   0.000000
     3  C    2.106957   1.968911   0.000000
     4  H    3.061787   2.404758   0.989338   0.000000
     5  C    1.275153   2.988196   1.319361   2.068054   0.000000
     6  H    2.020080   3.916731   2.062966   2.490084   0.991615
     7  H    2.018772   2.396199   3.010944   3.937386   3.003203
     8  C    1.281494   1.978404   2.058673   3.017147   2.047836
     9  N    2.095179   0.937630   1.264672   2.015686   2.077194
                    6          7          8          9
     6  H    0.000000
     7  H    3.932563   0.000000
     8  C    3.008234   0.989441   0.000000
     9  N    3.033718   2.017061   1.278217   0.000000
 Stoichiometry    C3H4N2
 Framework group  CS[SG(C3H4N2)]
 Deg. of freedom   15
 Full point group                 CS      NOp   2
 Largest Abelian subgroup         CS      NOp   2
 Largest concise Abelian subgroup C1      NOp   1
                         Standard orientation:                         
 ---------------------------------------------------------------------
 Center     Atomic     Atomic              Coordinates (Angstroms)
 Number     Number      Type              X           Y           Z
 ---------------------------------------------------------------------
    1          7             0       -0.674969   -0.941702    0.000000
    2          1             0       -0.005288    1.979393    0.000000
    3          6             0        1.025744    0.302019    0.000000
    4          1             0        1.967693    0.604544    0.000000
    5          6             0        0.600174   -0.946822    0.000000
    6          1             0        1.173884   -1.755622    0.000000
    7          1             0       -1.969692    0.607211    0.000000
    8          6             0       -1.032886    0.288794    0.000000
    9          7             0        0.000000    1.041778    0.000000
 ---------------------------------------------------------------------
 Rotational constants (GHZ):     11.1543393     10.4769603      5.4025219
 Isotopes: N-14,H-1,C-12,H-1,C-12,H-1,H-1,C-12,N-14
 Standard basis: CEP-31G (6D, 10F)
 There are    38 symmetry adapted basis functions of A'  symmetry.
 There are    10 symmetry adapted basis functions of A"  symmetry.
 Crude estimate of integral set expansion from redundant integrals=1.000.
 Integral buffers will be    262144 words long.
 Raffenetti 1 integral format.
 Two-electron integral symmetry is turned on.
    48 basis functions       96 primitive gaussians
    13 alpha electrons       13 beta electrons
       nuclear repulsion energy        90.1770288692 Hartrees.
 One-electron integrals computed using PRISM.
   1 Symmetry operations used in ECPInt.
 ECPInt:  NShTT=     171 NPrTT=     693 LenC2=     172 LenP2D=     644.
 LDataN:  DoStor=F MaxTD1= 2 Len=   12
 LDataN:  DoStor=T MaxTD1= 2 Len=   12
 NBasis=    48 RedAO= T  NBF=    38    10
 NBsUse=    48 1.00D-04 NBFU=    38    10
 Projected Huckel Guess.
 Initial guess orbital symmetries:
       Occupied  (A') (A') (A') (A') (A') (A') (A") (A') (A') (A')
                 (A") (A') (A")
       Virtual   (A") (A") (A') (A') (A') (A') (A') (A') (A') (A')
                 (A') (A') (A') (A') (A') (A') (A') (A') (A') (A')
                 (A') (A') (A') (A') (A') (A') (A') (A') (A') (A')
                 (A") (A") (A") (A") (A")
 Requested convergence on RMS density matrix=1.00D-08 within  64 cycles.
 Requested convergence on MAX density matrix=1.00D-06.
 Keep R1 integrals in memory in canonical form, NReq=     1104320.
 SCF Done:  E(RHF) =  -37.9524616011     A.U. after   13 cycles
             Convg  =    0.8507D-08             -V/T =  2.2138
             S**2   =   0.0000

 **********************************************************************

            Population analysis using the SCF density.

 **********************************************************************

 Orbital Symmetries:
       Occupied  (A') (A') (A') (A') (A') (A') (A") (A') (A') (A')
                 (A") (A') (A")
       Virtual   (A") (A') (A") (A') (A') (A') (A') (A') (A') (A')
                 (A') (A") (A") (A') (A') (A") (A') (A') (A") (A')
                 (A") (A') (A') (A') (A') (A') (A') (A') (A') (A')
                 (A') (A') (A') (A') (A')
  The electronic state is 1-A'.
 Alpha  occ. eigenvalues --   -1.45345  -1.23603  -1.05960  -0.88258  -0.84206
 Alpha  occ. eigenvalues --   -0.81020  -0.65249  -0.64718  -0.62182  -0.60036
 Alpha  occ. eigenvalues --   -0.41931  -0.41055  -0.32554
 Alpha virt. eigenvalues --    0.18594   0.21557   0.24127   0.25822   0.27588
 Alpha virt. eigenvalues --    0.30436   0.32802   0.38109   0.39068   0.42881
 Alpha virt. eigenvalues --    0.46264   0.46361   0.50685   0.53083   0.57132
 Alpha virt. eigenvalues --    0.57782   0.69435   0.73856   0.77373   0.84416
 Alpha virt. eigenvalues --    0.87879   0.91265   0.93691   1.02784   1.08061
 Alpha virt. eigenvalues --    1.16609   1.37420   1.53145   1.58813   1.72031
 Alpha virt. eigenvalues --    2.02218   3.21514   4.01561   5.18943   5.82230
          Condensed to atoms (all electrons):
              1          2          3          4          5          6
  1  N    3.984868   0.009909  -0.175567   0.002702   0.534706  -0.018469
  2  H    0.009909   0.393916  -0.045915  -0.001789   0.013809   0.000087
  3  C   -0.175567  -0.045915   3.836305   0.316708   0.316822  -0.061574
  4  H    0.002702  -0.001789   0.316708   0.376352   0.019552   0.001402
  5  C    0.534706   0.013809   0.316822   0.019552   3.458698   0.375233
  6  H   -0.018469   0.000087  -0.061574   0.001402   0.375233   0.385435
  7  H   -0.035447   0.000885  -0.007772  -0.000074   0.015446   0.000076
  8  C    0.535609  -0.025379  -0.095336   0.004200  -0.104444   0.012617
  9  N   -0.084060   0.273328   0.429959  -0.022241  -0.192195   0.003862
              7          8          9
  1  N   -0.035447   0.535609  -0.084060
  2  H    0.000885  -0.025379   0.273328
  3  C   -0.007772  -0.095336   0.429959
  4  H   -0.000074   0.004200  -0.022241
  5  C    0.015446  -0.104444  -0.192195
  6  H    0.000076   0.012617   0.003862
  7  H    0.412150   0.383068  -0.061499
  8  C    0.383068   3.678933   0.339928
  9  N   -0.061499   0.339928   4.157051
 Total atomic charges:
              1
  1  N    0.245749
  2  H    0.381148
  3  C   -0.513631
  4  H    0.303189
  5  C   -0.437626
  6  H    0.301332
  7  H    0.293167
  8  C   -0.729194
  9  N    0.155867
 Sum of Mulliken charges=   0.00000
 Atomic charges with hydrogens summed into heavy atoms:
              1
  1  N    0.245749
  2  H    0.000000
  3  C   -0.210442
  4  H    0.000000
  5  C   -0.136295
  6  H    0.000000
  7  H    0.000000
  8  C   -0.436027
  9  N    0.537015
 Sum of Mulliken charges=   0.00000
 Electronic spatial extent (au):  <R**2>=   217.4228
 Charge=     0.0000 electrons
 Dipole moment (Debye):
    X=     1.4563    Y=     4.3798    Z=     0.0000  Tot=     4.6156
 Quadrupole moment (Debye-Ang):
   XX=   -27.2357   YY=   -26.3745   ZZ=   -31.3161
   XY=    -4.0565   XZ=     0.0000   YZ=     0.0000
 Octapole moment (Debye-Ang**2):
  XXX=     1.2729  YYY=    17.8031  ZZZ=     0.0000  XYY=     6.3398
  XXY=     6.5457  XXZ=     0.0000  XZZ=    -0.7499  YZZ=     1.5958
  YYZ=     0.0000  XYZ=     0.0000
 Hexadecapole moment (Debye-Ang**3):
 XXXX=  -137.9506 YYYY=  -129.7191 ZZZZ=   -34.1171 XXXY=    -5.0797
 XXXZ=     0.0000 YYYX=   -10.1050 YYYZ=     0.0000 ZZZX=     0.0000
 ZZZY=     0.0000 XXYY=   -52.3300 XXZZ=   -35.6253 YYZZ=   -33.3166
 XXYZ=     0.0000 YYXZ=     0.0000 ZZXY=     0.3237
 N-N= 9.017702886917D+01 E-N=-2.676028772184D+02  KE= 3.126623354082D+01
 Symmetry A'   KE= 2.340035882906D+01
 Symmetry A"   KE= 7.865874711754D+00
   2 Symmetry operations used in ECPInt.
 ECPInt:  NShTT=     171 NPrTT=     693 LenC2=     172 LenP2D=     644.
 LDataN:  DoStor=F MaxTD1= 3 Len=   28
 LDataN:  DoStor=T MaxTD1= 3 Len=   28
 ***** Axes restored to original set *****
 -------------------------------------------------------------------
 Center     Atomic                   Forces (Hartrees/Bohr)
 Number     Number              X              Y              Z
 -------------------------------------------------------------------
    1          7           0.104019843    0.000000000    0.098530892
    2          1           0.016618136    0.000000000   -0.069723549
    3          6          -0.107862116    0.000000000   -0.000687637
    4          1          -0.066055583    0.000000000   -0.048117149
    5          6          -0.063823400    0.000000000    0.013986189
    6          1          -0.054802478    0.000000000    0.056155551
    7          1           0.081750741    0.000000000   -0.009676790
    8          6           0.043503469    0.000000000    0.048200450
    9          7           0.046651389    0.000000000   -0.088667957
 -------------------------------------------------------------------
 Cartesian Forces:  Max     0.107862116 RMS     0.052857644

 GradGradGradGradGradGradGradGradGradGradGradGradGradGradGradGradGradGrad
 Berny optimization.
 Internal  Forces:  Max     0.159197474 RMS     0.053141124
 Search for a local minimum.
 Step number   1 out of a maximum of  48
 All quantities printed in internal units (Hartrees-Bohrs-Radians)
 Second derivative matrix not updated -- first step.
     Eigenvalues ---    0.03211   0.03261   0.03288   0.03318   0.03352
     Eigenvalues ---    0.03407   0.16000   0.16000   0.16000   0.16000
     Eigenvalues ---    0.22000   0.22917   0.49193   0.49594   0.49613
     Eigenvalues ---    0.54578   0.60577   0.63413   0.68379   0.73836
     Eigenvalues ---    0.765081000.000001000.000001000.000001000.00000
     Eigenvalues --- 1000.000001000.000001000.000001000.000001000.00000
     Eigenvalues --- 1000.000001000.000001000.000001000.000001000.00000
     Eigenvalues --- 1000.000001000.000001000.00000
 RFO step:  Lambda=-1.34239546D-01.
 Linear search not attempted -- first point.
 Maximum step size (   0.300) exceeded in Quadratic search.
    -- Step size scaled by   0.722
 Iteration  1 RMS(Cart)=  0.06684736 RMS(Int)=  0.00034131
 Iteration  2 RMS(Cart)=  0.00038795 RMS(Int)=  0.00013448
 Iteration  3 RMS(Cart)=  0.00000017 RMS(Int)=  0.00013448
 Variable       Old X    -DE/DX   Delta X   Delta X   Delta X     New X
                                 (Linear)    (Quad)   (Total)
    R1        2.40969   0.14718   0.00000   0.11866   0.11859   2.52828
    R2        2.42167   0.07530   0.00000   0.06086   0.06061   2.48229
    R3        1.77186   0.07168   0.00000   0.06994   0.06994   1.84180
    R4        1.86958   0.08137   0.00000   0.09321   0.09321   1.96278
    R5        2.49323   0.10624   0.00000   0.10277   0.10298   2.59621
    R6        2.38988   0.15920   0.00000   0.12829   0.12847   2.51836
    R7        1.87388   0.07827   0.00000   0.09025   0.09025   1.96414
    R8        1.86977   0.08231   0.00000   0.09431   0.09431   1.96408
    R9        2.41548   0.13416   0.00000   0.11191   0.11182   2.52729
    A1        1.85787   0.00909   0.00000   0.00533   0.00495   1.86283
    A2        2.20999   0.01518   0.00000   0.02936   0.02917   2.23916
    A3        2.20602   0.00109   0.00000  -0.00522  -0.00542   2.20060
    A4        1.86717  -0.01627   0.00000  -0.02414  -0.02375   1.84342
    A5        1.89521   0.00540   0.00000   0.00957   0.00972   1.90493
    A6        2.19177  -0.00785   0.00000  -0.01743  -0.01751   2.17427
    A7        2.19620   0.00246   0.00000   0.00786   0.00779   2.20398
    A8        2.18150   0.00006   0.00000   0.00192   0.00205   2.18356
    A9        1.91767   0.00243   0.00000   0.00243   0.00216   1.91982
   A10        2.18402  -0.00249   0.00000  -0.00434  -0.00421   2.17981
   A11        2.20124   0.00044   0.00000  -0.00310  -0.00316   2.19808
   A12        2.19509   0.00020   0.00000  -0.00370  -0.00376   2.19133
   A13        1.88685  -0.00064   0.00000   0.00680   0.00692   1.89377
    D1        0.00000   0.00000   0.00000   0.00000   0.00000   0.00000
    D2        3.14159   0.00000   0.00000   0.00000   0.00000   3.14159
    D3        3.14159   0.00000   0.00000   0.00000   0.00000   3.14159
    D4        0.00000   0.00000   0.00000   0.00000   0.00000   0.00000
    D5        3.14159   0.00000   0.00000   0.00000   0.00000   3.14159
    D6        0.00000   0.00000   0.00000   0.00000   0.00000   0.00000
    D7        0.00000   0.00000   0.00000   0.00000   0.00000   0.00000
    D8        3.14159   0.00000   0.00000   0.00000   0.00000   3.14159
    D9        0.00000   0.00000   0.00000   0.00000   0.00000   0.00000
   D10        3.14159   0.00000   0.00000   0.00000   0.00000   3.14159
   D11        3.14159   0.00000   0.00000   0.00000   0.00000   3.14159
   D12        0.00000   0.00000   0.00000   0.00000   0.00000   0.00000
   D13        3.14159   0.00000   0.00000   0.00000   0.00000   3.14159
   D14        0.00000   0.00000   0.00000   0.00000   0.00000   0.00000
   D15        0.00000   0.00000   0.00000   0.00000   0.00000   0.00000
   D16        3.14159   0.00000   0.00000   0.00000   0.00000   3.14159
         Item               Value     Threshold  Converged?
 Maximum Force            0.159197     0.000450     NO 
 RMS     Force            0.053141     0.000300     NO 
 Maximum Displacement     0.186668     0.001800     NO 
 RMS     Displacement     0.066825     0.001200     NO 
 Predicted change in Energy=-2.895565D-02
 GradGradGradGradGradGradGradGradGradGradGradGradGradGradGradGradGradGrad

                          Input orientation:                          
 ---------------------------------------------------------------------
 Center     Atomic     Atomic              Coordinates (Angstroms)
 Number     Number      Type              X           Y           Z
 ---------------------------------------------------------------------
    1          7             0        0.479452    0.000000    1.110530
    2          1             0        0.477255    0.000000   -1.995609
    3          6             0       -0.986120    0.000000   -0.543314
    4          1             0       -1.870435    0.000000   -1.088110
    5          6             0       -0.826815    0.000000    0.821272
    6          1             0       -1.587737    0.000000    1.529298
    7          1             0        2.154509    0.000000   -0.142578
    8          6             0        1.120651    0.000000   -0.035912
    9          7             0        0.247052    0.000000   -1.048547
 ---------------------------------------------------------------------
                    Distance matrix (angstroms):
                    1          2          3          4          5
     1  N    0.000000
     2  H    3.106139   0.000000
     3  C    2.209774   2.061705   0.000000
     4  H    3.218072   2.516983   1.038661   0.000000
     5  C    1.337910   3.104097   1.373853   2.175978   0.000000
     6  H    2.109179   4.085237   2.158162   2.632630   1.039376
     7  H    2.091913   2.499380   3.166092   4.134514   3.133258
     8  C    1.313570   2.062612   2.167012   3.170759   2.127766
     9  N    2.171548   0.974638   1.332657   2.117857   2.156250
                    6          7          8          9
     6  H    0.000000
     7  H    4.098729   0.000000
     8  C    3.128138   1.039347   0.000000
     9  N    3.164132   2.111675   1.337387   0.000000
 Stoichiometry    C3H4N2
 Framework group  CS[SG(C3H4N2)]
 Deg. of freedom   15
 Full point group                 CS      NOp   2
 Largest Abelian subgroup         CS      NOp   2
 Largest concise Abelian subgroup C1      NOp   1
                         Standard orientation:                         
 ---------------------------------------------------------------------
 Center     Atomic     Atomic              Coordinates (Angstroms)
 Number     Number      Type              X           Y           Z
 ---------------------------------------------------------------------
    1          7             0       -0.725814   -0.985407    0.000000
    2          1             0       -0.004752    2.035879    0.000000
    3          6             0        1.082749    0.284317    0.000000
    4          1             0        2.069146    0.609642    0.000000
    5          6             0        0.611933   -1.006343    0.000000
    6          1             0        1.188317   -1.871261    0.000000
    7          1             0       -2.065351    0.621371    0.000000
    8          6             0       -1.084254    0.278312    0.000000
    9          7             0        0.000000    1.061252    0.000000
 ---------------------------------------------------------------------
 Rotational constants (GHZ):     10.1131288      9.7485388      4.9637438
 Isotopes: N-14,H-1,C-12,H-1,C-12,H-1,H-1,C-12,N-14
 Standard basis: CEP-31G (6D, 10F)
 There are    38 symmetry adapted basis functions of A'  symmetry.
 There are    10 symmetry adapted basis functions of A"  symmetry.
 Crude estimate of integral set expansion from redundant integrals=1.000.
 Integral buffers will be    262144 words long.
 Raffenetti 1 integral format.
 Two-electron integral symmetry is turned on.
    48 basis functions       96 primitive gaussians
    13 alpha electrons       13 beta electrons
       nuclear repulsion energy        86.4058805844 Hartrees.
 One-electron integrals computed using PRISM.
   1 Symmetry operations used in ECPInt.
 ECPInt:  NShTT=     171 NPrTT=     693 LenC2=     172 LenP2D=     644.
 LDataN:  DoStor=F MaxTD1= 2 Len=   12
 LDataN:  DoStor=T MaxTD1= 2 Len=   12
 NBasis=    48 RedAO= T  NBF=    38    10
 NBsUse=    48 1.00D-04 NBFU=    38    10
 Initial guess read from the read-write file:
 Initial guess orbital symmetries:
       Occupied  (A') (A') (A') (A') (A') (A') (A") (A') (A') (A')
                 (A") (A') (A")
       Virtual   (A") (A') (A") (A') (A') (A') (A') (A') (A') (A')
                 (A') (A") (A") (A') (A') (A") (A') (A') (A") (A')
                 (A") (A') (A') (A') (A') (A') (A') (A') (A') (A')
                 (A') (A') (A') (A') (A')
 Requested convergence on RMS density matrix=1.00D-08 within  64 cycles.
 Requested convergence on MAX density matrix=1.00D-06.
 Keep R1 integrals in memory in canonical form, NReq=     1104320.
 SCF Done:  E(RHF) =  -38.0149533513     A.U. after   13 cycles
             Convg  =    0.8402D-08             -V/T =  2.2593
             S**2   =   0.0000
   2 Symmetry operations used in ECPInt.
 ECPInt:  NShTT=     171 NPrTT=     693 LenC2=     172 LenP2D=     644.
 LDataN:  DoStor=F MaxTD1= 3 Len=   28
 LDataN:  DoStor=T MaxTD1= 3 Len=   28
 ***** Axes restored to original set *****
 -------------------------------------------------------------------
 Center     Atomic                   Forces (Hartrees/Bohr)
 Number     Number              X              Y              Z
 -------------------------------------------------------------------
    1          7           0.043401956    0.000000000    0.030968537
    2          1           0.005487795    0.000000000   -0.022801491
    3          6          -0.038665753    0.000000000    0.020875969
    4          1          -0.019982346    0.000000000   -0.019503148
    5          6          -0.026170034    0.000000000   -0.013912983
    6          1          -0.016372394    0.000000000    0.021527710
    7          1           0.026941238    0.000000000   -0.004467553
    8          6           0.003363540    0.000000000    0.025205067
    9          7           0.021995998    0.000000000   -0.037892108
 -------------------------------------------------------------------
 Cartesian Forces:  Max     0.043401956 RMS     0.020207526

 GradGradGradGradGradGradGradGradGradGradGradGradGradGradGradGradGradGrad
 Berny optimization.
 Internal  Forces:  Max     0.056461302 RMS     0.017452824
 Search for a local minimum.
 Step number   2 out of a maximum of  48
 All quantities printed in internal units (Hartrees-Bohrs-Radians)
 Update second derivatives using information from points  1  2
 Trust test= 2.16D+00 RLast= 3.00D-01 DXMaxT set to 4.24D-01
     Eigenvalues ---    0.03210   0.03262   0.03288   0.03315   0.03351
     Eigenvalues ---    0.03406   0.15940   0.16000   0.16000   0.16001
     Eigenvalues ---    0.22090   0.22873   0.49288   0.49604   0.50815
     Eigenvalues ---    0.56182   0.60944   0.63994   0.70284   0.74364
     Eigenvalues ---    0.800941000.000001000.000001000.000001000.00000
     Eigenvalues --- 1000.000001000.000001000.000001000.000001000.00000
     Eigenvalues --- 1000.000001000.000001000.000001000.000001000.00000
     Eigenvalues --- 1000.000001000.000001000.00000
 RFO step:  Lambda=-2.61043288D-03.
 Quartic linear search produced a step of  0.62126.
 Iteration  1 RMS(Cart)=  0.04397155 RMS(Int)=  0.00074198
 Iteration  2 RMS(Cart)=  0.00085652 RMS(Int)=  0.00010984
 Iteration  3 RMS(Cart)=  0.00000090 RMS(Int)=  0.00010984
 Variable       Old X    -DE/DX   Delta X   Delta X   Delta X     New X
                                 (Linear)    (Quad)   (Total)
    R1        2.52828   0.05213   0.07368   0.00890   0.08244   2.61072
    R2        2.48229   0.01709   0.03766  -0.01632   0.02117   2.50345
    R3        1.84180   0.02345   0.04345   0.00267   0.04612   1.88792
    R4        1.96278   0.02724   0.05791   0.00852   0.06642   2.02921
    R5        2.59621   0.02344   0.06398  -0.02618   0.03787   2.63408
    R6        2.51836   0.05646   0.07982   0.01068   0.09069   2.60904
    R7        1.96414   0.02665   0.05607   0.00985   0.06592   2.03006
    R8        1.96408   0.02726   0.05859   0.00765   0.06624   2.03032
    R9        2.52729   0.04317   0.06947   0.00061   0.07010   2.59740
    A1        1.86283   0.00013   0.00308  -0.02277  -0.02008   1.84275
    A2        2.23916   0.00784   0.01812   0.04093   0.05891   2.29807
    A3        2.20060  -0.00418  -0.00337  -0.04792  -0.05142   2.14918
    A4        1.84342  -0.00366  -0.01476   0.00699  -0.00748   1.83594
    A5        1.90493   0.00369   0.00604   0.01284   0.01885   1.92379
    A6        2.17427  -0.00637  -0.01088  -0.04020  -0.05106   2.12320
    A7        2.20398   0.00268   0.00484   0.02736   0.03221   2.23619
    A8        2.18356  -0.00055   0.00128  -0.00033   0.00099   2.18455
    A9        1.91982   0.00440   0.00134   0.02792   0.02917   1.94899
   A10        2.17981  -0.00385  -0.00262  -0.02760  -0.03016   2.14965
   A11        2.19808   0.00223  -0.00196   0.01174   0.00966   2.20774
   A12        2.19133   0.00233  -0.00234   0.01325   0.01080   2.20212
   A13        1.89377  -0.00456   0.00430  -0.02499  -0.02046   1.87332
    D1        0.00000   0.00000   0.00000   0.00000   0.00000   0.00000
    D2        3.14159   0.00000   0.00000   0.00000   0.00000   3.14159
    D3        3.14159   0.00000   0.00000   0.00000   0.00000   3.14159
    D4        0.00000   0.00000   0.00000   0.00000   0.00000   0.00000
    D5        3.14159   0.00000   0.00000   0.00000   0.00000   3.14159
    D6        0.00000   0.00000   0.00000   0.00000   0.00000   0.00000
    D7        0.00000   0.00000   0.00000   0.00000   0.00000   0.00000
    D8        3.14159   0.00000   0.00000   0.00000   0.00000   3.14159
    D9        0.00000   0.00000   0.00000   0.00000   0.00000   0.00000
   D10        3.14159   0.00000   0.00000   0.00000   0.00000   3.14159
   D11        3.14159   0.00000   0.00000   0.00000   0.00000   3.14159
   D12        0.00000   0.00000   0.00000   0.00000   0.00000   0.00000
   D13        3.14159   0.00000   0.00000   0.00000   0.00000   3.14159
   D14        0.00000   0.00000   0.00000   0.00000   0.00000   0.00000
   D15        0.00000   0.00000   0.00000   0.00000   0.00000   0.00000
   D16        3.14159   0.00000   0.00000   0.00000   0.00000   3.14159
         Item               Value     Threshold  Converged?
 Maximum Force            0.056461     0.000450     NO 
 RMS     Force            0.017453     0.000300     NO 
 Maximum Displacement     0.136781     0.001800     NO 
 RMS     Displacement     0.043860     0.001200     NO 
 Predicted change in Energy=-1.393996D-02
 GradGradGradGradGradGradGradGradGradGradGradGradGradGradGradGradGradGrad

                          Input orientation:                          
 ---------------------------------------------------------------------
 Center     Atomic     Atomic              Coordinates (Angstroms)
 Number     Number      Type              X           Y           Z
 ---------------------------------------------------------------------
    1          7             0        0.499636    0.000000    1.161864
    2          1             0        0.493786    0.000000   -2.027264
    3          6             0       -1.023783    0.000000   -0.529951
    4          1             0       -1.910039    0.000000   -1.136266
    5          6             0       -0.846853    0.000000    0.852669
    6          1             0       -1.600924    0.000000    1.617791
    7          1             0        2.199220    0.000000   -0.126656
    8          6             0        1.132051    0.000000   -0.002211
    9          7             0        0.251917    0.000000   -1.057942
 ---------------------------------------------------------------------
                    Distance matrix (angstroms):
                    1          2          3          4          5
     1  N    0.000000
     2  H    3.189134   0.000000
     3  C    2.276630   2.131892   0.000000
     4  H    3.329855   2.563640   1.073810   0.000000
     5  C    1.381533   3.176685   1.393895   2.255267   0.000000
     6  H    2.149470   4.204074   2.223935   2.771350   1.074260
     7  H    2.132808   2.553589   3.248137   4.231468   3.199631
     8  C    1.324771   2.123258   2.219489   3.246597   2.155662
     9  N    2.233586   0.999042   1.380647   2.163374   2.204027
                    6          7          8          9
     6  H    0.000000
     7  H    4.181410   0.000000
     8  C    3.177036   1.074401   0.000000
     9  N    3.254623   2.158537   1.374483   0.000000
 Stoichiometry    C3H4N2
 Framework group  CS[SG(C3H4N2)]
 Deg. of freedom   15
 Full point group                 CS      NOp   2
 Largest Abelian subgroup         CS      NOp   2
 Largest concise Abelian subgroup C1      NOp   1
                         Standard orientation:                         
 ---------------------------------------------------------------------
 Center     Atomic     Atomic              Coordinates (Angstroms)
 Number     Number      Type              X           Y           Z
 ---------------------------------------------------------------------
    1          7             0       -0.754015   -1.009980    0.000000
    2          1             0       -0.011309    2.091466    0.000000
    3          6             0        1.119147    0.283972    0.000000
    4          1             0        2.121532    0.669059    0.000000
    5          6             0        0.627480   -1.020331    0.000000
    6          1             0        1.184317   -1.939008    0.000000
    7          1             0       -2.109811    0.636437    0.000000
    8          6             0       -1.100290    0.268736    0.000000
    9          7             0        0.000000    1.092487    0.000000
 ---------------------------------------------------------------------
 Rotational constants (GHZ):      9.6764732      9.2451869      4.7279574
 Isotopes: N-14,H-1,C-12,H-1,C-12,H-1,H-1,C-12,N-14
 Standard basis: CEP-31G (6D, 10F)
 There are    38 symmetry adapted basis functions of A'  symmetry.
 There are    10 symmetry adapted basis functions of A"  symmetry.
 Crude estimate of integral set expansion from redundant integrals=1.000.
 Integral buffers will be    262144 words long.
 Raffenetti 1 integral format.
 Two-electron integral symmetry is turned on.
    48 basis functions       96 primitive gaussians
    13 alpha electrons       13 beta electrons
       nuclear repulsion energy        84.2833910878 Hartrees.
 One-electron integrals computed using PRISM.
   1 Symmetry operations used in ECPInt.
 ECPInt:  NShTT=     171 NPrTT=     693 LenC2=     172 LenP2D=     644.
 LDataN:  DoStor=F MaxTD1= 2 Len=   12
 LDataN:  DoStor=T MaxTD1= 2 Len=   12
 NBasis=    48 RedAO= T  NBF=    38    10
 NBsUse=    48 1.00D-04 NBFU=    38    10
 Initial guess read from the read-write file:
 Initial guess orbital symmetries:
       Occupied  (A') (A') (A') (A') (A') (A') (A') (A") (A') (A')
                 (A') (A") (A")
       Virtual   (A") (A') (A") (A') (A') (A') (A') (A') (A') (A')
                 (A') (A") (A") (A') (A') (A") (A') (A') (A") (A')
                 (A') (A") (A') (A') (A') (A') (A') (A') (A') (A')
                 (A') (A') (A') (A') (A')
 Requested convergence on RMS density matrix=1.00D-08 within  64 cycles.
 Requested convergence on MAX density matrix=1.00D-06.
 Keep R1 integrals in memory in canonical form, NReq=     1104320.
 SCF Done:  E(RHF) =  -38.0254726310     A.U. after   13 cycles
             Convg  =    0.8393D-08             -V/T =  2.2851
             S**2   =   0.0000
   2 Symmetry operations used in ECPInt.
 ECPInt:  NShTT=     171 NPrTT=     693 LenC2=     172 LenP2D=     644.
 LDataN:  DoStor=F MaxTD1= 3 Len=   28
 LDataN:  DoStor=T MaxTD1= 3 Len=   28
 ***** Axes restored to original set *****
 -------------------------------------------------------------------
 Center     Atomic                   Forces (Hartrees/Bohr)
 Number     Number              X              Y              Z
 -------------------------------------------------------------------
    1          7           0.009850311    0.000000000   -0.008308542
    2          1          -0.000690395    0.000000000    0.003426422
    3          6          -0.010178860    0.000000000    0.011129091
    4          1           0.002728177    0.000000000    0.002167697
    5          6          -0.015870129    0.000000000   -0.006224628
    6          1           0.002293666    0.000000000   -0.002633403
    7          1          -0.002777031    0.000000000    0.000142819
    8          6           0.005844777    0.000000000    0.005071182
    9          7           0.008799483    0.000000000   -0.004770638
 -------------------------------------------------------------------
 Cartesian Forces:  Max     0.015870129 RMS     0.005736460

 GradGradGradGradGradGradGradGradGradGradGradGradGradGradGradGradGradGrad
 Berny optimization.
 Internal  Forces:  Max     0.010741093 RMS     0.003489383
 Search for a local minimum.
 Step number   3 out of a maximum of  48
 All quantities printed in internal units (Hartrees-Bohrs-Radians)
 Update second derivatives using information from points  1  2  3
 Trust test= 7.55D-01 RLast= 2.24D-01 DXMaxT set to 6.00D-01
     Eigenvalues ---    0.03205   0.03262   0.03287   0.03306   0.03349
     Eigenvalues ---    0.03405   0.15673   0.16000   0.16000   0.16002
     Eigenvalues ---    0.22151   0.23534   0.46844   0.49331   0.49611
     Eigenvalues ---    0.56534   0.58507   0.62395   0.65010   0.74674
     Eigenvalues ---    0.768531000.000001000.000001000.000001000.00000
     Eigenvalues --- 1000.000001000.000001000.000001000.000001000.00000
     Eigenvalues --- 1000.000001000.000001000.000001000.000001000.00000
     Eigenvalues --- 1000.000001000.000001000.00000
 RFO step:  Lambda=-8.42754033D-04.
 Quartic linear search produced a step of  0.00377.
 Iteration  1 RMS(Cart)=  0.00759849 RMS(Int)=  0.00003006
 Iteration  2 RMS(Cart)=  0.00002739 RMS(Int)=  0.00000699
 Iteration  3 RMS(Cart)=  0.00000000 RMS(Int)=  0.00000699
 Variable       Old X    -DE/DX   Delta X   Delta X   Delta X     New X
                                 (Linear)    (Quad)   (Total)
    R1        2.61072   0.01027   0.00031   0.01666   0.01699   2.62771
    R2        2.50345  -0.00589   0.00008  -0.00734  -0.00726   2.49620
    R3        1.88792  -0.00349   0.00017  -0.00403  -0.00386   1.88406
    R4        2.02921  -0.00348   0.00025  -0.00456  -0.00431   2.02490
    R5        2.63408  -0.01022   0.00014  -0.01449  -0.01434   2.61974
    R6        2.60904   0.01074   0.00034   0.01738   0.01771   2.62676
    R7        2.03006  -0.00349   0.00025  -0.00468  -0.00443   2.02563
    R8        2.03032  -0.00277   0.00025  -0.00314  -0.00289   2.02743
    R9        2.59740  -0.00017   0.00026   0.00247   0.00272   2.60012
    A1        1.84275   0.00494  -0.00008   0.01830   0.01824   1.86099
    A2        2.29807  -0.00025   0.00022  -0.00077  -0.00055   2.29752
    A3        2.14918   0.00025  -0.00019  -0.00072  -0.00091   2.14827
    A4        1.83594   0.00000  -0.00003   0.00149   0.00146   1.83740
    A5        1.92379  -0.00261   0.00007  -0.01085  -0.01076   1.91302
    A6        2.12320   0.00153  -0.00019   0.00562   0.00542   2.12863
    A7        2.23619   0.00109   0.00012   0.00523   0.00534   2.24153
    A8        2.18455   0.00203   0.00000   0.00966   0.00967   2.19422
    A9        1.94899  -0.00370   0.00011  -0.01621  -0.01611   1.93288
   A10        2.14965   0.00167  -0.00011   0.00655   0.00644   2.15609
   A11        2.20774  -0.00053   0.00004  -0.00271  -0.00266   2.20508
   A12        2.20212  -0.00084   0.00004  -0.00456  -0.00451   2.19761
   A13        1.87332   0.00137  -0.00008   0.00727   0.00717   1.88049
    D1        0.00000   0.00000   0.00000   0.00000   0.00000   0.00000
    D2        3.14159   0.00000   0.00000   0.00000   0.00000   3.14159
    D3        3.14159   0.00000   0.00000   0.00000   0.00000   3.14159
    D4        0.00000   0.00000   0.00000   0.00000   0.00000   0.00000
    D5        3.14159   0.00000   0.00000   0.00000   0.00000   3.14159
    D6        0.00000   0.00000   0.00000   0.00000   0.00000   0.00000
    D7        0.00000   0.00000   0.00000   0.00000   0.00000   0.00000
    D8        3.14159   0.00000   0.00000   0.00000   0.00000   3.14159
    D9        0.00000   0.00000   0.00000   0.00000   0.00000   0.00000
   D10        3.14159   0.00000   0.00000   0.00000   0.00000   3.14159
   D11        3.14159   0.00000   0.00000   0.00000   0.00000   3.14159
   D12        0.00000   0.00000   0.00000   0.00000   0.00000   0.00000
   D13        3.14159   0.00000   0.00000   0.00000   0.00000   3.14159
   D14        0.00000   0.00000   0.00000   0.00000   0.00000   0.00000
   D15        0.00000   0.00000   0.00000   0.00000   0.00000   0.00000
   D16        3.14159   0.00000   0.00000   0.00000   0.00000   3.14159
         Item               Value     Threshold  Converged?
 Maximum Force            0.010741     0.000450     NO 
 RMS     Force            0.003489     0.000300     NO 
 Maximum Displacement     0.021242     0.001800     NO 
 RMS     Displacement     0.007597     0.001200     NO 
 Predicted change in Energy=-4.207113D-04
 GradGradGradGradGradGradGradGradGradGradGradGradGradGradGradGradGradGrad

                          Input orientation:                          
 ---------------------------------------------------------------------
 Center     Atomic     Atomic              Coordinates (Angstroms)
 Number     Number      Type              X           Y           Z
 ---------------------------------------------------------------------
    1          7             0        0.501313    0.000000    1.145653
    2          1             0        0.495416    0.000000   -2.027843
    3          6             0       -1.029156    0.000000   -0.529720
    4          1             0       -1.912409    0.000000   -1.136384
    5          6             0       -0.856493    0.000000    0.845791
    6          1             0       -1.606671    0.000000    1.611452
    7          1             0        2.209006    0.000000   -0.132807
    8          6             0        1.143330    0.000000   -0.008760
    9          7             0        0.255705    0.000000   -1.060087
 ---------------------------------------------------------------------
                    Distance matrix (angstroms):
                    1          2          3          4          5
     1  N    0.000000
     2  H    3.173501   0.000000
     3  C    2.269187   2.137451   0.000000
     4  H    3.321707   2.567552   1.071530   0.000000
     5  C    1.390522   3.175756   1.386305   2.245880   0.000000
     6  H    2.158834   4.202765   2.217688   2.764792   1.071916
     7  H    2.133231   2.554907   3.262397   4.241842   3.217908
     8  C    1.320930   2.120492   2.234077   3.257158   2.174753
     9  N    2.219371   0.997002   1.390021   2.169456   2.206661
                    6          7          8          9
     6  H    0.000000
     7  H    4.195453   0.000000
     8  C    3.191801   1.072871   0.000000
     9  N    3.256618   2.162228   1.375924   0.000000
 Stoichiometry    C3H4N2
 Framework group  CS[SG(C3H4N2)]
 Deg. of freedom   15
 Full point group                 CS      NOp   2
 Largest Abelian subgroup         CS      NOp   2
 Largest concise Abelian subgroup C1      NOp   1
                         Standard orientation:                         
 ---------------------------------------------------------------------
 Center     Atomic     Atomic              Coordinates (Angstroms)
 Number     Number      Type              X           Y           Z
 ---------------------------------------------------------------------
    1          7             0       -0.756385   -0.997088    0.000000
    2          1             0       -0.005907    2.086399    0.000000
    3          6             0        1.124514    0.272331    0.000000
    4          1             0        2.125471    0.654774    0.000000
    5          6             0        0.633872   -1.024246    0.000000
    6          1             0        1.183417   -1.944574    0.000000
    7          1             0       -2.116363    0.646425    0.000000
    8          6             0       -1.109559    0.275753    0.000000
    9          7             0        0.000000    1.089414    0.000000
 ---------------------------------------------------------------------
 Rotational constants (GHZ):      9.5298190      9.3512506      4.7198452
 Isotopes: N-14,H-1,C-12,H-1,C-12,H-1,H-1,C-12,N-14
 Standard basis: CEP-31G (6D, 10F)
 There are    38 symmetry adapted basis functions of A'  symmetry.
 There are    10 symmetry adapted basis functions of A"  symmetry.
 Crude estimate of integral set expansion from redundant integrals=1.000.
 Integral buffers will be    262144 words long.
 Raffenetti 1 integral format.
 Two-electron integral symmetry is turned on.
    48 basis functions       96 primitive gaussians
    13 alpha electrons       13 beta electrons
       nuclear repulsion energy        84.2228828306 Hartrees.
 One-electron integrals computed using PRISM.
   1 Symmetry operations used in ECPInt.
 ECPInt:  NShTT=     171 NPrTT=     693 LenC2=     172 LenP2D=     644.
 LDataN:  DoStor=F MaxTD1= 2 Len=   12
 LDataN:  DoStor=T MaxTD1= 2 Len=   12
 NBasis=    48 RedAO= T  NBF=    38    10
 NBsUse=    48 1.00D-04 NBFU=    38    10
 Initial guess read from the read-write file:
 Initial guess orbital symmetries:
       Occupied  (A') (A') (A') (A') (A') (A') (A') (A') (A") (A')
                 (A') (A") (A")
       Virtual   (A") (A") (A') (A') (A') (A') (A') (A') (A') (A')
                 (A") (A') (A') (A") (A') (A") (A') (A') (A") (A')
                 (A') (A") (A') (A') (A') (A') (A') (A') (A') (A')
                 (A') (A') (A') (A') (A')
 Requested convergence on RMS density matrix=1.00D-08 within  64 cycles.
 Requested convergence on MAX density matrix=1.00D-06.
 Keep R1 integrals in memory in canonical form, NReq=     1104320.
 SCF Done:  E(RHF) =  -38.0258442046     A.U. after   11 cycles
             Convg  =    0.8014D-08             -V/T =  2.2854
             S**2   =   0.0000
   2 Symmetry operations used in ECPInt.
 ECPInt:  NShTT=     171 NPrTT=     693 LenC2=     172 LenP2D=     644.
 LDataN:  DoStor=F MaxTD1= 3 Len=   28
 LDataN:  DoStor=T MaxTD1= 3 Len=   28
 ***** Axes restored to original set *****
 -------------------------------------------------------------------
 Center     Atomic                   Forces (Hartrees/Bohr)
 Number     Number              X              Y              Z
 -------------------------------------------------------------------
    1          7           0.006529283    0.000000000    0.001923725
    2          1          -0.000891335    0.000000000    0.000979189
    3          6          -0.002024451    0.000000000    0.003482449
    4          1           0.001576366    0.000000000    0.000523514
    5          6          -0.002598890    0.000000000   -0.004510396
    6          1           0.001802281    0.000000000   -0.000919709
    7          1          -0.001771079    0.000000000    0.000231492
    8          6          -0.006182644    0.000000000    0.003955245
    9          7           0.003560468    0.000000000   -0.005665509
 -------------------------------------------------------------------
 Cartesian Forces:  Max     0.006529283 RMS     0.002722313

 GradGradGradGradGradGradGradGradGradGradGradGradGradGradGradGradGradGrad
 Berny optimization.
 Internal  Forces:  Max     0.004145885 RMS     0.001530178
 Search for a local minimum.
 Step number   4 out of a maximum of  48
 All quantities printed in internal units (Hartrees-Bohrs-Radians)
 Update second derivatives using information from points  1  2  3  4
 Trust test= 8.83D-01 RLast= 4.37D-02 DXMaxT set to 6.00D-01
     Eigenvalues ---    0.03204   0.03263   0.03287   0.03306   0.03350
     Eigenvalues ---    0.03405   0.15385   0.15991   0.16000   0.16027
     Eigenvalues ---    0.21972   0.32254   0.47131   0.49441   0.49589
     Eigenvalues ---    0.50717   0.56912   0.60557   0.64539   0.73086
     Eigenvalues ---    0.773901000.000001000.000001000.000001000.00000
     Eigenvalues --- 1000.000001000.000001000.000001000.000001000.00000
     Eigenvalues --- 1000.000001000.000001000.000001000.000001000.00000
     Eigenvalues --- 1000.000001000.000001000.00000
 RFO step:  Lambda=-2.27012615D-04.
 Quartic linear search produced a step of -0.10432.
 Iteration  1 RMS(Cart)=  0.00367053 RMS(Int)=  0.00001141
 Iteration  2 RMS(Cart)=  0.00001113 RMS(Int)=  0.00000638
 Iteration  3 RMS(Cart)=  0.00000000 RMS(Int)=  0.00000638
 Variable       Old X    -DE/DX   Delta X   Delta X   Delta X     New X
                                 (Linear)    (Quad)   (Total)
    R1        2.62771   0.00206  -0.00177   0.00978   0.00800   2.63571
    R2        2.49620  -0.00345   0.00076  -0.00661  -0.00584   2.49035
    R3        1.88406  -0.00116   0.00040  -0.00251  -0.00211   1.88195
    R4        2.02490  -0.00160   0.00045  -0.00356  -0.00311   2.02178
    R5        2.61974  -0.00229   0.00150  -0.00745  -0.00596   2.61378
    R6        2.62676   0.00044  -0.00185   0.00844   0.00660   2.63336
    R7        2.02563  -0.00192   0.00046  -0.00425  -0.00379   2.02184
    R8        2.02743  -0.00179   0.00030  -0.00336  -0.00306   2.02437
    R9        2.60012   0.00049  -0.00028   0.00260   0.00233   2.60245
    A1        1.86099  -0.00349  -0.00190  -0.00720  -0.00911   1.85188
    A2        2.29752   0.00040   0.00006   0.00207   0.00214   2.29966
    A3        2.14827  -0.00054   0.00009  -0.00361  -0.00351   2.14476
    A4        1.83740   0.00014  -0.00015   0.00153   0.00137   1.83877
    A5        1.91302   0.00190   0.00112   0.00364   0.00474   1.91777
    A6        2.12863  -0.00160  -0.00057  -0.00557  -0.00612   2.12250
    A7        2.24153  -0.00030  -0.00056   0.00193   0.00138   2.24291
    A8        2.19422  -0.00210  -0.00101  -0.00443  -0.00545   2.18877
    A9        1.93288   0.00415   0.00168   0.00980   0.01149   1.94437
   A10        2.15609  -0.00205  -0.00067  -0.00536  -0.00604   2.15004
   A11        2.20508   0.00076   0.00028   0.00091   0.00119   2.20627
   A12        2.19761   0.00194   0.00047   0.00685   0.00731   2.20493
   A13        1.88049  -0.00270  -0.00075  -0.00776  -0.00850   1.87199
    D1        0.00000   0.00000   0.00000   0.00000   0.00000   0.00000
    D2        3.14159   0.00000   0.00000   0.00000   0.00000   3.14159
    D3        3.14159   0.00000   0.00000   0.00000   0.00000   3.14159
    D4        0.00000   0.00000   0.00000   0.00000   0.00000   0.00000
    D5        3.14159   0.00000   0.00000   0.00000   0.00000   3.14159
    D6        0.00000   0.00000   0.00000   0.00000   0.00000   0.00000
    D7        0.00000   0.00000   0.00000   0.00000   0.00000   0.00000
    D8        3.14159   0.00000   0.00000   0.00000   0.00000   3.14159
    D9        0.00000   0.00000   0.00000   0.00000   0.00000   0.00000
   D10        3.14159   0.00000   0.00000   0.00000   0.00000   3.14159
   D11        3.14159   0.00000   0.00000   0.00000   0.00000   3.14159
   D12        0.00000   0.00000   0.00000   0.00000   0.00000   0.00000
   D13        3.14159   0.00000   0.00000   0.00000   0.00000   3.14159
   D14        0.00000   0.00000   0.00000   0.00000   0.00000   0.00000
   D15        0.00000   0.00000   0.00000   0.00000   0.00000   0.00000
   D16        3.14159   0.00000   0.00000   0.00000   0.00000   3.14159
         Item               Value     Threshold  Converged?
 Maximum Force            0.004146     0.000450     NO 
 RMS     Force            0.001530     0.000300     NO 
 Maximum Displacement     0.011012     0.001800     NO 
 RMS     Displacement     0.003672     0.001200     NO 
 Predicted change in Energy=-1.185342D-04
 GradGradGradGradGradGradGradGradGradGradGradGradGradGradGradGradGradGrad

                          Input orientation:                          
 ---------------------------------------------------------------------
 Center     Atomic     Atomic              Coordinates (Angstroms)
 Number     Number      Type              X           Y           Z
 ---------------------------------------------------------------------
    1          7             0        0.504960    0.000000    1.150160
    2          1             0        0.495055    0.000000   -2.029618
    3          6             0       -1.029795    0.000000   -0.527636
    4          1             0       -1.911110    0.000000   -1.134209
    5          6             0       -0.855900    0.000000    0.844539
    6          1             0       -1.602712    0.000000    1.610684
    7          1             0        2.203134    0.000000   -0.129049
    8          6             0        1.139078    0.000000   -0.005087
    9          7             0        0.256932    0.000000   -1.062621
 ---------------------------------------------------------------------
                    Distance matrix (angstroms):
                    1          2          3          4          5
     1  N    0.000000
     2  H    3.179793   0.000000
     3  C    2.273867   2.140354   0.000000
     4  H    3.325017   2.567370   1.069882   0.000000
     5  C    1.394756   3.175824   1.383150   2.242524   0.000000
     6  H    2.157398   4.201479   2.213741   2.762163   1.069909
     7  H    2.126069   2.555328   3.257407   4.235251   3.210228
     8  C    1.317839   2.124499   2.230934   3.252471   2.168364
     9  N    2.226638   0.995884   1.393512   2.169224   2.208089
                    6          7          8          9
     6  H    0.000000
     7  H    4.184631   0.000000
     8  C    3.182472   1.071252   0.000000
     9  N    3.256507   2.158532   1.377157   0.000000
 Stoichiometry    C3H4N2
 Framework group  CS[SG(C3H4N2)]
 Deg. of freedom   15
 Full point group                 CS      NOp   2
 Largest Abelian subgroup         CS      NOp   2
 Largest concise Abelian subgroup C1      NOp   1
                         Standard orientation:                         
 ---------------------------------------------------------------------
 Center     Atomic     Atomic              Coordinates (Angstroms)
 Number     Number      Type              X           Y           Z
 ---------------------------------------------------------------------
    1          7             0       -0.760551   -0.999441    0.000000
    2          1             0       -0.004464    2.089153    0.000000
    3          6             0        1.125181    0.271182    0.000000
    4          1             0        2.124263    0.653914    0.000000
    5          6             0        0.634026   -1.021826    0.000000
    6          1             0        1.180114   -1.941876    0.000000
    7          1             0       -2.110974    0.642669    0.000000
    8          6             0       -1.105753    0.272382    0.000000
    9          7             0        0.000000    1.093279    0.000000
 ---------------------------------------------------------------------
 Rotational constants (GHZ):      9.5546268      9.3169697      4.7171509
 Isotopes: N-14,H-1,C-12,H-1,C-12,H-1,H-1,C-12,N-14
 Standard basis: CEP-31G (6D, 10F)
 There are    38 symmetry adapted basis functions of A'  symmetry.
 There are    10 symmetry adapted basis functions of A"  symmetry.
 Crude estimate of integral set expansion from redundant integrals=1.000.
 Integral buffers will be    262144 words long.
 Raffenetti 1 integral format.
 Two-electron integral symmetry is turned on.
    48 basis functions       96 primitive gaussians
    13 alpha electrons       13 beta electrons
       nuclear repulsion energy        84.2147499961 Hartrees.
 One-electron integrals computed using PRISM.
   1 Symmetry operations used in ECPInt.
 ECPInt:  NShTT=     171 NPrTT=     693 LenC2=     172 LenP2D=     644.
 LDataN:  DoStor=F MaxTD1= 2 Len=   12
 LDataN:  DoStor=T MaxTD1= 2 Len=   12
 NBasis=    48 RedAO= T  NBF=    38    10
 NBsUse=    48 1.00D-04 NBFU=    38    10
 Initial guess read from the read-write file:
 Initial guess orbital symmetries:
       Occupied  (A') (A') (A') (A') (A') (A') (A') (A') (A") (A')
                 (A') (A") (A")
       Virtual   (A") (A") (A') (A') (A') (A') (A') (A') (A') (A')
                 (A") (A') (A') (A") (A') (A") (A') (A') (A") (A')
                 (A') (A") (A') (A') (A') (A') (A') (A') (A') (A')
                 (A') (A') (A') (A') (A')
 Requested convergence on RMS density matrix=1.00D-08 within  64 cycles.
 Requested convergence on MAX density matrix=1.00D-06.
 Keep R1 integrals in memory in canonical form, NReq=     1104320.
 SCF Done:  E(RHF) =  -38.0259738946     A.U. after   12 cycles
             Convg  =    0.2419D-08             -V/T =  2.2852
             S**2   =   0.0000
   2 Symmetry operations used in ECPInt.
 ECPInt:  NShTT=     171 NPrTT=     693 LenC2=     172 LenP2D=     644.
 LDataN:  DoStor=F MaxTD1= 3 Len=   28
 LDataN:  DoStor=T MaxTD1= 3 Len=   28
 ***** Axes restored to original set *****
 -------------------------------------------------------------------
 Center     Atomic                   Forces (Hartrees/Bohr)
 Number     Number              X              Y              Z
 -------------------------------------------------------------------
    1          7           0.001004700    0.000000000   -0.000347289
    2          1          -0.000105289    0.000000000    0.000154976
    3          6           0.000557712    0.000000000    0.000615029
    4          1           0.000247818    0.000000000    0.000118653
    5          6          -0.000902245    0.000000000   -0.000939234
    6          1           0.000284487    0.000000000   -0.000042262
    7          1          -0.000208288    0.000000000   -0.000028192
    8          6          -0.001391294    0.000000000    0.000009679
    9          7           0.000512398    0.000000000    0.000458641
 -------------------------------------------------------------------
 Cartesian Forces:  Max     0.001391294 RMS     0.000477716

 GradGradGradGradGradGradGradGradGradGradGradGradGradGradGradGradGradGrad
 Berny optimization.
 Internal  Forces:  Max     0.000990771 RMS     0.000298452
 Search for a local minimum.
 Step number   5 out of a maximum of  48
 All quantities printed in internal units (Hartrees-Bohrs-Radians)
 Update second derivatives using information from points  1  2  3  4  5

 Trust test= 1.09D+00 RLast= 2.66D-02 DXMaxT set to 6.00D-01
     Eigenvalues ---    0.03204   0.03263   0.03287   0.03305   0.03349
     Eigenvalues ---    0.03405   0.15090   0.15953   0.16002   0.16035
     Eigenvalues ---    0.21600   0.31358   0.47009   0.49262   0.49609
     Eigenvalues ---    0.50140   0.56807   0.60378   0.64982   0.70533
     Eigenvalues ---    0.768141000.000001000.000001000.000001000.00000
     Eigenvalues --- 1000.000001000.000001000.000001000.000001000.00000
     Eigenvalues --- 1000.000001000.000001000.000001000.000001000.00000
     Eigenvalues --- 1000.000001000.000001000.00000
 RFO step:  Lambda=-4.43431288D-06.
 Quartic linear search produced a step of  0.10321.
 Iteration  1 RMS(Cart)=  0.00063650 RMS(Int)=  0.00000074
 Iteration  2 RMS(Cart)=  0.00000033 RMS(Int)=  0.00000069
 Variable       Old X    -DE/DX   Delta X   Delta X   Delta X     New X
                                 (Linear)    (Quad)   (Total)
    R1        2.63571   0.00033   0.00083   0.00038   0.00121   2.63692
    R2        2.49035  -0.00080  -0.00060  -0.00078  -0.00138   2.48898
    R3        1.88195  -0.00018  -0.00022  -0.00015  -0.00037   1.88158
    R4        2.02178  -0.00027  -0.00032  -0.00033  -0.00065   2.02113
    R5        2.61378  -0.00084  -0.00062  -0.00099  -0.00161   2.61217
    R6        2.63336  -0.00048   0.00068  -0.00080  -0.00012   2.63323
    R7        2.02184  -0.00023  -0.00039  -0.00019  -0.00058   2.02125
    R8        2.02437  -0.00020  -0.00032  -0.00015  -0.00046   2.02391
    R9        2.60245  -0.00099   0.00024  -0.00165  -0.00141   2.60104
    A1        1.85188  -0.00033  -0.00094   0.00019  -0.00075   1.85113
    A2        2.29966  -0.00003   0.00022  -0.00034  -0.00011   2.29954
    A3        2.14476  -0.00011  -0.00036  -0.00025  -0.00061   2.14415
    A4        1.83877   0.00014   0.00014   0.00059   0.00073   1.83949
    A5        1.91777  -0.00015   0.00049  -0.00091  -0.00042   1.91735
    A6        2.12250  -0.00010  -0.00063  -0.00035  -0.00098   2.12152
    A7        2.24291   0.00025   0.00014   0.00126   0.00140   2.24432
    A8        2.18877  -0.00016  -0.00056   0.00029  -0.00027   2.18850
    A9        1.94437   0.00042   0.00119   0.00010   0.00129   1.94566
   A10        2.15004  -0.00026  -0.00062  -0.00039  -0.00102   2.14902
   A11        2.20627  -0.00002   0.00012  -0.00013  -0.00001   2.20626
   A12        2.20493   0.00011   0.00075   0.00010   0.00086   2.20578
   A13        1.87199  -0.00009  -0.00088   0.00003  -0.00085   1.87114
    D1        0.00000   0.00000   0.00000   0.00000   0.00000   0.00000
    D2        3.14159   0.00000   0.00000   0.00000   0.00000   3.14159
    D3        3.14159   0.00000   0.00000   0.00000   0.00000   3.14159
    D4        0.00000   0.00000   0.00000   0.00000   0.00000   0.00000
    D5        3.14159   0.00000   0.00000   0.00000   0.00000   3.14159
    D6        0.00000   0.00000   0.00000   0.00000   0.00000   0.00000
    D7        0.00000   0.00000   0.00000   0.00000   0.00000   0.00000
    D8        3.14159   0.00000   0.00000   0.00000   0.00000   3.14159
    D9        0.00000   0.00000   0.00000   0.00000   0.00000   0.00000
   D10        3.14159   0.00000   0.00000   0.00000   0.00000   3.14159
   D11        3.14159   0.00000   0.00000   0.00000   0.00000   3.14159
   D12        0.00000   0.00000   0.00000   0.00000   0.00000   0.00000
   D13        3.14159   0.00000   0.00000   0.00000   0.00000   3.14159
   D14        0.00000   0.00000   0.00000   0.00000   0.00000   0.00000
   D15        0.00000   0.00000   0.00000   0.00000   0.00000   0.00000
   D16        3.14159   0.00000   0.00000   0.00000   0.00000   3.14159
         Item               Value     Threshold  Converged?
 Maximum Force            0.000991     0.000450     NO 
 RMS     Force            0.000298     0.000300     YES
 Maximum Displacement     0.002215     0.001800     NO 
 RMS     Displacement     0.000637     0.001200     YES
 Predicted change in Energy=-3.362065D-06
 GradGradGradGradGradGradGradGradGradGradGradGradGradGradGradGradGradGrad

                          Input orientation:                          
 ---------------------------------------------------------------------
 Center     Atomic     Atomic              Coordinates (Angstroms)
 Number     Number      Type              X           Y           Z
 ---------------------------------------------------------------------
    1          7             0        0.504891    0.000000    1.149902
    2          1             0        0.494791    0.000000   -2.029500
    3          6             0       -1.029635    0.000000   -0.527420
    4          1             0       -1.910419    0.000000   -1.134155
    5          6             0       -0.856563    0.000000    0.844001
    6          1             0       -1.602486    0.000000    1.610581
    7          1             0        2.201679    0.000000   -0.129445
    8          6             0        1.137912    0.000000   -0.005114
    9          7             0        0.256923    0.000000   -1.062644
 ---------------------------------------------------------------------
                    Distance matrix (angstroms):
                    1          2          3          4          5
     1  N    0.000000
     2  H    3.179418   0.000000
     3  C    2.273363   2.140122   0.000000
     4  H    3.324250   2.566453   1.069536   0.000000
     5  C    1.395397   3.175400   1.382298   2.241364   0.000000
     6  H    2.157142   4.201043   2.213415   2.761956   1.069601
     7  H    2.125046   2.554149   3.255729   4.233059   3.209430
     8  C    1.317109   2.124087   2.229588   3.250701   2.167701
     9  N    2.226398   0.995687   1.393448   2.168522   2.207973
                    6          7          8          9
     6  H    0.000000
     7  H    4.183224   0.000000
     8  C    3.181234   1.071008   0.000000
     9  N    3.256307   2.157066   1.376413   0.000000
 Stoichiometry    C3H4N2
 Framework group  CS[SG(C3H4N2)]
 Deg. of freedom   15
 Full point group                 CS      NOp   2
 Largest Abelian subgroup         CS      NOp   2
 Largest concise Abelian subgroup C1      NOp   1
                         Standard orientation:                         
 ---------------------------------------------------------------------
 Center     Atomic     Atomic              Coordinates (Angstroms)
 Number     Number      Type              X           Y           Z
 ---------------------------------------------------------------------
    1          7             0       -0.761027   -0.999039    0.000000
    2          1             0       -0.003968    2.088932    0.000000
    3          6             0        1.124729    0.270647    0.000000
    4          1             0        2.123440    0.653379    0.000000
    5          6             0        0.634186   -1.021683    0.000000
    6          1             0        1.179048   -1.942102    0.000000
    7          1             0       -2.109607    0.643262    0.000000
    8          6             0       -1.104859    0.272400    0.000000
    9          7             0        0.000000    1.093253    0.000000
 ---------------------------------------------------------------------
 Rotational constants (GHZ):      9.5597898      9.3213541      4.7195332
 Isotopes: N-14,H-1,C-12,H-1,C-12,H-1,H-1,C-12,N-14
 Standard basis: CEP-31G (6D, 10F)
 There are    38 symmetry adapted basis functions of A'  symmetry.
 There are    10 symmetry adapted basis functions of A"  symmetry.
 Crude estimate of integral set expansion from redundant integrals=1.000.
 Integral buffers will be    262144 words long.
 Raffenetti 1 integral format.
 Two-electron integral symmetry is turned on.
    48 basis functions       96 primitive gaussians
    13 alpha electrons       13 beta electrons
       nuclear repulsion energy        84.2363288752 Hartrees.
 One-electron integrals computed using PRISM.
   1 Symmetry operations used in ECPInt.
 ECPInt:  NShTT=     171 NPrTT=     693 LenC2=     172 LenP2D=     644.
 LDataN:  DoStor=F MaxTD1= 2 Len=   12
 LDataN:  DoStor=T MaxTD1= 2 Len=   12
 NBasis=    48 RedAO= T  NBF=    38    10
 NBsUse=    48 1.00D-04 NBFU=    38    10
 Initial guess read from the read-write file:
 Initial guess orbital symmetries:
       Occupied  (A') (A') (A') (A') (A') (A') (A') (A') (A") (A')
                 (A') (A") (A")
       Virtual   (A") (A") (A') (A') (A') (A') (A') (A') (A') (A')
                 (A") (A') (A') (A") (A') (A") (A') (A') (A") (A')
                 (A') (A") (A') (A') (A') (A') (A') (A') (A') (A')
                 (A') (A') (A') (A') (A')
 Requested convergence on RMS density matrix=1.00D-08 within  64 cycles.
 Requested convergence on MAX density matrix=1.00D-06.
 Keep R1 integrals in memory in canonical form, NReq=     1104320.
 SCF Done:  E(RHF) =  -38.0259776792     A.U. after   10 cycles
             Convg  =    0.3296D-08             -V/T =  2.2850
             S**2   =   0.0000
   2 Symmetry operations used in ECPInt.
 ECPInt:  NShTT=     171 NPrTT=     693 LenC2=     172 LenP2D=     644.
 LDataN:  DoStor=F MaxTD1= 3 Len=   28
 LDataN:  DoStor=T MaxTD1= 3 Len=   28
 ***** Axes restored to original set *****
 -------------------------------------------------------------------
 Center     Atomic                   Forces (Hartrees/Bohr)
 Number     Number              X              Y              Z
 -------------------------------------------------------------------
    1          7           0.000247805    0.000000000    0.000070876
    2          1          -0.000019289    0.000000000   -0.000001801
    3          6           0.000211847    0.000000000   -0.000110942
    4          1          -0.000015380    0.000000000   -0.000012534
    5          6          -0.000221320    0.000000000   -0.000175230
    6          1           0.000031003    0.000000000    0.000037444
    7          1           0.000029368    0.000000000    0.000005059
    8          6          -0.000240543    0.000000000   -0.000235006
    9          7          -0.000023491    0.000000000    0.000422135
 -------------------------------------------------------------------
 Cartesian Forces:  Max     0.000422135 RMS     0.000135969

 GradGradGradGradGradGradGradGradGradGradGradGradGradGradGradGradGradGrad
 Berny optimization.
 Internal  Forces:  Max     0.000266963 RMS     0.000074584
 Search for a local minimum.
 Step number   6 out of a maximum of  48
 All quantities printed in internal units (Hartrees-Bohrs-Radians)
 Update second derivatives using information from points  1  2  3  4  5
                                                        6
 Trust test= 1.13D+00 RLast= 4.23D-03 DXMaxT set to 6.00D-01
     Eigenvalues ---    0.03204   0.03263   0.03287   0.03305   0.03349
     Eigenvalues ---    0.03405   0.14691   0.15821   0.16004   0.16053
     Eigenvalues ---    0.23055   0.31442   0.46659   0.48748   0.49572
     Eigenvalues ---    0.49767   0.55452   0.57987   0.60916   0.71606
     Eigenvalues ---    0.768341000.000001000.000001000.000001000.00000
     Eigenvalues --- 1000.000001000.000001000.000001000.000001000.00000
     Eigenvalues --- 1000.000001000.000001000.000001000.000001000.00000
     Eigenvalues --- 1000.000001000.000001000.00000
 RFO step:  Lambda=-3.47935245D-07.
 Quartic linear search produced a step of  0.14262.
 Iteration  1 RMS(Cart)=  0.00018992 RMS(Int)=  0.00000003
 Iteration  2 RMS(Cart)=  0.00000003 RMS(Int)=  0.00000002
 Variable       Old X    -DE/DX   Delta X   Delta X   Delta X     New X
                                 (Linear)    (Quad)   (Total)
    R1        2.63692   0.00018   0.00017   0.00021   0.00039   2.63730
    R2        2.48898  -0.00005  -0.00020   0.00005  -0.00015   2.48883
    R3        1.88158   0.00000  -0.00005   0.00002  -0.00004   1.88154
    R4        2.02113   0.00002  -0.00009   0.00009  -0.00001   2.02112
    R5        2.61217  -0.00006  -0.00023   0.00007  -0.00016   2.61200
    R6        2.63323  -0.00023  -0.00002  -0.00036  -0.00038   2.63285
    R7        2.02125   0.00001  -0.00008   0.00005  -0.00004   2.02122
    R8        2.02391   0.00003  -0.00007   0.00009   0.00002   2.02394
    R9        2.60104  -0.00027  -0.00020  -0.00034  -0.00054   2.60051
    A1        1.85113  -0.00011  -0.00011  -0.00019  -0.00029   1.85084
    A2        2.29954   0.00002  -0.00002   0.00012   0.00011   2.29965
    A3        2.14415   0.00001  -0.00009   0.00017   0.00008   2.14423
    A4        1.83949  -0.00003   0.00010  -0.00030  -0.00019   1.83930
    A5        1.91735  -0.00003  -0.00006   0.00013   0.00007   1.91742
    A6        2.12152  -0.00003  -0.00014  -0.00029  -0.00043   2.12109
    A7        2.24432   0.00006   0.00020   0.00016   0.00036   2.24467
    A8        2.18850  -0.00003  -0.00004  -0.00005  -0.00009   2.18841
    A9        1.94566   0.00003   0.00018  -0.00010   0.00009   1.94574
   A10        2.14902  -0.00001  -0.00015   0.00015   0.00000   2.14903
   A11        2.20626  -0.00009   0.00000  -0.00031  -0.00032   2.20595
   A12        2.20578  -0.00005   0.00012  -0.00013  -0.00001   2.20577
   A13        1.87114   0.00014  -0.00012   0.00045   0.00032   1.87147
    D1        0.00000   0.00000   0.00000   0.00000   0.00000   0.00000
    D2        3.14159   0.00000   0.00000   0.00000   0.00000   3.14159
    D3        3.14159   0.00000   0.00000   0.00000   0.00000   3.14159
    D4        0.00000   0.00000   0.00000   0.00000   0.00000   0.00000
    D5        3.14159   0.00000   0.00000   0.00000   0.00000   3.14159
    D6        0.00000   0.00000   0.00000   0.00000   0.00000   0.00000
    D7        0.00000   0.00000   0.00000   0.00000   0.00000   0.00000
    D8        3.14159   0.00000   0.00000   0.00000   0.00000   3.14159
    D9        0.00000   0.00000   0.00000   0.00000   0.00000   0.00000
   D10        3.14159   0.00000   0.00000   0.00000   0.00000   3.14159
   D11        3.14159   0.00000   0.00000   0.00000   0.00000   3.14159
   D12        0.00000   0.00000   0.00000   0.00000   0.00000   0.00000
   D13        3.14159   0.00000   0.00000   0.00000   0.00000   3.14159
   D14        0.00000   0.00000   0.00000   0.00000   0.00000   0.00000
   D15        0.00000   0.00000   0.00000   0.00000   0.00000   0.00000
   D16        3.14159   0.00000   0.00000   0.00000   0.00000   3.14159
         Item               Value     Threshold  Converged?
 Maximum Force            0.000267     0.000450     YES
 RMS     Force            0.000075     0.000300     YES
 Maximum Displacement     0.000530     0.001800     YES
 RMS     Displacement     0.000190     0.001200     YES
 Predicted change in Energy=-2.338145D-07
 Optimization completed.
    -- Stationary point found.
                         ----------------------------
                         !   Optimized Parameters   !
                         ! (Angstroms and Degrees)  !
 ------------------------                            -------------------------
 ! Name  Definition              Value          Derivative Info.             !
 -----------------------------------------------------------------------------
 ! R1    R(1,5)                  1.3954         -DE/DX =    0.0002           !
 ! R2    R(1,8)                  1.3171         -DE/DX =    0.               !
 ! R3    R(2,9)                  0.9957         -DE/DX =    0.               !
 ! R4    R(3,4)                  1.0695         -DE/DX =    0.               !
 ! R5    R(3,5)                  1.3823         -DE/DX =   -0.0001           !
 ! R6    R(3,9)                  1.3934         -DE/DX =   -0.0002           !
 ! R7    R(5,6)                  1.0696         -DE/DX =    0.               !
 ! R8    R(7,8)                  1.071          -DE/DX =    0.               !
 ! R9    R(8,9)                  1.3764         -DE/DX =   -0.0003           !
 ! A1    A(5,1,8)              106.0622         -DE/DX =   -0.0001           !
 ! A2    A(4,3,5)              131.754          -DE/DX =    0.               !
 ! A3    A(4,3,9)              122.8508         -DE/DX =    0.               !
 ! A4    A(5,3,9)              105.3953         -DE/DX =    0.               !
 ! A5    A(1,5,3)              109.856          -DE/DX =    0.               !
 ! A6    A(1,5,6)              121.5542         -DE/DX =    0.               !
 ! A7    A(3,5,6)              128.5899         -DE/DX =    0.0001           !
 ! A8    A(1,8,7)              125.3919         -DE/DX =    0.               !
 ! A9    A(1,8,9)              111.4781         -DE/DX =    0.               !
 ! A10   A(7,8,9)              123.13           -DE/DX =    0.               !
 ! A11   A(2,9,3)              126.4094         -DE/DX =   -0.0001           !
 ! A12   A(2,9,8)              126.3821         -DE/DX =    0.               !
 ! A13   A(3,9,8)              107.2085         -DE/DX =    0.0001           !
 ! D1    D(8,1,5,3)              0.             -DE/DX =    0.               !
 ! D2    D(8,1,5,6)            180.             -DE/DX =    0.               !
 ! D3    D(5,1,8,7)            180.             -DE/DX =    0.               !
 ! D4    D(5,1,8,9)              0.             -DE/DX =    0.               !
 ! D5    D(4,3,5,1)            180.             -DE/DX =    0.               !
 ! D6    D(4,3,5,6)              0.             -DE/DX =    0.               !
 ! D7    D(9,3,5,1)              0.             -DE/DX =    0.               !
 ! D8    D(9,3,5,6)            180.             -DE/DX =    0.               !
 ! D9    D(4,3,9,2)              0.             -DE/DX =    0.               !
 ! D10   D(4,3,9,8)            180.             -DE/DX =    0.               !
 ! D11   D(5,3,9,2)            180.             -DE/DX =    0.               !
 ! D12   D(5,3,9,8)              0.             -DE/DX =    0.               !
 ! D13   D(1,8,9,2)            180.             -DE/DX =    0.               !
 ! D14   D(1,8,9,3)              0.             -DE/DX =    0.               !
 ! D15   D(7,8,9,2)              0.             -DE/DX =    0.               !
 ! D16   D(7,8,9,3)            180.             -DE/DX =    0.               !
[...]
   6   1    -0.02  -0.19   0.00     0.41   0.07   0.00    -0.39   0.66   0.00
   7   1    -0.33  -0.56   0.00     0.22   0.19   0.00    -0.08   0.03   0.00
   8   6     0.00   0.28   0.00     0.05  -0.16   0.00     0.01   0.00   0.00
   9   7     0.02  -0.11   0.00    -0.12  -0.01   0.00     0.00   0.00   0.00
                    19                     20                     21
                    A'                     A'                     A'
 Frequencies --  3496.2816              3512.4713              3955.3634
 Red. masses --     1.1012                 1.1121                 1.0842
 Frc consts  --     7.9313                 8.0842                 9.9937
 IR Inten    --    10.0378                 6.3123                95.7215
 Raman Activ --    42.4393               123.9440                81.0197
 Depolar     --     0.3656                 0.2035                 0.2797
 Atom AN      X      Y      Z        X      Y      Z        X      Y      Z
   1   7     0.00   0.00   0.00     0.00   0.00   0.00     0.00   0.00   0.00
   2   1    -0.01   0.01   0.00     0.00  -0.02   0.00     0.00   1.00   0.00
   3   6    -0.02  -0.01   0.00    -0.06  -0.03   0.00     0.00   0.00   0.00
   4   1     0.22   0.09   0.00     0.68   0.27   0.00     0.01   0.00   0.00
   5   6     0.00   0.01   0.00    -0.03   0.06   0.00     0.00   0.00   0.00
   6   1     0.04  -0.08   0.00     0.31  -0.54   0.00     0.00   0.00   0.00
   7   1     0.90  -0.33   0.00    -0.23   0.08   0.00    -0.01   0.00   0.00
   8   6    -0.08   0.03   0.00     0.02  -0.01   0.00     0.00   0.00   0.00
   9   7     0.00   0.00   0.00     0.00   0.00   0.00     0.00  -0.08   0.00

 -------------------
 - Thermochemistry -
 -------------------
 Temperature   298.150 Kelvin.  Pressure   1.00000 Atm.
 Atom  1 has atomic number  7 and mass  14.00307
 Atom  2 has atomic number  1 and mass   1.00783
 Atom  3 has atomic number  6 and mass  12.00000
 Atom  4 has atomic number  1 and mass   1.00783
 Atom  5 has atomic number  6 and mass  12.00000
 Atom  6 has atomic number  1 and mass   1.00783
 Atom  7 has atomic number  1 and mass   1.00783
 Atom  8 has atomic number  6 and mass  12.00000
 Atom  9 has atomic number  7 and mass  14.00307
 Molecular mass:    68.03745 amu.
 Principal axes and moments of inertia in atomic units:
                           1         2         3
     EIGENVALUES --   188.78461 193.61363 382.39824
           X            0.46510   0.88526   0.00000
           Y            0.88526  -0.46510   0.00000
           Z            0.00000   0.00000   1.00000
 THIS MOLECULE IS AN ASYMMETRIC TOP.
 ROTATIONAL SYMMETRY NUMBER  1.
 ROTATIONAL TEMPERATURES (KELVIN)      0.45879     0.44735     0.22650
 ROTATIONAL CONSTANTS (GHZ)            9.55979     9.32135     4.71953
 Zero-point vibrational energy     202862.9 (Joules/Mol)
                                   48.48540 (Kcal/Mol)
 VIBRATIONAL TEMPERATURES:    972.70  1015.91  1044.46  1251.35  1408.80
          (KELVIN)           1421.76  1462.60  1466.76  1638.69  1699.03
                             1733.82  1802.27  1986.54  2113.16  2224.06
                             2330.45  2440.90  5009.25  5030.34  5053.63
                             5690.85
 
 Zero-point correction=                           0.077266 (Hartree/Particle)
 Thermal correction to Energy=                    0.080735
 Thermal correction to Enthalpy=                  0.081679
 Thermal correction to Gibbs Free Energy=         0.051085
 Sum of electronic and zero-point Energies=            -37.948711
 Sum of electronic and thermal Energies=               -37.945243
 Sum of electronic and thermal Enthalpies=             -37.944299
 Sum of electronic and thermal Free Energies=          -37.974893
 
                     E (Thermal)             CV                S
                      KCAL/MOL        CAL/MOL-KELVIN    CAL/MOL-KELVIN
 TOTAL                   50.662             11.672             64.390
 ELECTRONIC               0.000              0.000              0.000
 TRANSLATIONAL            0.889              2.981             38.570
 ROTATIONAL               0.889              2.981             24.151
 VIBRATIONAL             48.884              5.710              1.669
                       Q            LOG10(Q)             LN(Q)
 TOTAL BOT       0.318247D-23        -23.497236        -54.104384
 TOTAL V=0       0.110307D+13         12.042604         27.729121
 VIB (BOT)       0.340897D-35        -35.467377        -81.666653
 VIB (V=0)       0.118158D+01          0.072463          0.166853
 ELECTRONIC      0.100000D+01          0.000000          0.000000
 TRANSLATIONAL   0.220588D+08          7.343582         16.909224
 ROTATIONAL      0.423213D+05          4.626559         10.653045
 ***** Axes restored to original set *****
 -------------------------------------------------------------------
 Center     Atomic                   Forces (Hartrees/Bohr)
 Number     Number              X              Y              Z
 -------------------------------------------------------------------
    1          7           0.000247796    0.000000000    0.000070879
    2          1          -0.000019289    0.000000000   -0.000001800
    3          6           0.000211847    0.000000000   -0.000110938
    4          1          -0.000015381    0.000000000   -0.000012535
    5          6          -0.000221311    0.000000000   -0.000175229
    6          1           0.000031004    0.000000000    0.000037442
    7          1           0.000029371    0.000000000    0.000005058
    8          6          -0.000240552    0.000000000   -0.000235011
    9          7          -0.000023485    0.000000000    0.000422133
 -------------------------------------------------------------------
 Cartesian Forces:  Max     0.000422133 RMS     0.000135968

 GradGradGradGradGradGradGradGradGradGradGradGradGradGradGradGradGradGrad
 Berny optimization.
 Internal  Forces:  Max     0.000266969 RMS     0.000074584
 Search for a local minimum.
 Step number   1 out of a maximum of  48
 All quantities printed in internal units (Hartrees-Bohrs-Radians)
 Second derivative matrix not updated -- analytic derivatives used.
     Eigenvalues ---    0.00890   0.01577   0.02811   0.03481   0.07014
     Eigenvalues ---    0.07312   0.11521   0.12172   0.12813   0.13512
     Eigenvalues ---    0.27338   0.28253   0.38132   0.42589   0.42812
     Eigenvalues ---    0.42904   0.46002   0.48417   0.55566   0.55985
     Eigenvalues ---    0.642891000.000001000.000001000.000001000.00000
     Eigenvalues --- 1000.000001000.000001000.000001000.000001000.00000
     Eigenvalues --- 1000.000001000.000001000.000001000.000001000.00000
     Eigenvalues --- 1000.000001000.000001000.00000
 Angle between quadratic step and forces=  25.05 degrees.
 Linear search not attempted -- first point.
 Iteration  1 RMS(Cart)=  0.00020533 RMS(Int)=  0.00000003
 Iteration  2 RMS(Cart)=  0.00000004 RMS(Int)=  0.00000001
 Variable       Old X    -DE/DX   Delta X   Delta X   Delta X     New X
                                 (Linear)    (Quad)   (Total)
    R1        2.63692   0.00018   0.00000   0.00056   0.00056   2.63748
    R2        2.48898  -0.00005   0.00000   0.00002   0.00002   2.48900
    R3        1.88158   0.00000   0.00000  -0.00001  -0.00001   1.88157
    R4        2.02113   0.00002   0.00000   0.00004   0.00004   2.02117
    R5        2.61217  -0.00006   0.00000  -0.00007  -0.00007   2.61209
    R6        2.63323  -0.00023   0.00000  -0.00050  -0.00050   2.63273
    R7        2.02125   0.00001   0.00000   0.00001   0.00001   2.02126
    R8        2.02391   0.00003   0.00000   0.00007   0.00007   2.02398
    R9        2.60104  -0.00027   0.00000  -0.00068  -0.00068   2.60037
    A1        1.85113  -0.00011   0.00000  -0.00030  -0.00030   1.85084
    A2        2.29954   0.00002   0.00000   0.00000   0.00000   2.29954
    A3        2.14415   0.00001   0.00000   0.00005   0.00005   2.14420
    A4        1.83949  -0.00003   0.00000  -0.00006  -0.00006   1.83944
    A5        1.91735  -0.00003   0.00000  -0.00009  -0.00009   1.91725
    A6        2.12152  -0.00003   0.00000  -0.00043  -0.00043   2.12109
    A7        2.24432   0.00006   0.00000   0.00053   0.00053   2.24484
    A8        2.18850  -0.00003   0.00000  -0.00017  -0.00017   2.18833
    A9        1.94566   0.00003   0.00000   0.00010   0.00010   1.94576
   A10        2.14902  -0.00001   0.00000   0.00007   0.00007   2.14910
   A11        2.20626  -0.00009   0.00000  -0.00032  -0.00032   2.20594
   A12        2.20578  -0.00005   0.00000  -0.00002  -0.00002   2.20576
   A13        1.87114   0.00014   0.00000   0.00035   0.00035   1.87149
    D1        0.00000   0.00000   0.00000   0.00000   0.00000   0.00000
    D2        3.14159   0.00000   0.00000   0.00000   0.00000   3.14159
    D3        3.14159   0.00000   0.00000   0.00000   0.00000   3.14159
    D4        0.00000   0.00000   0.00000   0.00000   0.00000   0.00000
    D5        3.14159   0.00000   0.00000   0.00000   0.00000   3.14159
    D6        0.00000   0.00000   0.00000   0.00000   0.00000   0.00000
    D7        0.00000   0.00000   0.00000   0.00000   0.00000   0.00000
    D8        3.14159   0.00000   0.00000   0.00000   0.00000   3.14159
    D9        0.00000   0.00000   0.00000   0.00000   0.00000   0.00000
   D10        3.14159   0.00000   0.00000   0.00000   0.00000   3.14159
   D11        3.14159   0.00000   0.00000   0.00000   0.00000   3.14159
   D12        0.00000   0.00000   0.00000   0.00000   0.00000   0.00000
   D13        3.14159   0.00000   0.00000   0.00000   0.00000   3.14159
   D14        0.00000   0.00000   0.00000   0.00000   0.00000   0.00000
   D15        0.00000   0.00000   0.00000   0.00000   0.00000   0.00000
   D16        3.14159   0.00000   0.00000   0.00000   0.00000   3.14159
         Item               Value     Threshold  Converged?
 Maximum Force            0.000267     0.000450     YES
 RMS     Force            0.000075     0.000300     YES
 Maximum Displacement     0.000539     0.001800     YES
 RMS     Displacement     0.000205     0.001200     YES
 Predicted change in Energy=-2.859104D-07
 Optimization completed.
    -- Stationary point found.
                         ----------------------------
                         !   Optimized Parameters   !
                         ! (Angstroms and Degrees)  !
 ------------------------                            -------------------------
 ! Name  Definition              Value          Derivative Info.             !
 -----------------------------------------------------------------------------
 ! R1    R(1,5)                  1.3954         -DE/DX =    0.0002           !
 ! R2    R(1,8)                  1.3171         -DE/DX =    0.               !
 ! R3    R(2,9)                  0.9957         -DE/DX =    0.               !
 ! R4    R(3,4)                  1.0695         -DE/DX =    0.               !
 ! R5    R(3,5)                  1.3823         -DE/DX =   -0.0001           !
 ! R6    R(3,9)                  1.3934         -DE/DX =   -0.0002           !
 ! R7    R(5,6)                  1.0696         -DE/DX =    0.               !
 ! R8    R(7,8)                  1.071          -DE/DX =    0.               !
 ! R9    R(8,9)                  1.3764         -DE/DX =   -0.0003           !
 ! A1    A(5,1,8)              106.0622         -DE/DX =   -0.0001           !
 ! A2    A(4,3,5)              131.754          -DE/DX =    0.               !
 ! A3    A(4,3,9)              122.8508         -DE/DX =    0.               !
 ! A4    A(5,3,9)              105.3953         -DE/DX =    0.               !
 ! A5    A(1,5,3)              109.856          -DE/DX =    0.               !
 ! A6    A(1,5,6)              121.5542         -DE/DX =    0.               !
 ! A7    A(3,5,6)              128.5899         -DE/DX =    0.0001           !
 ! A8    A(1,8,7)              125.3919         -DE/DX =    0.               !
 ! A9    A(1,8,9)              111.4781         -DE/DX =    0.               !
 ! A10   A(7,8,9)              123.13           -DE/DX =    0.               !
 ! A11   A(2,9,3)              126.4094         -DE/DX =   -0.0001           !
 ! A12   A(2,9,8)              126.3821         -DE/DX =    0.               !
 ! A13   A(3,9,8)              107.2085         -DE/DX =    0.0001           !
 ! D1    D(8,1,5,3)              0.             -DE/DX =    0.               !
 ! D2    D(8,1,5,6)            180.             -DE/DX =    0.               !
 ! D3    D(5,1,8,7)            180.             -DE/DX =    0.               !
 ! D4    D(5,1,8,9)              0.             -DE/DX =    0.               !
 ! D5    D(4,3,5,1)            180.             -DE/DX =    0.               !
 ! D6    D(4,3,5,6)              0.             -DE/DX =    0.               !
 ! D7    D(9,3,5,1)              0.             -DE/DX =    0.               !
 ! D8    D(9,3,5,6)            180.             -DE/DX =    0.               !
 ! D9    D(4,3,9,2)              0.             -DE/DX =    0.               !
 ! D10   D(4,3,9,8)            180.             -DE/DX =    0.               !
 ! D11   D(5,3,9,2)            180.             -DE/DX =    0.               !
 ! D12   D(5,3,9,8)              0.             -DE/DX =    0.               !
 ! D13   D(1,8,9,2)            180.             -DE/DX =    0.               !
 ! D14   D(1,8,9,3)              0.             -DE/DX =    0.               !
 ! D15   D(7,8,9,2)              0.             -DE/DX =    0.               !
 ! D16   D(7,8,9,3)            180.             -DE/DX =    0.               !
 -----------------------------------------------------------------------------
 GradGradGradGradGradGradGradGradGradGradGradGradGradGradGradGradGradGrad

 1\1\GINC-WOLFRAM\Freq\RHF\CEP-31G\C3H4N2\RDJ3\30-Aug-2000\0\\#N GEOM=A
 LLCHECK GUESS=TCHECK RHF/CEP-31G FREQ\\1H imidazole C3H4N2 casno=28832
 4\\0,1\N,0.5049101681,0.,1.1499157576\H,0.4948106716,0.,-2.0294865477\
 C,-1.0296154081,0.,-0.5274062183\H,-1.910399276,0.,-1.1341410177\C,-0.
 8565436639,0.,0.8440144902\H,-1.6024660055,0.,1.610595267\H,2.20169864
 35,0.,-0.1294314378\C,1.1379316979,0.,-0.0050996226\N,0.2569429244,0.,
 -1.0626299298\\Version=IBM-RS6000-G98RevA.6\State=1-A'\HF=-38.0259777\
 RMSD=1.219e-09\RMSF=1.360e-04\Dipole=-0.1795815,0.,-1.7092286\DipoleDe
 riv=-0.4247037,0.,0.0034518,0.,-0.3853209,0.,0.0957076,0.,-0.5753,0.21
 74238,0.,-0.0121978,0.,0.4347358,0.,0.00281,0.,0.2554682,-0.0015776,0.
 ,-0.3555669,0.,-0.1476942,0.,-0.0841391,0.,0.259677,0.0036943,0.,-0.05
 92471,0.,0.244241,0.,-0.0902508,0.,0.0463531,0.250649,0.,-0.0035285,0.
 ,-0.1717623,0.,-0.1792136,0.,0.1191099,-0.0061126,0.,0.0726413,0.,0.20
 47464,0.,0.1110556,0.,0.0282808,-0.056666,0.,0.03541,0.,0.1899615,0.,0
 .038474,0.,0.0908957,0.2124775,0.,0.0816709,0.,0.064095,0.,-0.0105229,
 0.,0.6470977,-0.1951846,0.,0.2373662,0.,-0.4330022,0.,0.1160793,0.,-0.
 8715825\Polar=44.3328618,0.,20.832401,-0.2935903,0.,45.1915007\PolarDe
 riv=-11.0656305,0.,-1.3647835,-0.2024754,0.,6.6711914,0.,0.0689906,0.,
 0.,2.7477381,0.,7.1937804,0.,1.7758078,2.7355115,0.,7.6416505,0.820852
 1,0.,-0.1990863,-1.8582462,0.,1.1253839,0.,0.1872161,0.,0.,-0.7889112,
 0.,-1.0004859,0.,0.0490364,1.7597645,0.,-8.948555,-0.9405815,0.,0.4859
 944,-2.0483943,0.,-1.7244615,0.,-6.3132711,0.,0.,-6.2911902,0.,-8.1149
 79,0.,-3.7618373,-3.5335706,0.,-4.6737112,-6.4875958,0.,0.7910746,-3.0
 492568,0.,-2.343719,0.,1.0360969,0.,0.,0.6123391,0.,-3.0077483,0.,0.35
 37116,-2.6326566,0.,-3.1870232,7.802251,0.,0.4854166,4.2465904,0.,-2.9
 501271,0.,-1.6745505,0.,0.,6.1632729,0.,7.9395776,0.,3.0414367,2.82759
 26,0.,3.2730354,-4.2248868,0.,0.6287803,3.2946812,0.,-3.0593207,0.,-0.
 0197627,0.,0.,-0.3081449,0.,2.872566,0.,-0.3213503,-2.7370348,0.,5.136
 2355,10.0174499,0.,0.0219861,-0.6430374,0.,1.019908,0.,-0.7525908,0.,0
 .,0.0832271,0.,-0.8798074,0.,0.1679678,1.6323401,0.,-0.30681,7.6120149
 ,0.,0.7912628,-0.5347367,0.,0.5998912,0.,6.8783175,0.,0.,-1.4619824,0.
 ,-7.534174,0.,-1.3878908,-0.8054759,0.,1.6958912,-3.5338735,0.,-1.6406
 449,0.7948751,0.,0.6612538,0.,0.5895541,0.,0.,-0.7563485,0.,2.5312707,
 0.,0.083118,0.7535292,0.,-0.6307131\HyperPolar=46.3320265,0.,7.2252166
 ,0.,-16.1126354,0.,-8.6243042,-26.2985734,0.,-34.1317248\PG=CS [SG(C3H
 4N2)]\NImag=0\\0.55032780,0.,0.12095182,-0.07397903,0.,0.65134136,-0.0
 0363760,0.,-0.00879881,0.09985452,0.,0.00674172,0.,0.,0.01727940,-0.00
 350283,0.,-0.00138639,-0.11122671,0.,0.52743035,-0.03511266,0.,-0.0201
 3072,0.00835567,0.,-0.00677168,0.82563898,0.,0.02098346,0.,0.,-0.00476
 001,0.,0.,0.14749546,-0.09580981,0.,-0.02544226,0.03449665,0.,0.001538
 02,0.20207110,0.,0.87184667,0.00223038,0.,0.00116232,0.00019023,0.,0.0
 0025169,-0.29744680,0.,-0.16004357,0.30981842,0.,0.00799674,0.,0.,-0.0
 0127812,0.,0.,-0.03363217,0.,0.,0.02543579,-0.00386745,0.,-0.00527202,
 -0.00103327,0.,0.00029472,-0.17206667,0.,-0.18952552,0.17185668,0.,0.1
 7853035,-0.27846335,0.,-0.02573137,-0.00998631,0.,-0.00031960,-0.12298
 963,0.,-0.03338569,0.00593197,0.,-0.02506621,0.74767813,0.,-0.08348091
 ,0.,0.,0.00320830,0.,0.,-0.08338604,0.,0.,0.00170130,0.,0.,0.16828581,
 -0.04894219,0.,-0.13005487,0.00266696,0.,0.00185985,-0.04301514,0.,-0.
 46478297,0.00568297,0.,0.00413825,-0.18588575,0.,0.92354869,-0.0152114
 5,0.,0.02423036,0.00077289,0.,0.00003312,0.01007592,0.,-0.00985713,0.0
 0000875,0.,0.00095794,-0.22798026,0.,0.17110821,0.23858359,0.,-0.00427
 765,0.,0.,0.00189262,0.,0.,0.00175355,0.,0.,-0.00297256,0.,0.,-0.04068
 066,0.,0.,0.03001406,-0.01282591,0.,0.01364765,0.00130982,0.,0.0002127
 4,0.02421912,0.,-0.00516117,-0.00083804,0.,-0.00027866,0.17669871,0.,-
 0.25399160,-0.18224474,0.,0.25107939,-0.00510310,0.,-0.00254531,-0.000
 27145,0.,-0.00057282,0.00118030,0.,-0.00432575,-0.00053141,0.,0.000263
 06,0.00191223,0.,0.00339809,-0.00062574,0.,0.00009577,0.42322965,0.,-0
 .00343784,0.,0.,-0.00154379,0.,0.,0.00409950,0.,0.,0.00161874,0.,0.,0.
 00950222,0.,0.,0.00060833,0.,0.,0.02979984,0.03296399,0.,0.00183279,0.
 00051146,0.,0.00037595,-0.00025103,0.,-0.00677555,-0.00120822,0.,0.001
 08939,0.00266527,0.,-0.00459009,0.00168994,0.,0.00060738,-0.04151891,0
 .,0.07118173,-0.21136360,0.,0.13809293,0.01904049,0.,0.01660471,-0.096
 54438,0.,0.00193551,-0.00305675,0.,0.00496787,-0.09163357,0.,0.0232234
 6,-0.00673729,0.,-0.00526532,-0.40989658,0.,0.04094197,1.03273504,0.,-
 0.09264788,0.,0.,-0.00518968,0.,0.,0.01716802,0.,0.,0.00386687,0.,0.,0
 .01103680,0.,0.,0.00651042,0.,0.,-0.04115252,0.,0.,0.18074048,0.167341
 58,0.,-0.38040388,-0.02501213,0.,-0.00919360,-0.04533185,0.,-0.0169552
 0,0.00491649,0.,-0.00608057,0.08372291,0.,0.00495233,-0.00208720,0.,-0
 .00024257,0.03811012,0.,-0.07126658,-0.12397137,0.,0.71923687,-0.00366
 642,0.,-0.03230037,-0.11431844,0.,0.10550412,-0.29315741,0.,0.06491870
 ,-0.01714479,0.,0.02398805,-0.02446922,0.,0.07176338,0.00111359,0.,-0.
 00114940,-0.00989391,0.,-0.03579447,-0.23254337,0.,-0.09768856,0.69407
 996,0.,0.02717054,0.,0.,-0.01635044,0.,0.,-0.06972177,0.,0.,-0.0027366
 0,0.,0.,0.01381317,0.,0.,0.00715188,0.,0.,0.00050551,0.,0.,-0.08033251
 ,0.,0.,0.12050022,0.03862166,0.,-0.12426238,0.10708603,0.,-0.52113165,
 0.06127686,0.,-0.16474201,-0.02178033,0.,0.01710406,0.00730173,0.,-0.0
 8107959,-0.00383051,0.,-0.00587317,0.00709576,0.,0.00754498,-0.0965297
 6,0.,-0.24004680,-0.09924145,0.,1.11248657\\-0.00024780,0.,-0.00007088
 ,0.00001929,0.,0.00000180,-0.00021185,0.,0.00011094,0.00001538,0.,0.00
 001254,0.00022131,0.,0.00017523,-0.00003100,0.,-0.00003744,-0.00002937
 ,0.,-0.00000506,0.00024055,0.,0.00023501,0.00002348,0.,-0.00042213\\\@


 READER, WHETHER YOU BE DILETTANTE OR PROFESSOR ... SHOW YOURSELF TO BE
 MORE HUMAN THAN CRITICAL, AND THEN YOUR PLEASURE WILL INCREASE.
                                           -- DOMENICO SCARLATTI (1738)
 Job cpu time:  0 days  0 hours  0 minutes 39.2 seconds.
 File lengths (MBytes):  RWF=   12 Int=    0 D2E=    0 Chk=    8 Scr=    1
 Normal termination of Gaussian 98.
