 Entering Link 1 = C:\G03W\l1.exe PID=    107612.
  
 Copyright (c) 1988,1990,1992,1993,1995,1998,2003, Gaussian, Inc.
                  All Rights Reserved.
  
 This is the Gaussian(R) 03 program.  It is based on the
 the Gaussian(R) 98 system (copyright 1998, Gaussian, Inc.),
 the Gaussian(R) 94 system (copyright 1995, Gaussian, Inc.),
 the Gaussian 92(TM) system (copyright 1992, Gaussian, Inc.),
 the Gaussian 90(TM) system (copyright 1990, Gaussian, Inc.),
 the Gaussian 88(TM) system (copyright 1988, Gaussian, Inc.),
 the Gaussian 86(TM) system (copyright 1986, Carnegie Mellon
 University), and the Gaussian 82(TM) system (copyright 1983,
 Carnegie Mellon University). Gaussian is a federally registered
 trademark of Gaussian, Inc.
  
 This software contains proprietary and confidential information,
 including trade secrets, belonging to Gaussian, Inc.
  
 This software is provided under written license and may be
 used, copied, transmitted, or stored only in accord with that
 written license.
  
 The following legend is applicable only to US Government
 contracts under DFARS:
  
                    RESTRICTED RIGHTS LEGEND
  
 Use, duplication or disclosure by the US Government is subject
 to restrictions as set forth in subparagraph (c)(1)(ii) of the
 Rights in Technical Data and Computer Software clause at DFARS
 252.227-7013.
  
 Gaussian, Inc.
 Carnegie Office Park, Building 6, Pittsburgh, PA 15106 USA
  
 The following legend is applicable only to US Government
 contracts under FAR:
  
                    RESTRICTED RIGHTS LEGEND
  
 Use, reproduction and disclosure by the US Government is subject
 to restrictions as set forth in subparagraph (c) of the
 Commercial Computer Software - Restricted Rights clause at FAR
 52.227-19.
  
 Gaussian, Inc.
 Carnegie Office Park, Building 6, Pittsburgh, PA 15106 USA
  
  
 ---------------------------------------------------------------
 Warning -- This program may not be used in any manner that
 competes with the business of Gaussian, Inc. or will provide
 assistance to any competitor of Gaussian, Inc.  The licensee
 of this program is prohibited from giving any competitor of
 Gaussian, Inc. access to this program.  By using this program,
 the user acknowledges that Gaussian, Inc. is engaged in the
 business of creating and licensing software in the field of
 computational chemistry and represents and warrants to the
 licensee that it is not a competitor of Gaussian, Inc. and that
 it will not use this program in any manner prohibited above.
 ---------------------------------------------------------------
  

 Cite this work as:
 Gaussian 03, Revision B.05,
 M. J. Frisch, G. W. Trucks, H. B. Schlegel, G. E. Scuseria, 
 M. A. Robb, J. R. Cheeseman, J. A. Montgomery, Jr., T. Vreven, 
 K. N. Kudin, J. C. Burant, J. M. Millam, S. S. Iyengar, J. Tomasi, 
 V. Barone, B. Mennucci, M. Cossi, G. Scalmani, N. Rega, 
 G. A. Petersson, H. Nakatsuji, M. Hada, M. Ehara, K. Toyota, 
 R. Fukuda, J. Hasegawa, M. Ishida, T. Nakajima, Y. Honda, O. Kitao, 
 H. Nakai, M. Klene, X. Li, J. E. Knox, H. P. Hratchian, J. B. Cross, 
 C. Adamo, J. Jaramillo, R. Gomperts, R. E. Stratmann, O. Yazyev, 
 A. J. Austin, R. Cammi, C. Pomelli, J. W. Ochterski, P. Y. Ayala, 
 K. Morokuma, G. A. Voth, P. Salvador, J. J. Dannenberg, 
 V. G. Zakrzewski, S. Dapprich, A. D. Daniels, M. C. Strain, 
 O. Farkas, D. K. Malick, A. D. Rabuck, K. Raghavachari, 
 J. B. Foresman, J. V. Ortiz, Q. Cui, A. G. Baboul, S. Clifford, 
 J. Cioslowski, B. B. Stefanov, G. Liu, A. Liashenko, P. Piskorz, 
 I. Komaromi, R. L. Martin, D. J. Fox, T. Keith, M. A. Al-Laham, 
 C. Y. Peng, A. Nanayakkara, M. Challacombe, P. M. W. Gill, 
 B. Johnson, W. Chen, M. W. Wong, C. Gonzalez, and J. A. Pople, 
 Gaussian, Inc., Pittsburgh PA, 2003.
 
 **********************************************
 Gaussian 03:  x86-Win32-G03RevB.05  8-Nov-2003
                  21-May-2007 
 **********************************************
 %mem=36000000
 ----------------------------
 #HF/6-311+G(3df,2p) opt freq
 ----------------------------
 1/18=20,38=1/1,3;
 2/9=110,17=6,18=5,40=1/2;
 3/5=4,6=6,7=216,11=9,16=1,25=1,30=1/1,2,3;
 4//1;
 5/5=2,38=5/2;
 6/7=2,8=2,9=2,10=2,28=1/1;
 7//1,2,3,16;
 1/18=20/3(1);
 99//99;
 2/9=110/2;
 3/5=4,6=6,7=216,11=9,16=1,25=1,30=1/1,2,3;
 4/5=5,16=3/1;
 5/5=2,38=5/2;
 7//1,2,3,16;
 1/18=20/3(-5);
 2/9=110/2;
 6/7=2,8=2,9=2,10=2,19=2,28=1/1;
 99/9=1/99;
 -------------------------------------------------------------
 1himidaz 1H-Imidazole casno=288324 method=1 basis=10 config=1
 -------------------------------------------------------------
 Symbolic Z-matrix:
 Charge =  0 Multiplicity = 1
 N                    -0.74106  -0.96596   0. 
 H                    -0.01273   2.08825   0. 
 C                     1.10986   0.28827   0. 
 H                     2.10334   0.68144   0. 
 C                     0.63018  -0.97392   0. 
 H                     1.18224  -1.89044   0. 
 H                    -2.07716   0.65597   0. 
 C                    -1.07476   0.2791    0. 
 N                     0.        1.09512   0. 
 

 GradGradGradGradGradGradGradGradGradGradGradGradGradGradGradGradGradGrad
 Berny optimization.
 Initialization pass.
                           ----------------------------
                           !    Initial Parameters    !
                           ! (Angstroms and Degrees)  !
 --------------------------                            --------------------------
 ! Name  Definition              Value          Derivative Info.                !
 --------------------------------------------------------------------------------
 ! R1    R(1,5)                  1.3713         estimate D2E/DX2                !
 ! R2    R(1,8)                  1.289          estimate D2E/DX2                !
 ! R3    R(2,9)                  0.9932         estimate D2E/DX2                !
 ! R4    R(3,4)                  1.0684         estimate D2E/DX2                !
 ! R5    R(3,5)                  1.3503         estimate D2E/DX2                !
 ! R6    R(3,9)                  1.3721         estimate D2E/DX2                !
 ! R7    R(5,6)                  1.0699         estimate D2E/DX2                !
 ! R8    R(7,8)                  1.0709         estimate D2E/DX2                !
 ! R9    R(8,9)                  1.3494         estimate D2E/DX2                !
 ! A1    A(5,1,8)              105.3363         estimate D2E/DX2                !
 ! A2    A(4,3,5)              132.3996         estimate D2E/DX2                !
 ! A3    A(4,3,9)              122.3927         estimate D2E/DX2                !
 ! A4    A(5,3,9)              105.2077         estimate D2E/DX2                !
 ! A5    A(1,5,3)              110.476          estimate D2E/DX2                !
 ! A6    A(1,5,6)              121.3948         estimate D2E/DX2                !
 ! A7    A(3,5,6)              128.1292         estimate D2E/DX2                !
 ! A8    A(1,8,7)              125.6083         estimate D2E/DX2                !
 ! A9    A(1,8,9)              112.2043         estimate D2E/DX2                !
 ! A10   A(7,8,9)              122.1873         estimate D2E/DX2                !
 ! A11   A(2,9,3)              126.7509         estimate D2E/DX2                !
 ! A12   A(2,9,8)              126.4734         estimate D2E/DX2                !
 ! A13   A(3,9,8)              106.7757         estimate D2E/DX2                !
 ! D1    D(8,1,5,3)              0.0            estimate D2E/DX2                !
 ! D2    D(8,1,5,6)            180.0            estimate D2E/DX2                !
 ! D3    D(5,1,8,7)            180.0            estimate D2E/DX2                !
 ! D4    D(5,1,8,9)              0.0            estimate D2E/DX2                !
 ! D5    D(4,3,5,1)            180.0            estimate D2E/DX2                !
 ! D6    D(4,3,5,6)              0.0            estimate D2E/DX2                !
 ! D7    D(9,3,5,1)              0.0            estimate D2E/DX2                !
 ! D8    D(9,3,5,6)            180.0            estimate D2E/DX2                !
 ! D9    D(4,3,9,2)              0.0            estimate D2E/DX2                !
 ! D10   D(4,3,9,8)            180.0            estimate D2E/DX2                !
 ! D11   D(5,3,9,2)            180.0            estimate D2E/DX2                !
 ! D12   D(5,3,9,8)              0.0            estimate D2E/DX2                !
 ! D13   D(1,8,9,2)            180.0            estimate D2E/DX2                !
 ! D14   D(1,8,9,3)              0.0            estimate D2E/DX2                !
 ! D15   D(7,8,9,2)              0.0            estimate D2E/DX2                !
 ! D16   D(7,8,9,3)            180.0            estimate D2E/DX2                !
 --------------------------------------------------------------------------------
 Trust Radius=3.00D-01 FncErr=1.00D-07 GrdErr=1.00D-07
 Number of steps in this run=  48 maximum allowed number of steps= 100.
 GradGradGradGradGradGradGradGradGradGradGradGradGradGradGradGradGradGrad

                          Input orientation:                          
 ---------------------------------------------------------------------
 Center     Atomic     Atomic              Coordinates (Angstroms)
 Number     Number      Type              X           Y           Z
 ---------------------------------------------------------------------
    1          7             0       -0.741059   -0.965959    0.000000
    2          1             0       -0.012734    2.088247    0.000000
    3          6             0        1.109862    0.288272    0.000000
    4          1             0        2.103339    0.681436    0.000000
    5          6             0        0.630182   -0.973920    0.000000
    6          1             0        1.182239   -1.890444    0.000000
    7          1             0       -2.077162    0.655969    0.000000
    8          6             0       -1.074756    0.279096    0.000000
    9          7             0        0.000000    1.095117    0.000000
 ---------------------------------------------------------------------
                    Distance matrix (angstroms):
                    1          2          3          4          5
     1  N    0.000000
     2  H    3.139846   0.000000
     3  C    2.235845   2.121351   0.000000
     4  H    3.287021   2.541040   1.068445   0.000000
     5  C    1.371264   3.128931   1.350267   2.215941   0.000000
     6  H    2.133951   4.154268   2.179918   2.731848   1.069945
     7  H    2.101386   2.512625   3.208165   4.180579   3.160103
     8  C    1.288998   2.097837   2.184637   3.203461   2.115860
     9  N    2.190252   0.993212   1.372149   2.143634   2.162879
                    6          7          8          9
     6  H    0.000000
     7  H    4.136171   0.000000
     8  C    3.130644   1.070911   0.000000
     9  N    3.211116   2.123076   1.349441   0.000000
 Stoichiometry    C3H4N2
 Framework group  CS[SG(C3H4N2)]
 Deg. of freedom    15
 Full point group                 CS      NOp   2
 Largest Abelian subgroup         CS      NOp   2
 Largest concise Abelian subgroup C1      NOp   1
                         Standard orientation:                         
 ---------------------------------------------------------------------
 Center     Atomic     Atomic              Coordinates (Angstroms)
 Number     Number      Type              X           Y           Z
 ---------------------------------------------------------------------
    1          7             0       -0.741059   -0.965959    0.000000
    2          1             0       -0.012734    2.088247    0.000000
    3          6             0        1.109862    0.288272    0.000000
    4          1             0        2.103339    0.681436    0.000000
    5          6             0        0.630182   -0.973920    0.000000
    6          1             0        1.182239   -1.890444    0.000000
    7          1             0       -2.077162    0.655969    0.000000
    8          6             0       -1.074756    0.279096    0.000000
    9          7             0        0.000000    1.095117    0.000000
 ---------------------------------------------------------------------
 Rotational constants (GHZ):      9.9280198      9.6396664      4.8908592
 Standard basis: 6-311+G(3df,2p) (5D, 7F)
 There are   158 symmetry adapted basis functions of A'  symmetry.
 There are    73 symmetry adapted basis functions of A"  symmetry.
 Integral buffers will be    262144 words long.
 Raffenetti 1 integral format.
 Two-electron integral symmetry is turned on.
   231 basis functions,   334 primitive gaussians,   261 cartesian basis functions
    18 alpha electrons       18 beta electrons
       nuclear repulsion energy       164.9791768016 Hartrees.
 NAtoms=    9 NActive=    9 NUniq=    9 SFac= 1.00D+00 NAtFMM=   60 Big=F
 One-electron integrals computed using PRISM.
 NBasis=   231 RedAO= T  NBF=   158    73
 NBsUse=   231 1.00D-06 NBFU=   158    73
 Harris functional with IExCor=  205 diagonalized for initial guess.
 ExpMin= 4.38D-02 ExpMax= 6.29D+03 ExpMxC= 9.49D+02 IAcc=2 IRadAn=         4 AccDes= 0.00D+00
 HarFok:  IExCor= 205 AccDes= 0.00D+00 IRadAn=         4 IDoV=1
 ScaDFX=  1.000000  1.000000  1.000000  1.000000
 Initial guess orbital symmetries:
       Occupied  (A') (A') (A') (A') (A') (A') (A') (A') (A') (A')
                 (A') (A') (A') (A") (A') (A') (A") (A")
       Virtual   (A") (A") (A') (A') (A') (A') (A') (A') (A") (A')
                 (A") (A') (A") (A') (A') (A') (A') (A') (A') (A')
                 (A") (A') (A") (A') (A') (A') (A") (A') (A') (A')
                 (A') (A') (A') (A') (A") (A') (A") (A") (A") (A")
                 (A') (A') (A') (A') (A') (A') (A") (A') (A") (A")
                 (A') (A') (A') (A") (A') (A') (A') (A") (A') (A')
                 (A") (A') (A') (A") (A') (A") (A') (A') (A") (A')
                 (A") (A') (A') (A') (A") (A') (A') (A") (A") (A')
                 (A') (A') (A') (A") (A') (A') (A') (A") (A') (A')
                 (A') (A') (A') (A") (A') (A") (A') (A") (A') (A')
                 (A') (A") (A') (A') (A') (A') (A") (A") (A") (A')
                 (A') (A") (A') (A") (A') (A') (A') (A") (A") (A')
                 (A") (A') (A") (A') (A') (A") (A') (A") (A') (A')
                 (A") (A') (A") (A') (A') (A") (A") (A') (A') (A')
                 (A') (A') (A') (A') (A") (A') (A") (A') (A') (A')
                 (A") (A') (A") (A') (A') (A') (A") (A') (A") (A')
                 (A") (A') (A') (A") (A') (A") (A') (A") (A') (A")
                 (A") (A") (A') (A') (A') (A') (A') (A') (A') (A')
                 (A') (A') (A') (A") (A") (A") (A') (A") (A') (A")
                 (A") (A') (A') (A') (A') (A') (A') (A') (A") (A")
                 (A") (A') (A") (A') (A') (A') (A') (A') (A') (A')
                 (A') (A') (A')
 The electronic state of the initial guess is 1-A'.
 Requested convergence on RMS density matrix=1.00D-08 within 128 cycles.
 Requested convergence on MAX density matrix=1.00D-06.
 Requested convergence on             energy=1.00D-06.
 No special actions if energy rises.
 SCF Done:  E(RHF) =  -224.895347141     A.U. after   13 cycles
             Convg  =    0.6014D-08             -V/T =  2.0004
             S**2   =   0.0000

 **********************************************************************

            Population analysis using the SCF density.

 **********************************************************************

 Orbital symmetries:
       Occupied  (A') (A') (A') (A') (A') (A') (A') (A') (A') (A')
                 (A') (A') (A") (A') (A') (A') (A") (A")
       Virtual   (A') (A') (A') (A") (A') (A') (A") (A') (A") (A')
                 (A') (A") (A') (A') (A") (A") (A') (A') (A') (A')
                 (A") (A') (A') (A') (A') (A') (A') (A') (A") (A')
                 (A') (A') (A') (A") (A") (A') (A') (A") (A") (A')
                 (A') (A") (A') (A') (A') (A') (A") (A') (A") (A')
                 (A") (A') (A') (A') (A") (A') (A') (A") (A') (A")
                 (A') (A') (A') (A') (A") (A') (A') (A") (A") (A')
                 (A") (A') (A') (A') (A") (A') (A') (A") (A') (A")
                 (A') (A') (A') (A') (A') (A') (A") (A') (A') (A")
                 (A') (A') (A') (A") (A') (A') (A") (A") (A') (A')
                 (A') (A") (A') (A') (A') (A') (A") (A") (A") (A')
                 (A') (A") (A') (A") (A') (A') (A') (A") (A') (A")
                 (A") (A') (A") (A') (A') (A") (A') (A') (A") (A')
                 (A") (A') (A") (A') (A') (A") (A") (A') (A') (A')
                 (A') (A') (A') (A") (A') (A') (A") (A') (A') (A')
                 (A') (A") (A") (A') (A") (A') (A') (A') (A") (A')
                 (A") (A') (A') (A') (A") (A") (A') (A") (A") (A')
                 (A") (A') (A") (A') (A') (A') (A') (A') (A') (A')
                 (A') (A') (A') (A") (A") (A") (A') (A") (A') (A")
                 (A") (A') (A') (A') (A') (A') (A') (A') (A") (A")
                 (A") (A') (A") (A') (A') (A') (A') (A') (A') (A')
                 (A') (A') (A')
 The electronic state is 1-A'.
 Alpha  occ. eigenvalues --  -15.61750 -15.53877 -11.28993 -11.25606 -11.23735
 Alpha  occ. eigenvalues --   -1.35247  -1.17346  -1.01510  -0.83289  -0.80455
 Alpha  occ. eigenvalues --   -0.76536  -0.61521  -0.60582  -0.60469  -0.57367
 Alpha  occ. eigenvalues --   -0.43729  -0.40309  -0.32648
 Alpha virt. eigenvalues --    0.05513   0.07334   0.08608   0.09865   0.10226
 Alpha virt. eigenvalues --    0.11168   0.13313   0.13498   0.14802   0.14892
 Alpha virt. eigenvalues --    0.18254   0.18914   0.19752   0.20359   0.22792
 Alpha virt. eigenvalues --    0.26063   0.26758   0.28366   0.29125   0.29797
 Alpha virt. eigenvalues --    0.30255   0.30473   0.31887   0.33340   0.36089
 Alpha virt. eigenvalues --    0.36411   0.40264   0.43545   0.47049   0.50271
 Alpha virt. eigenvalues --    0.55675   0.55984   0.57943   0.58312   0.60684
 Alpha virt. eigenvalues --    0.61680   0.61964   0.62094   0.65391   0.66654
 Alpha virt. eigenvalues --    0.69439   0.71190   0.71383   0.73052   0.74768
 Alpha virt. eigenvalues --    0.75877   0.76624   0.81231   0.82160   0.84992
 Alpha virt. eigenvalues --    0.85393   0.86374   0.87905   0.88197   0.88735
 Alpha virt. eigenvalues --    0.91440   0.96464   0.97654   0.98721   1.06425
 Alpha virt. eigenvalues --    1.07712   1.09276   1.13384   1.15798   1.16179
 Alpha virt. eigenvalues --    1.19784   1.23346   1.23348   1.24606   1.26571
 Alpha virt. eigenvalues --    1.27667   1.29210   1.29819   1.36103   1.37111
 Alpha virt. eigenvalues --    1.38032   1.41226   1.42410   1.43723   1.44899
 Alpha virt. eigenvalues --    1.48703   1.56553   1.61372   1.63709   1.69282
 Alpha virt. eigenvalues --    1.70167   1.72888   1.78125   1.78844   1.83383
 Alpha virt. eigenvalues --    1.84642   1.88896   1.92102   1.98450   2.08707
 Alpha virt. eigenvalues --    2.11763   2.12215   2.19268   2.22702   2.34202
 Alpha virt. eigenvalues --    2.35950   2.36939   2.41317   2.47238   2.54513
 Alpha virt. eigenvalues --    2.62867   2.64594   2.66282   2.80849   2.83388
 Alpha virt. eigenvalues --    2.86442   2.93228   2.96662   3.00104   3.02232
 Alpha virt. eigenvalues --    3.07252   3.07911   3.15711   3.19112   3.20297
 Alpha virt. eigenvalues --    3.26261   3.27980   3.33765   3.34559   3.41191
 Alpha virt. eigenvalues --    3.41308   3.45698   3.49815   3.51514   3.56721
 Alpha virt. eigenvalues --    3.60956   3.65630   3.72448   3.72537   3.79448
 Alpha virt. eigenvalues --    3.83051   3.89709   3.89840   3.97559   4.07583
 Alpha virt. eigenvalues --    4.10733   4.15181   4.18442   4.19908   4.25365
 Alpha virt. eigenvalues --    4.29041   4.35688   4.36002   4.39002   4.41003
 Alpha virt. eigenvalues --    4.44974   4.45882   4.51448   4.55007   4.63022
 Alpha virt. eigenvalues --    4.64732   4.66465   4.69117   4.76962   4.82602
 Alpha virt. eigenvalues --    4.84194   4.94269   5.01285   5.08264   5.08486
 Alpha virt. eigenvalues --    5.14051   5.26470   5.26963   5.35384   5.37328
 Alpha virt. eigenvalues --    5.39995   5.48665   5.52532   5.63304   5.75336
 Alpha virt. eigenvalues --    5.87966   5.97334   6.30397   6.53227   6.61501
 Alpha virt. eigenvalues --    6.78847   7.05124   7.24320   7.57967   7.63267
 Alpha virt. eigenvalues --    7.73503   7.76938   7.76995   7.83022   7.84219
 Alpha virt. eigenvalues --    8.03412   8.04589   8.28634   8.43711   8.49588
 Alpha virt. eigenvalues --    8.64680   8.80916   8.92928  10.97685  11.04704
 Alpha virt. eigenvalues --   11.11098  11.16431  11.27787  11.31835  11.64679
 Alpha virt. eigenvalues --   11.71514  11.87360  12.55729  25.69128  26.34357
 Alpha virt. eigenvalues --   26.88764  37.63648  37.88442
          Condensed to atoms (all electrons):
              1          2          3          4          5          6
     1  N    8.100554   0.004926  -0.037410   0.000487   0.093975  -0.061857
     2  H    0.004926   0.483197  -0.059593  -0.000149   0.012709  -0.000018
     3  C   -0.037410  -0.059593   5.461832   0.489902   0.063874  -0.099648
     4  H    0.000487  -0.000149   0.489902   0.455586  -0.080681  -0.000913
     5  C    0.093975   0.012709   0.063874  -0.080681   5.314648   0.521934
     6  H   -0.061857  -0.000018  -0.099648  -0.000913   0.521934   0.467600
     7  H   -0.070289  -0.000973  -0.005962  -0.000111   0.009932  -0.000080
     8  C    0.256702  -0.048165  -0.172589   0.004552  -0.064767   0.009932
     9  N   -0.189117   0.454641   0.147593  -0.037357  -0.145644   0.006499
              7          8          9
     1  N   -0.070289   0.256702  -0.189117
     2  H   -0.000973  -0.048165   0.454641
     3  C   -0.005962  -0.172589   0.147593
     4  H   -0.000111   0.004552  -0.037357
     5  C    0.009932  -0.064767  -0.145644
     6  H   -0.000080   0.009932   0.006499
     7  H    0.472541   0.488589  -0.055970
     8  C    0.488589   4.393141   0.200140
     9  N   -0.055970   0.200140   7.580709
 Mulliken atomic charges:
              1
     1  N   -1.097972
     2  H    0.153423
     3  C    0.212002
     4  H    0.168684
     5  C    0.274020
     6  H    0.156551
     7  H    0.162322
     8  C    0.932465
     9  N   -0.961495
 Sum of Mulliken charges=   0.00000
 Atomic charges with hydrogens summed into heavy atoms:
              1
     1  N   -1.097972
     2  H    0.000000
     3  C    0.380685
     4  H    0.000000
     5  C    0.430571
     6  H    0.000000
     7  H    0.000000
     8  C    1.094787
     9  N   -0.808072
 Sum of Mulliken charges=   0.00000
 Electronic spatial extent (au):  <R**2>=   281.4665
 Charge=     0.0000 electrons
 Dipole moment (field-independent basis, Debye):
    X=     1.0733    Y=     3.6520    Z=     0.0000  Tot=     3.8065
 Quadrupole moment (field-independent basis, Debye-Ang):
   XX=   -26.7288   YY=   -25.9317   ZZ=   -32.4572
   XY=    -3.5236   XZ=     0.0000   YZ=     0.0000
 Traceless Quadrupole moment (field-independent basis, Debye-Ang):
   XX=     1.6438   YY=     2.4409   ZZ=    -4.0847
   XY=    -3.5236   XZ=     0.0000   YZ=     0.0000
 Octapole moment (field-independent basis, Debye-Ang**2):
  XXX=    -0.1710  YYY=    16.1264  ZZZ=     0.0000  XYY=     6.0029
  XXY=     7.2618  XXZ=     0.0000  XZZ=    -1.3767  YZZ=     1.4457
  YYZ=     0.0000  XYZ=     0.0000
 Hexadecapole moment (field-independent basis, Debye-Ang**3):
 XXXX=  -156.0983 YYYY=  -137.6864 ZZZZ=   -36.8723 XXXY=    -3.5158
 XXXZ=     0.0000 YYYX=   -10.1027 YYYZ=     0.0000 ZZZX=     0.0000
 ZZZY=     0.0000 XXYY=   -57.5877 XXZZ=   -40.3640 YYZZ=   -37.0895
 XXYZ=     0.0000 YYXZ=     0.0000 ZZXY=     0.5375
 N-N= 1.649791768016D+02 E-N=-8.556630553420D+02  KE= 2.248133805848D+02
 Symmetry A'   KE= 2.170802143882D+02
 Symmetry A"   KE= 7.733166196623D+00
 ***** Axes restored to original set *****
 -------------------------------------------------------------------
 Center     Atomic                   Forces (Hartrees/Bohr)
 Number     Number              X              Y              Z
 -------------------------------------------------------------------
    1          7           0.001069474    0.005697867    0.000000000
    2          1          -0.000252578   -0.003657911    0.000000000
    3          6          -0.002725650   -0.000784706    0.000000000
    4          1          -0.001209916   -0.001023498    0.000000000
    5          6           0.000984944    0.000867781    0.000000000
    6          1          -0.000480576    0.001514323    0.000000000
    7          1           0.000948559   -0.000429598    0.000000000
    8          6           0.002675353   -0.000941493    0.000000000
    9          7          -0.001009609   -0.001242766    0.000000000
 -------------------------------------------------------------------
 Cartesian Forces:  Max     0.005697867 RMS     0.001650469

 GradGradGradGradGradGradGradGradGradGradGradGradGradGradGradGradGradGrad
 Berny optimization.
 Internal  Forces:  Max     0.004531347 RMS     0.001524318
 Search for a local minimum.
 Step number   1 out of a maximum of  48
 All quantities printed in internal units (Hartrees-Bohrs-Radians)
 Second derivative matrix not updated -- first step.
     Eigenvalues ---    0.02198   0.02341   0.02379   0.02551   0.02603
     Eigenvalues ---    0.02705   0.16000   0.16000   0.16000   0.16000
     Eigenvalues ---    0.22000   0.22911   0.37115   0.37237   0.37427
     Eigenvalues ---    0.45111   0.47811   0.48902   0.51454   0.54834
     Eigenvalues ---    0.671221000.000001000.000001000.000001000.00000
     Eigenvalues --- 1000.000001000.000001000.000001000.000001000.00000
     Eigenvalues --- 1000.000001000.000001000.000001000.000001000.00000
     Eigenvalues --- 1000.000001000.000001000.00000
 RFO step:  Lambda=-1.73628325D-04.
 Linear search not attempted -- first point.
 Iteration  1 RMS(Cart)=  0.00395659 RMS(Int)=  0.00000400
 Iteration  2 RMS(Cart)=  0.00000465 RMS(Int)=  0.00000029
 Iteration  3 RMS(Cart)=  0.00000000 RMS(Int)=  0.00000029
 Variable       Old X    -DE/DX   Delta X   Delta X   Delta X     New X
                                 (Linear)    (Quad)   (Total)
    R1        2.59131  -0.00164   0.00000  -0.00304  -0.00304   2.58827
    R2        2.43585  -0.00453   0.00000  -0.00661  -0.00661   2.42924
    R3        1.87690  -0.00365   0.00000  -0.00747  -0.00747   1.86943
    R4        2.01907  -0.00150   0.00000  -0.00401  -0.00401   2.01506
    R5        2.55164  -0.00408   0.00000  -0.00709  -0.00709   2.54454
    R6        2.59299  -0.00246   0.00000  -0.00485  -0.00485   2.58814
    R7        2.02190  -0.00155   0.00000  -0.00415  -0.00415   2.01776
    R8        2.02373  -0.00104   0.00000  -0.00280  -0.00280   2.02093
    R9        2.55007  -0.00434   0.00000  -0.00818  -0.00818   2.54190
    A1        1.83847   0.00097   0.00000   0.00383   0.00383   1.84229
    A2        2.31081  -0.00054   0.00000  -0.00377  -0.00377   2.30704
    A3        2.13616   0.00048   0.00000   0.00262   0.00262   2.13877
    A4        1.83622   0.00006   0.00000   0.00115   0.00115   1.83737
    A5        1.92817  -0.00113   0.00000  -0.00395  -0.00395   1.92422
    A6        2.11874   0.00094   0.00000   0.00431   0.00431   2.12305
    A7        2.23628   0.00019   0.00000  -0.00036  -0.00036   2.23592
    A8        2.19228   0.00013   0.00000   0.00099   0.00099   2.19327
    A9        1.95834  -0.00041   0.00000  -0.00285  -0.00285   1.95549
   A10        2.13257   0.00027   0.00000   0.00185   0.00186   2.13443
   A11        2.21222   0.00002   0.00000   0.00085   0.00085   2.21307
   A12        2.20738  -0.00054   0.00000  -0.00266  -0.00266   2.20471
   A13        1.86359   0.00051   0.00000   0.00182   0.00182   1.86540
    D1        0.00000   0.00000   0.00000   0.00000   0.00000   0.00000
    D2        3.14159   0.00000   0.00000   0.00000   0.00000   3.14159
    D3        3.14159   0.00000   0.00000   0.00000   0.00000   3.14159
    D4        0.00000   0.00000   0.00000   0.00000   0.00000   0.00000
    D5        3.14159   0.00000   0.00000   0.00000   0.00000   3.14159
    D6        0.00000   0.00000   0.00000   0.00000   0.00000   0.00000
    D7        0.00000   0.00000   0.00000   0.00000   0.00000   0.00000
    D8        3.14159   0.00000   0.00000   0.00000   0.00000   3.14159
    D9        0.00000   0.00000   0.00000   0.00000   0.00000   0.00000
   D10        3.14159   0.00000   0.00000   0.00000   0.00000   3.14159
   D11        3.14159   0.00000   0.00000   0.00000   0.00000   3.14159
   D12        0.00000   0.00000   0.00000   0.00000   0.00000   0.00000
   D13        3.14159   0.00000   0.00000   0.00000   0.00000   3.14159
   D14        0.00000   0.00000   0.00000   0.00000   0.00000   0.00000
   D15        0.00000   0.00000   0.00000   0.00000   0.00000   0.00000
   D16        3.14159   0.00000   0.00000   0.00000   0.00000   3.14159
         Item               Value     Threshold  Converged?
 Maximum Force            0.004531     0.000450     NO 
 RMS     Force            0.001524     0.000300     NO 
 Maximum Displacement     0.012634     0.001800     NO 
 RMS     Displacement     0.003957     0.001200     NO 
 Predicted change in Energy=-8.684700D-05
 GradGradGradGradGradGradGradGradGradGradGradGradGradGradGradGradGradGrad

                          Input orientation:                          
 ---------------------------------------------------------------------
 Center     Atomic     Atomic              Coordinates (Angstroms)
 Number     Number      Type              X           Y           Z
 ---------------------------------------------------------------------
    1          7             0       -0.738813   -0.960579    0.000000
    2          1             0       -0.014401    2.081561    0.000000
    3          6             0        1.107366    0.287347    0.000000
    4          1             0        2.099793    0.677390    0.000000
    5          6             0        0.630795   -0.972011    0.000000
    6          1             0        1.183335   -1.885680    0.000000
    7          1             0       -2.074334    0.656722    0.000000
    8          6             0       -1.073203    0.280666    0.000000
    9          7             0       -0.000627    1.092398    0.000000
 ---------------------------------------------------------------------
                    Distance matrix (angstroms):
                    1          2          3          4          5
     1  N    0.000000
     2  H    3.127201   0.000000
     3  C    2.228384   2.116026   0.000000
     4  H    3.277289   2.538014   1.066323   0.000000
     5  C    1.369655   3.120990   1.346515   2.208728   0.000000
     6  H    2.133182   4.144101   2.174354   2.721988   1.067751
     7  H    2.097445   2.504694   3.203069   4.174178   3.157609
     8  C    1.285498   2.089087   2.180579   3.197701   2.114901
     9  N    2.181659   0.989259   1.369583   2.141026   2.158814
                    6          7          8          9
     6  H    0.000000
     7  H    4.132338   0.000000
     8  C    3.128101   1.069431   0.000000
     9  N    3.204796   2.118980   1.345113   0.000000
 Stoichiometry    C3H4N2
 Framework group  CS[SG(C3H4N2)]
 Deg. of freedom    15
 Full point group                 CS      NOp   2
 Largest Abelian subgroup         CS      NOp   2
 Largest concise Abelian subgroup C1      NOp   1
                         Standard orientation:                         
 ---------------------------------------------------------------------
 Center     Atomic     Atomic              Coordinates (Angstroms)
 Number     Number      Type              X           Y           Z
 ---------------------------------------------------------------------
    1          7             0       -0.739786   -0.960801    0.000000
    2          1             0       -0.013004    2.080774    0.000000
    3          6             0        1.107365    0.285685    0.000000
    4          1             0        2.100095    0.674955    0.000000
    5          6             0        0.629812   -0.973301    0.000000
    6          1             0        1.181641   -1.887400    0.000000
    7          1             0       -2.074046    0.657540    0.000000
    8          6             0       -1.073208    0.280704    0.000000
    9          7             0        0.000000    1.091600    0.000000
 ---------------------------------------------------------------------
 Rotational constants (GHZ):      9.9454481      9.7128397      4.9138839
 Standard basis: 6-311+G(3df,2p) (5D, 7F)
 There are   158 symmetry adapted basis functions of A'  symmetry.
 There are    73 symmetry adapted basis functions of A"  symmetry.
 Integral buffers will be    262144 words long.
 Raffenetti 1 integral format.
 Two-electron integral symmetry is turned on.
   231 basis functions,   334 primitive gaussians,   261 cartesian basis functions
    18 alpha electrons       18 beta electrons
       nuclear repulsion energy       165.3665320713 Hartrees.
 NAtoms=    9 NActive=    9 NUniq=    9 SFac= 1.00D+00 NAtFMM=   60 Big=F
 One-electron integrals computed using PRISM.
 NBasis=   231 RedAO= T  NBF=   158    73
 NBsUse=   231 1.00D-06 NBFU=   158    73
 Initial guess read from the read-write file:
 Initial guess orbital symmetries:
       Occupied  (A') (A') (A') (A') (A') (A') (A') (A') (A') (A')
                 (A') (A') (A") (A') (A') (A') (A") (A")
       Virtual   (A') (A') (A') (A") (A') (A') (A") (A') (A") (A')
                 (A') (A") (A') (A') (A") (A") (A') (A') (A') (A')
                 (A") (A') (A') (A') (A') (A') (A') (A') (A") (A')
                 (A') (A') (A') (A") (A") (A') (A') (A") (A") (A')
                 (A') (A") (A') (A') (A') (A') (A") (A') (A") (A')
                 (A") (A') (A') (A') (A") (A') (A') (A") (A') (A")
                 (A') (A') (A') (A') (A") (A') (A') (A") (A") (A')
                 (A") (A') (A') (A') (A") (A') (A') (A") (A') (A")
                 (A') (A') (A') (A') (A') (A') (A") (A') (A') (A")
                 (A') (A') (A') (A") (A') (A') (A") (A") (A') (A')
                 (A') (A") (A') (A') (A') (A') (A") (A") (A") (A')
                 (A') (A") (A') (A") (A') (A') (A') (A") (A') (A")
                 (A") (A') (A") (A') (A') (A") (A') (A') (A") (A')
                 (A") (A') (A") (A') (A') (A") (A") (A') (A') (A')
                 (A') (A') (A') (A") (A') (A') (A") (A') (A') (A')
                 (A') (A") (A") (A') (A") (A') (A') (A') (A") (A')
                 (A") (A') (A') (A') (A") (A") (A') (A") (A") (A')
                 (A") (A') (A") (A') (A') (A') (A') (A') (A') (A')
                 (A') (A') (A') (A") (A") (A") (A') (A") (A') (A")
                 (A") (A') (A') (A') (A') (A') (A') (A') (A") (A")
                 (A") (A') (A") (A') (A') (A') (A') (A') (A') (A')
                 (A') (A') (A')
 Requested convergence on RMS density matrix=1.00D-08 within 128 cycles.
 Requested convergence on MAX density matrix=1.00D-06.
 Requested convergence on             energy=1.00D-06.
 No special actions if energy rises.
 SCF Done:  E(RHF) =  -224.895421695     A.U. after    9 cycles
             Convg  =    0.9129D-08             -V/T =  2.0001
             S**2   =   0.0000
 ***** Axes restored to original set *****
 -------------------------------------------------------------------
 Center     Atomic                   Forces (Hartrees/Bohr)
 Number     Number              X              Y              Z
 -------------------------------------------------------------------
    1          7          -0.000739662   -0.000835197    0.000000000
    2          1           0.000048055    0.000424001    0.000000000
    3          6          -0.000116231    0.000948355    0.000000000
    4          1           0.000217822    0.000009213    0.000000000
    5          6          -0.000357537   -0.000400487    0.000000000
    6          1           0.000031962   -0.000095966    0.000000000
    7          1          -0.000138004   -0.000005270    0.000000000
    8          6           0.000601591   -0.000427656    0.000000000
    9          7           0.000452004    0.000383007    0.000000000
 -------------------------------------------------------------------
 Cartesian Forces:  Max     0.000948355 RMS     0.000365173

 GradGradGradGradGradGradGradGradGradGradGradGradGradGradGradGradGradGrad
 Berny optimization.
 Internal  Forces:  Max     0.001006823 RMS     0.000291858
 Search for a local minimum.
 Step number   2 out of a maximum of  48
 All quantities printed in internal units (Hartrees-Bohrs-Radians)
 Update second derivatives using D2CorX and points  1  2
 Trust test= 8.58D-01 RLast= 1.96D-02 DXMaxT set to 3.00D-01
     Eigenvalues ---    0.02198   0.02340   0.02378   0.02550   0.02603
     Eigenvalues ---    0.02705   0.15831   0.16000   0.16000   0.16026
     Eigenvalues ---    0.21916   0.24317   0.37144   0.37219   0.37622
     Eigenvalues ---    0.44603   0.47708   0.49159   0.50638   0.60098
     Eigenvalues ---    0.681461000.000001000.000001000.000001000.00000
     Eigenvalues --- 1000.000001000.000001000.000001000.000001000.00000
     Eigenvalues --- 1000.000001000.000001000.000001000.000001000.00000
     Eigenvalues --- 1000.000001000.000001000.00000
 RFO step:  Lambda=-4.51176088D-06.
 Quartic linear search produced a step of -0.12556.
 Iteration  1 RMS(Cart)=  0.00082482 RMS(Int)=  0.00000049
 Iteration  2 RMS(Cart)=  0.00000051 RMS(Int)=  0.00000014
 Variable       Old X    -DE/DX   Delta X   Delta X   Delta X     New X
                                 (Linear)    (Quad)   (Total)
    R1        2.58827   0.00013   0.00038  -0.00023   0.00015   2.58843
    R2        2.42924   0.00026   0.00083  -0.00071   0.00012   2.42936
    R3        1.86943   0.00042   0.00094  -0.00038   0.00055   1.86998
    R4        2.01506   0.00021   0.00050  -0.00013   0.00037   2.01543
    R5        2.54454   0.00101   0.00089   0.00055   0.00144   2.54598
    R6        2.58814  -0.00032   0.00061  -0.00129  -0.00068   2.58746
    R7        2.01776   0.00010   0.00052  -0.00040   0.00012   2.01787
    R8        2.02093   0.00013   0.00035  -0.00013   0.00022   2.02115
    R9        2.54190   0.00063   0.00103  -0.00027   0.00076   2.54265
    A1        1.84229  -0.00063  -0.00048  -0.00172  -0.00220   1.84010
    A2        2.30704  -0.00008   0.00047  -0.00104  -0.00057   2.30647
    A3        2.13877   0.00006  -0.00033   0.00074   0.00041   2.13918
    A4        1.83737   0.00002  -0.00014   0.00030   0.00016   1.83753
    A5        1.92422   0.00027   0.00050   0.00050   0.00100   1.92522
    A6        2.12305  -0.00016  -0.00054  -0.00001  -0.00055   2.12249
    A7        2.23592  -0.00011   0.00004  -0.00049  -0.00045   2.23547
    A8        2.19327  -0.00039  -0.00012  -0.00141  -0.00153   2.19174
    A9        1.95549   0.00068   0.00036   0.00209   0.00245   1.95794
   A10        2.13443  -0.00028  -0.00023  -0.00068  -0.00092   2.13351
   A11        2.21307   0.00012  -0.00011   0.00059   0.00048   2.21355
   A12        2.20471   0.00022   0.00033   0.00059   0.00093   2.20564
   A13        1.86540  -0.00034  -0.00023  -0.00118  -0.00141   1.86400
    D1        0.00000   0.00000   0.00000   0.00000   0.00000   0.00000
    D2        3.14159   0.00000   0.00000   0.00000   0.00000   3.14159
    D3        3.14159   0.00000   0.00000   0.00000   0.00000   3.14159
    D4        0.00000   0.00000   0.00000   0.00000   0.00000   0.00000
    D5        3.14159   0.00000   0.00000   0.00000   0.00000   3.14159
    D6        0.00000   0.00000   0.00000   0.00000   0.00000   0.00000
    D7        0.00000   0.00000   0.00000   0.00000   0.00000   0.00000
    D8        3.14159   0.00000   0.00000   0.00000   0.00000   3.14159
    D9        0.00000   0.00000   0.00000   0.00000   0.00000   0.00000
   D10        3.14159   0.00000   0.00000   0.00000   0.00000   3.14159
   D11        3.14159   0.00000   0.00000   0.00000   0.00000   3.14159
   D12        0.00000   0.00000   0.00000   0.00000   0.00000   0.00000
   D13        3.14159   0.00000   0.00000   0.00000   0.00000   3.14159
   D14        0.00000   0.00000   0.00000   0.00000   0.00000   0.00000
   D15        0.00000   0.00000   0.00000   0.00000   0.00000   0.00000
   D16        3.14159   0.00000   0.00000   0.00000   0.00000   3.14159
         Item               Value     Threshold  Converged?
 Maximum Force            0.001007     0.000450     NO 
 RMS     Force            0.000292     0.000300     YES
 Maximum Displacement     0.002160     0.001800     NO 
 RMS     Displacement     0.000825     0.001200     YES
 Predicted change in Energy=-3.849450D-06
 GradGradGradGradGradGradGradGradGradGradGradGradGradGradGradGradGradGrad

                          Input orientation:                          
 ---------------------------------------------------------------------
 Center     Atomic     Atomic              Coordinates (Angstroms)
 Number     Number      Type              X           Y           Z
 ---------------------------------------------------------------------
    1          7             0       -0.739631   -0.961722    0.000000
    2          1             0       -0.014248    2.082627    0.000000
    3          6             0        1.107120    0.287970    0.000000
    4          1             0        2.100015    0.677356    0.000000
    5          6             0        0.630066   -0.972020    0.000000
    6          1             0        1.182890   -1.885589    0.000000
    7          1             0       -2.073642    0.655976    0.000000
    8          6             0       -1.072339    0.280042    0.000000
    9          7             0       -0.000319    1.093174    0.000000
 ---------------------------------------------------------------------
                    Distance matrix (angstroms):
                    1          2          3          4          5
     1  N    0.000000
     2  H    3.129575   0.000000
     3  C    2.229847   2.116190   0.000000
     4  H    3.278745   2.538680   1.066519   0.000000
     5  C    1.369736   3.121860   1.347277   2.209342   0.000000
     6  H    2.132984   4.144862   2.174879   2.722096   1.067813
     7  H    2.096790   2.505282   3.201980   4.173712   3.156011
     8  C    1.285563   2.090184   2.179473   3.197138   2.113253
     9  N    2.183845   0.989552   1.369224   2.141100   2.159261
                    6          7          8          9
     6  H    0.000000
     7  H    4.130927   0.000000
     8  C    3.126662   1.069548   0.000000
     9  N    3.205154   2.118917   1.345515   0.000000
 Stoichiometry    C3H4N2
 Framework group  CS[SG(C3H4N2)]
 Deg. of freedom    15
 Full point group                 CS      NOp   2
 Largest Abelian subgroup         CS      NOp   2
 Largest concise Abelian subgroup C1      NOp   1
                         Standard orientation:                         
 ---------------------------------------------------------------------
 Center     Atomic     Atomic              Coordinates (Angstroms)
 Number     Number      Type              X           Y           Z
 ---------------------------------------------------------------------
    1          7             0       -0.740144   -0.962158    0.000000
    2          1             0       -0.013528    2.081897    0.000000
    3          6             0        1.107113    0.286786    0.000000
    4          1             0        2.100166    0.675769    0.000000
    5          6             0        0.629548   -0.973011    0.000000
    6          1             0        1.182003   -1.886804    0.000000
    7          1             0       -2.073500    0.656080    0.000000
    8          6             0       -1.072349    0.279741    0.000000
    9          7             0        0.000000    1.092438    0.000000
 ---------------------------------------------------------------------
 Rotational constants (GHZ):      9.9562074      9.6967315      4.9123783
 Standard basis: 6-311+G(3df,2p) (5D, 7F)
 There are   158 symmetry adapted basis functions of A'  symmetry.
 There are    73 symmetry adapted basis functions of A"  symmetry.
 Integral buffers will be    262144 words long.
 Raffenetti 1 integral format.
 Two-electron integral symmetry is turned on.
   231 basis functions,   334 primitive gaussians,   261 cartesian basis functions
    18 alpha electrons       18 beta electrons
       nuclear repulsion energy       165.3433901775 Hartrees.
 NAtoms=    9 NActive=    9 NUniq=    9 SFac= 1.00D+00 NAtFMM=   60 Big=F
 One-electron integrals computed using PRISM.
 NBasis=   231 RedAO= T  NBF=   158    73
 NBsUse=   231 1.00D-06 NBFU=   158    73
 Initial guess read from the read-write file:
 Initial guess orbital symmetries:
       Occupied  (A') (A') (A') (A') (A') (A') (A') (A') (A') (A')
                 (A') (A') (A") (A') (A') (A') (A") (A")
       Virtual   (A') (A') (A') (A") (A') (A') (A") (A') (A") (A')
                 (A') (A") (A') (A') (A") (A") (A') (A') (A') (A')
                 (A") (A') (A') (A') (A') (A') (A') (A') (A") (A')
                 (A') (A') (A') (A") (A") (A') (A') (A") (A") (A')
                 (A') (A") (A') (A') (A') (A') (A") (A') (A") (A')
                 (A") (A') (A') (A') (A") (A') (A') (A") (A') (A")
                 (A') (A') (A') (A') (A") (A') (A") (A') (A") (A')
                 (A") (A') (A') (A') (A") (A') (A') (A") (A') (A")
                 (A') (A') (A') (A') (A') (A') (A") (A') (A') (A")
                 (A') (A') (A') (A") (A') (A') (A") (A") (A') (A')
                 (A') (A") (A') (A') (A') (A') (A") (A") (A") (A')
                 (A') (A") (A') (A") (A') (A') (A') (A") (A') (A")
                 (A") (A') (A") (A') (A') (A") (A') (A') (A") (A')
                 (A") (A') (A") (A') (A') (A") (A') (A") (A') (A')
                 (A') (A') (A') (A") (A') (A') (A") (A') (A') (A')
                 (A') (A") (A") (A') (A") (A') (A') (A') (A") (A')
                 (A") (A') (A') (A') (A") (A") (A') (A") (A") (A')
                 (A") (A') (A") (A') (A') (A') (A') (A') (A') (A')
                 (A') (A') (A') (A") (A") (A") (A') (A") (A') (A")
                 (A") (A') (A') (A') (A') (A') (A') (A') (A") (A")
                 (A") (A') (A") (A') (A') (A') (A') (A') (A') (A')
                 (A') (A') (A')
 Requested convergence on RMS density matrix=1.00D-08 within 128 cycles.
 Requested convergence on MAX density matrix=1.00D-06.
 Requested convergence on             energy=1.00D-06.
 No special actions if energy rises.
 SCF Done:  E(RHF) =  -224.895424457     A.U. after    8 cycles
             Convg  =    0.5058D-08             -V/T =  2.0001
             S**2   =   0.0000
 ***** Axes restored to original set *****
 -------------------------------------------------------------------
 Center     Atomic                   Forces (Hartrees/Bohr)
 Number     Number              X              Y              Z
 -------------------------------------------------------------------
    1          7           0.000073449    0.000183023    0.000000000
    2          1          -0.000043113    0.000084782    0.000000000
    3          6           0.000090766    0.000065601    0.000000000
    4          1           0.000077895   -0.000058235    0.000000000
    5          6           0.000244290   -0.000196775    0.000000000
    6          1           0.000077121   -0.000038569    0.000000000
    7          1          -0.000075760    0.000041311    0.000000000
    8          6          -0.000473954    0.000161691    0.000000000
    9          7           0.000029306   -0.000242829    0.000000000
 -------------------------------------------------------------------
 Cartesian Forces:  Max     0.000473954 RMS     0.000135239

 GradGradGradGradGradGradGradGradGradGradGradGradGradGradGradGradGradGrad
 Berny optimization.
 Internal  Forces:  Max     0.000289327 RMS     0.000107951
 Search for a local minimum.
 Step number   3 out of a maximum of  48
 All quantities printed in internal units (Hartrees-Bohrs-Radians)
 Update second derivatives using D2CorX and points  1  2  3
 Trust test= 7.18D-01 RLast= 4.77D-03 DXMaxT set to 3.00D-01
     Eigenvalues ---    0.02198   0.02341   0.02378   0.02550   0.02603
     Eigenvalues ---    0.02705   0.15182   0.16000   0.16000   0.16051
     Eigenvalues ---    0.22096   0.34253   0.37104   0.37310   0.37487
     Eigenvalues ---    0.44249   0.47935   0.49041   0.53028   0.59495
     Eigenvalues ---    0.672861000.000001000.000001000.000001000.00000
     Eigenvalues --- 1000.000001000.000001000.000001000.000001000.00000
     Eigenvalues --- 1000.000001000.000001000.000001000.000001000.00000
     Eigenvalues --- 1000.000001000.000001000.00000
 RFO step:  Lambda=-5.84966128D-07.
 Quartic linear search produced a step of -0.21865.
 Iteration  1 RMS(Cart)=  0.00033516 RMS(Int)=  0.00000005
 Iteration  2 RMS(Cart)=  0.00000005 RMS(Int)=  0.00000002
 Variable       Old X    -DE/DX   Delta X   Delta X   Delta X     New X
                                 (Linear)    (Quad)   (Total)
    R1        2.58843   0.00024  -0.00003   0.00042   0.00038   2.58881
    R2        2.42936   0.00010  -0.00003   0.00019   0.00016   2.42952
    R3        1.86998   0.00009  -0.00012   0.00033   0.00021   1.87020
    R4        2.01543   0.00005  -0.00008   0.00023   0.00015   2.01558
    R5        2.54598   0.00000  -0.00031   0.00046   0.00014   2.54613
    R6        2.58746   0.00022   0.00015   0.00014   0.00028   2.58774
    R7        2.01787   0.00007  -0.00003   0.00020   0.00018   2.01805
    R8        2.02115   0.00009  -0.00005   0.00025   0.00020   2.02136
    R9        2.54265   0.00008  -0.00017   0.00038   0.00022   2.54287
    A1        1.84010   0.00026   0.00048   0.00019   0.00067   1.84076
    A2        2.30647  -0.00008   0.00012  -0.00050  -0.00038   2.30610
    A3        2.13918   0.00009  -0.00009   0.00053   0.00044   2.13962
    A4        1.83753  -0.00001  -0.00003  -0.00003  -0.00006   1.83747
    A5        1.92522  -0.00015  -0.00022  -0.00015  -0.00037   1.92485
    A6        2.12249   0.00012   0.00012   0.00026   0.00038   2.12288
    A7        2.23547   0.00003   0.00010  -0.00011  -0.00001   2.23546
    A8        2.19174   0.00016   0.00033   0.00007   0.00040   2.19214
    A9        1.95794  -0.00029  -0.00054  -0.00020  -0.00073   1.95720
   A10        2.13351   0.00013   0.00020   0.00013   0.00033   2.13384
   A11        2.21355  -0.00005  -0.00010   0.00001  -0.00009   2.21345
   A12        2.20564  -0.00013  -0.00020  -0.00020  -0.00040   2.20524
   A13        1.86400   0.00019   0.00031   0.00019   0.00050   1.86449
    D1        0.00000   0.00000   0.00000   0.00000   0.00000   0.00000
    D2        3.14159   0.00000   0.00000   0.00000   0.00000   3.14159
    D3        3.14159   0.00000   0.00000   0.00000   0.00000   3.14159
    D4        0.00000   0.00000   0.00000   0.00000   0.00000   0.00000
    D5        3.14159   0.00000   0.00000   0.00000   0.00000   3.14159
    D6        0.00000   0.00000   0.00000   0.00000   0.00000   0.00000
    D7        0.00000   0.00000   0.00000   0.00000   0.00000   0.00000
    D8        3.14159   0.00000   0.00000   0.00000   0.00000   3.14159
    D9        0.00000   0.00000   0.00000   0.00000   0.00000   0.00000
   D10        3.14159   0.00000   0.00000   0.00000   0.00000   3.14159
   D11        3.14159   0.00000   0.00000   0.00000   0.00000   3.14159
   D12        0.00000   0.00000   0.00000   0.00000   0.00000   0.00000
   D13        3.14159   0.00000   0.00000   0.00000   0.00000   3.14159
   D14        0.00000   0.00000   0.00000   0.00000   0.00000   0.00000
   D15        0.00000   0.00000   0.00000   0.00000   0.00000   0.00000
   D16        3.14159   0.00000   0.00000   0.00000   0.00000   3.14159
         Item               Value     Threshold  Converged?
 Maximum Force            0.000289     0.000450     YES
 RMS     Force            0.000108     0.000300     YES
 Maximum Displacement     0.001040     0.001800     YES
 RMS     Displacement     0.000335     0.001200     YES
 Predicted change in Energy=-5.268204D-07
 Optimization completed.
    -- Stationary point found.
                           ----------------------------
                           !   Optimized Parameters   !
                           ! (Angstroms and Degrees)  !
 --------------------------                            --------------------------
 ! Name  Definition              Value          Derivative Info.                !
 --------------------------------------------------------------------------------
 ! R1    R(1,5)                  1.3697         -DE/DX =    0.0002              !
 ! R2    R(1,8)                  1.2856         -DE/DX =    0.0001              !
 ! R3    R(2,9)                  0.9896         -DE/DX =    0.0001              !
 ! R4    R(3,4)                  1.0665         -DE/DX =    0.0001              !
 ! R5    R(3,5)                  1.3473         -DE/DX =    0.0                 !
 ! R6    R(3,9)                  1.3692         -DE/DX =    0.0002              !
 ! R7    R(5,6)                  1.0678         -DE/DX =    0.0001              !
 ! R8    R(7,8)                  1.0695         -DE/DX =    0.0001              !
 ! R9    R(8,9)                  1.3455         -DE/DX =    0.0001              !
 ! A1    A(5,1,8)              105.4298         -DE/DX =    0.0003              !
 ! A2    A(4,3,5)              132.1513         -DE/DX =   -0.0001              !
 ! A3    A(4,3,9)              122.5659         -DE/DX =    0.0001              !
 ! A4    A(5,3,9)              105.2828         -DE/DX =    0.0                 !
 ! A5    A(1,5,3)              110.3068         -DE/DX =   -0.0001              !
 ! A6    A(1,5,6)              121.61           -DE/DX =    0.0001              !
 ! A7    A(3,5,6)              128.0832         -DE/DX =    0.0                 !
 ! A8    A(1,8,7)              125.5774         -DE/DX =    0.0002              !
 ! A9    A(1,8,9)              112.1814         -DE/DX =   -0.0003              !
 ! A10   A(7,8,9)              122.2411         -DE/DX =    0.0001              !
 ! A11   A(2,9,3)              126.8269         -DE/DX =   -0.0001              !
 ! A12   A(2,9,8)              126.374          -DE/DX =   -0.0001              !
 ! A13   A(3,9,8)              106.7991         -DE/DX =    0.0002              !
 ! D1    D(8,1,5,3)              0.0            -DE/DX =    0.0                 !
 ! D2    D(8,1,5,6)            180.0            -DE/DX =    0.0                 !
 ! D3    D(5,1,8,7)            180.0            -DE/DX =    0.0                 !
 ! D4    D(5,1,8,9)              0.0            -DE/DX =    0.0                 !
 ! D5    D(4,3,5,1)            180.0            -DE/DX =    0.0                 !
 ! D6    D(4,3,5,6)              0.0            -DE/DX =    0.0                 !
 ! D7    D(9,3,5,1)              0.0            -DE/DX =    0.0                 !
 ! D8    D(9,3,5,6)            180.0            -DE/DX =    0.0                 !
 ! D9    D(4,3,9,2)              0.0            -DE/DX =    0.0                 !
 ! D10   D(4,3,9,8)            180.0            -DE/DX =    0.0                 !
 ! D11   D(5,3,9,2)            180.0            -DE/DX =    0.0                 !
 ! D12   D(5,3,9,8)              0.0            -DE/DX =    0.0                 !
 ! D13   D(1,8,9,2)            180.0            -DE/DX =    0.0                 !
 ! D14   D(1,8,9,3)              0.0            -DE/DX =    0.0                 !
 ! D15   D(7,8,9,2)              0.0            -DE/DX =    0.0                 !
 ! D16   D(7,8,9,3)            180.0            -DE/DX =    0.0                 !
 --------------------------------------------------------------------------------
 GradGradGradGradGradGradGradGradGradGradGradGradGradGradGradGradGradGrad

                          Input orientation:                          
 ---------------------------------------------------------------------
 Center     Atomic     Atomic              Coordinates (Angstroms)
 Number     Number      Type              X           Y           Z
 ---------------------------------------------------------------------
    1          7             0       -0.739631   -0.961722    0.000000
    2          1             0       -0.014248    2.082627    0.000000
    3          6             0        1.107120    0.287970    0.000000
    4          1             0        2.100015    0.677356    0.000000
    5          6             0        0.630066   -0.972020    0.000000
    6          1             0        1.182890   -1.885589    0.000000
    7          1             0       -2.073642    0.655976    0.000000
    8          6             0       -1.072339    0.280042    0.000000
    9          7             0       -0.000319    1.093174    0.000000
 ---------------------------------------------------------------------
                    Distance matrix (angstroms):
                    1          2          3          4          5
     1  N    0.000000
     2  H    3.129575   0.000000
     3  C    2.229847   2.116190   0.000000
     4  H    3.278745   2.538680   1.066519   0.000000
     5  C    1.369736   3.121860   1.347277   2.209342   0.000000
     6  H    2.132984   4.144862   2.174879   2.722096   1.067813
     7  H    2.096790   2.505282   3.201980   4.173712   3.156011
     8  C    1.285563   2.090184   2.179473   3.197138   2.113253
     9  N    2.183845   0.989552   1.369224   2.141100   2.159261
                    6          7          8          9
     6  H    0.000000
     7  H    4.130927   0.000000
     8  C    3.126662   1.069548   0.000000
     9  N    3.205154   2.118917   1.345515   0.000000
 Stoichiometry    C3H4N2
 Framework group  CS[SG(C3H4N2)]
 Deg. of freedom    15
 Full point group                 CS      NOp   2
 Largest Abelian subgroup         CS      NOp   2
 Largest concise Abelian subgroup C1      NOp   1
                         Standard orientation:                         
 ---------------------------------------------------------------------
 Center     Atomic     Atomic              Coordinates (Angstroms)
 Number     Number      Type              X           Y           Z
 ---------------------------------------------------------------------
    1          7             0       -0.740144   -0.962158    0.000000
    2          1             0       -0.013528    2.081897    0.000000
    3          6             0        1.107113    0.286786    0.000000
    4          1             0        2.100166    0.675769    0.000000
    5          6             0        0.629548   -0.973011    0.000000
    6          1             0        1.182003   -1.886804    0.000000
    7          1             0       -2.073500    0.656080    0.000000
    8          6             0       -1.072349    0.279741    0.000000
    9          7             0        0.000000    1.092438    0.000000
 ---------------------------------------------------------------------
 Rotational constants (GHZ):      9.9562074      9.6967315      4.9123783

 **********************************************************************

            Population analysis using the SCF density.

 **********************************************************************

 Orbital symmetries:
       Occupied  (A') (A') (A') (A') (A') (A') (A') (A') (A') (A')
                 (A') (A') (A") (A') (A') (A') (A") (A")
       Virtual   (A') (A') (A') (A") (A') (A') (A") (A') (A") (A')
                 (A') (A") (A') (A') (A") (A") (A') (A') (A') (A')
                 (A") (A') (A') (A') (A') (A') (A') (A') (A") (A')
                 (A') (A') (A') (A") (A") (A') (A') (A") (A") (A')
                 (A') (A") (A') (A') (A') (A') (A") (A') (A") (A')
                 (A") (A') (A') (A') (A") (A') (A') (A") (A') (A")
                 (A') (A') (A') (A') (A") (A') (A') (A") (A") (A')
                 (A") (A') (A') (A') (A") (A') (A') (A") (A') (A")
                 (A') (A') (A') (A') (A') (A') (A") (A') (A') (A")
                 (A') (A') (A') (A") (A') (A') (A") (A") (A') (A')
                 (A') (A") (A') (A') (A') (A') (A") (A") (A") (A')
                 (A') (A") (A') (A") (A') (A') (A') (A") (A') (A")
                 (A") (A') (A") (A') (A') (A") (A') (A') (A") (A')
                 (A") (A') (A") (A') (A') (A") (A') (A") (A') (A')
                 (A') (A') (A') (A") (A') (A') (A") (A') (A') (A')
                 (A') (A") (A") (A') (A") (A') (A') (A') (A") (A')
                 (A") (A') (A') (A') (A") (A") (A') (A") (A") (A')
                 (A") (A') (A") (A') (A') (A') (A') (A') (A') (A')
                 (A') (A') (A') (A") (A") (A") (A') (A") (A') (A")
                 (A") (A') (A') (A') (A') (A') (A') (A') (A") (A")
                 (A") (A') (A") (A') (A') (A') (A') (A') (A') (A')
                 (A') (A') (A')
 The electronic state is 1-A'.
 Alpha  occ. eigenvalues --  -15.61671 -15.53753 -11.28850 -11.25484 -11.23613
 Alpha  occ. eigenvalues --   -1.35512  -1.17466  -1.01647  -0.83378  -0.80569
 Alpha  occ. eigenvalues --   -0.76679  -0.61581  -0.60743  -0.60541  -0.57460
 Alpha  occ. eigenvalues --   -0.43662  -0.40334  -0.32701
 Alpha virt. eigenvalues --    0.05509   0.07335   0.08607   0.09857   0.10235
 Alpha virt. eigenvalues --    0.11168   0.13323   0.13497   0.14803   0.14890
 Alpha virt. eigenvalues --    0.18257   0.19014   0.19745   0.20348   0.22858
 Alpha virt. eigenvalues --    0.26086   0.26775   0.28395   0.29117   0.29812
 Alpha virt. eigenvalues --    0.30266   0.30509   0.31932   0.33354   0.36167
 Alpha virt. eigenvalues --    0.36432   0.40363   0.43633   0.47080   0.50304
 Alpha virt. eigenvalues --    0.55809   0.56042   0.58021   0.58300   0.60712
 Alpha virt. eigenvalues --    0.61748   0.62050   0.62139   0.65440   0.66821
 Alpha virt. eigenvalues --    0.69546   0.71138   0.71503   0.73108   0.74836
 Alpha virt. eigenvalues --    0.75978   0.76607   0.81210   0.82159   0.85103
 Alpha virt. eigenvalues --    0.85457   0.86427   0.87888   0.88205   0.88706
 Alpha virt. eigenvalues --    0.91621   0.96543   0.97704   0.98995   1.06575
 Alpha virt. eigenvalues --    1.07799   1.09392   1.13608   1.15830   1.16253
 Alpha virt. eigenvalues --    1.19889   1.23423   1.23448   1.24645   1.26573
 Alpha virt. eigenvalues --    1.27766   1.29248   1.30082   1.36190   1.37254
 Alpha virt. eigenvalues --    1.38156   1.41379   1.42484   1.43835   1.45054
 Alpha virt. eigenvalues --    1.48724   1.56689   1.61602   1.64030   1.69600
 Alpha virt. eigenvalues --    1.70217   1.73029   1.78242   1.78941   1.83541
 Alpha virt. eigenvalues --    1.84749   1.88862   1.92130   1.98661   2.08567
 Alpha virt. eigenvalues --    2.11728   2.12466   2.19454   2.22860   2.34464
 Alpha virt. eigenvalues --    2.36219   2.37099   2.41753   2.47508   2.54895
 Alpha virt. eigenvalues --    2.63312   2.64593   2.66383   2.81044   2.83708
 Alpha virt. eigenvalues --    2.86505   2.93505   2.96951   3.00307   3.02351
 Alpha virt. eigenvalues --    3.07548   3.08295   3.15893   3.19372   3.20421
 Alpha virt. eigenvalues --    3.26395   3.28217   3.34132   3.34798   3.41239
 Alpha virt. eigenvalues --    3.41678   3.45950   3.49908   3.51960   3.57160
 Alpha virt. eigenvalues --    3.61364   3.66012   3.73056   3.73147   3.79920
 Alpha virt. eigenvalues --    3.83552   3.90185   3.90374   3.98089   4.08134
 Alpha virt. eigenvalues --    4.11415   4.15792   4.19343   4.20391   4.26367
 Alpha virt. eigenvalues --    4.29827   4.35739   4.36638   4.39380   4.41427
 Alpha virt. eigenvalues --    4.45277   4.46166   4.51772   4.55640   4.63564
 Alpha virt. eigenvalues --    4.64915   4.66824   4.69706   4.77479   4.83307
 Alpha virt. eigenvalues --    4.84779   4.95307   5.02106   5.08652   5.09116
 Alpha virt. eigenvalues --    5.14699   5.27274   5.27885   5.36639   5.38595
 Alpha virt. eigenvalues --    5.40800   5.49683   5.53503   5.63218   5.76041
 Alpha virt. eigenvalues --    5.88889   5.97847   6.31053   6.54561   6.63395
 Alpha virt. eigenvalues --    6.80240   7.07063   7.26666   7.58167   7.63526
 Alpha virt. eigenvalues --    7.73657   7.76912   7.77241   7.83341   7.84514
 Alpha virt. eigenvalues --    8.03503   8.04468   8.29093   8.44151   8.49885
 Alpha virt. eigenvalues --    8.65252   8.81891   8.93372  10.98092  11.05006
 Alpha virt. eigenvalues --   11.11692  11.16877  11.28435  11.32032  11.65347
 Alpha virt. eigenvalues --   11.72503  11.88591  12.56935  25.70416  26.36981
 Alpha virt. eigenvalues --   26.91588  37.65307  37.90444
          Condensed to atoms (all electrons):
              1          2          3          4          5          6
     1  N    8.110482   0.005086  -0.036159   0.000507   0.091341  -0.061655
     2  H    0.005086   0.480797  -0.059230  -0.000158   0.012548  -0.000014
     3  C   -0.036159  -0.059230   5.466549   0.491166   0.060108  -0.100849
     4  H    0.000507  -0.000158   0.491166   0.455733  -0.081778  -0.000945
     5  C    0.091341   0.012548   0.060108  -0.081778   5.321088   0.523140
     6  H   -0.061655  -0.000014  -0.100849  -0.000945   0.523140   0.466893
     7  H   -0.071082  -0.000970  -0.006157  -0.000109   0.010120  -0.000078
     8  C    0.255585  -0.047983  -0.174927   0.004597  -0.065370   0.009937
     9  N   -0.192851   0.455580   0.146288  -0.037274  -0.144236   0.006517
              7          8          9
     1  N   -0.071082   0.255585  -0.192851
     2  H   -0.000970  -0.047983   0.455580
     3  C   -0.006157  -0.174927   0.146288
     4  H   -0.000109   0.004597  -0.037274
     5  C    0.010120  -0.065370  -0.144236
     6  H   -0.000078   0.009937   0.006517
     7  H    0.473147   0.489366  -0.056211
     8  C    0.489366   4.391856   0.200792
     9  N   -0.056211   0.200792   7.584175
 Mulliken atomic charges:
              1
     1  N   -1.101255
     2  H    0.154343
     3  C    0.213212
     4  H    0.168262
     5  C    0.273039
     6  H    0.157055
     7  H    0.161976
     8  C    0.936148
     9  N   -0.962779
 Sum of Mulliken charges=   0.00000
 Atomic charges with hydrogens summed into heavy atoms:
              1
     1  N   -1.101255
     2  H    0.000000
     3  C    0.381474
     4  H    0.000000
     5  C    0.430094
     6  H    0.000000
     7  H    0.000000
     8  C    1.098124
     9  N   -0.808436
 Sum of Mulliken charges=   0.00000
 Electronic spatial extent (au):  <R**2>=   280.4951
 Charge=     0.0000 electrons
 Dipole moment (field-independent basis, Debye):
    X=     1.0780    Y=     3.6480    Z=     0.0000  Tot=     3.8039
 Quadrupole moment (field-independent basis, Debye-Ang):
   XX=   -26.7382   YY=   -25.9386   ZZ=   -32.4054
   XY=    -3.5333   XZ=     0.0000   YZ=     0.0000
 Traceless Quadrupole moment (field-independent basis, Debye-Ang):
   XX=     1.6225   YY=     2.4221   ZZ=    -4.0446
   XY=    -3.5333   XZ=     0.0000   YZ=     0.0000
 Octapole moment (field-independent basis, Debye-Ang**2):
  XXX=    -0.1272  YYY=    16.0301  ZZZ=     0.0000  XYY=     5.9634
  XXY=     7.2118  XXZ=     0.0000  XZZ=    -1.3680  YZZ=     1.4571
  YYZ=     0.0000  XYZ=     0.0000
 Hexadecapole moment (field-independent basis, Debye-Ang**3):
 XXXX=  -155.6566 YYYY=  -137.2354 ZZZZ=   -36.7519 XXXY=    -3.4835
 XXXZ=     0.0000 YYYX=    -9.9855 YYYZ=     0.0000 ZZZX=     0.0000
 ZZZY=     0.0000 XXYY=   -57.3811 XXZZ=   -40.1969 YYZZ=   -36.8984
 XXYZ=     0.0000 YYXZ=     0.0000 ZZXY=     0.5649
 N-N= 1.653433901775D+02 E-N=-8.564384924269D+02  KE= 2.248737777894D+02
 Symmetry A'   KE= 2.171332267306D+02
 Symmetry A"   KE= 7.740551058762D+00
 1|1|UNPC-UNK|FOpt|RHF|6-311+G(3df,2p)|C3H4N2|PCUSER|21-May-2007|0||#HF
 /6-311+G(3DF,2P) OPT FREQ||1himidaz 1H-Imidazole casno=288324 method=1
  basis=10 config=1||0,1|N,-0.7397546472,-0.9624573362,0.|H,-0.01437139
 21,2.0818916075,0.|C,1.1069964896,0.2872341127,0.|H,2.0998920027,0.676
 6200982,0.|C,0.6299422391,-0.972755465,0.|H,1.1827668768,-1.8863248242
 ,0.|H,-2.0737654272,0.6552399651,0.|C,-1.0724624097,0.2793061357,0.|N,
 -0.000442492,1.0924379723,0.||Version=x86-Win32-G03RevB.05|State=1-A'|
 HF=-224.8954245|RMSD=5.058e-009|RMSF=1.352e-004|Dipole=0.4235202,1.435
 4063,0.|PG=CS [SG(C3H4N2)]||@


 SCIENCE IS A VERY HUMAN FORM OF KNOWLEDGE.
 WE ARE ALWAYS AT THE BRINK OF THE KNOWN,
 WE ALWAYS FEEL FORWARD FOR WHAT IS HOPED.
 EVERY JUDGEMENT IN SCIENCE STANDS ON THE EDGE OF ERROR, AND IS PERSONAL.
 SCIENCE IS A TRIBUTE TO WHAT WE CAN KNOW ALTHOUGH WE ARE FALLIBLE.

                     -- J. BRONOWSKI
 Job cpu time:  0 days  0 hours 39 minutes 38.0 seconds.
 File lengths (MBytes):  RWF=     43 Int=      0 D2E=      0 Chk=      7 Scr=      1
 Normal termination of Gaussian 03 at Mon May 21 03:11:05 2007.
 Link1:  Proceeding to internal job step number  2.
 ----------------------------------------------------------------------
 #N Geom=AllCheck Guess=Read SCRF=Check GenChk RHF/6-311+G(3df,2p) Freq
 ----------------------------------------------------------------------
 1/10=4,29=7,30=1,38=1,40=1,46=1/1,3;
 2/40=1/2;
 3/5=4,6=6,7=216,11=1,16=1,25=1,30=1,70=2,71=2/1,2,3;
 4/5=1,7=1/1;
 5/5=2,38=6/2;
 8/6=4,10=90,11=11/1;
 10/13=10/2;
 11/6=2,8=1,9=11,15=111,16=1/1,2,10;
 10/6=1/2;
 6/7=2,8=2,9=2,10=2,18=1,28=1/1;
 7/8=1,10=1,25=1/1,2,3,16;
 1/10=4,30=1,46=1/3;
 99//99;
 -------------------------------------------------------------
 1himidaz 1H-Imidazole casno=288324 method=1 basis=10 config=1
 -------------------------------------------------------------
 Redundant internal coordinates taken from checkpoint file:
 gxx.chk
 Charge =  0 Multiplicity = 1
 N,0,-0.7397546472,-0.9624573362,0.
 H,0,-0.0143713921,2.0818916075,0.
 C,0,1.1069964896,0.2872341127,0.
 H,0,2.0998920027,0.6766200982,0.
 C,0,0.6299422391,-0.972755465,0.
 H,0,1.1827668768,-1.8863248242,0.
 H,0,-2.0737654272,0.6552399651,0.
 C,0,-1.0724624097,0.2793061357,0.
 N,0,-0.000442492,1.0924379723,0.
 Recover connectivity data from disk.

 GradGradGradGradGradGradGradGradGradGradGradGradGradGradGradGradGradGrad
 Berny optimization.
 Initialization pass.
                           ----------------------------
                           !    Initial Parameters    !
                           ! (Angstroms and Degrees)  !
 --------------------------                            --------------------------
 ! Name  Definition              Value          Derivative Info.                !
 --------------------------------------------------------------------------------
 ! R1    R(1,5)                  1.3697         calculate D2E/DX2 analytically  !
 ! R2    R(1,8)                  1.2856         calculate D2E/DX2 analytically  !
 ! R3    R(2,9)                  0.9896         calculate D2E/DX2 analytically  !
 ! R4    R(3,4)                  1.0665         calculate D2E/DX2 analytically  !
 ! R5    R(3,5)                  1.3473         calculate D2E/DX2 analytically  !
 ! R6    R(3,9)                  1.3692         calculate D2E/DX2 analytically  !
 ! R7    R(5,6)                  1.0678         calculate D2E/DX2 analytically  !
 ! R8    R(7,8)                  1.0695         calculate D2E/DX2 analytically  !
 ! R9    R(8,9)                  1.3455         calculate D2E/DX2 analytically  !
 ! A1    A(5,1,8)              105.4298         calculate D2E/DX2 analytically  !
 ! A2    A(4,3,5)              132.1513         calculate D2E/DX2 analytically  !
 ! A3    A(4,3,9)              122.5659         calculate D2E/DX2 analytically  !
 ! A4    A(5,3,9)              105.2828         calculate D2E/DX2 analytically  !
 ! A5    A(1,5,3)              110.3068         calculate D2E/DX2 analytically  !
 ! A6    A(1,5,6)              121.61           calculate D2E/DX2 analytically  !
 ! A7    A(3,5,6)              128.0832         calculate D2E/DX2 analytically  !
 ! A8    A(1,8,7)              125.5774         calculate D2E/DX2 analytically  !
 ! A9    A(1,8,9)              112.1814         calculate D2E/DX2 analytically  !
 ! A10   A(7,8,9)              122.2411         calculate D2E/DX2 analytically  !
 ! A11   A(2,9,3)              126.8269         calculate D2E/DX2 analytically  !
 ! A12   A(2,9,8)              126.374          calculate D2E/DX2 analytically  !
 ! A13   A(3,9,8)              106.7991         calculate D2E/DX2 analytically  !
 ! D1    D(8,1,5,3)              0.0            calculate D2E/DX2 analytically  !
 ! D2    D(8,1,5,6)            180.0            calculate D2E/DX2 analytically  !
 ! D3    D(5,1,8,7)            180.0            calculate D2E/DX2 analytically  !
 ! D4    D(5,1,8,9)              0.0            calculate D2E/DX2 analytically  !
 ! D5    D(4,3,5,1)            180.0            calculate D2E/DX2 analytically  !
 ! D6    D(4,3,5,6)              0.0            calculate D2E/DX2 analytically  !
 ! D7    D(9,3,5,1)              0.0            calculate D2E/DX2 analytically  !
 ! D8    D(9,3,5,6)            180.0            calculate D2E/DX2 analytically  !
 ! D9    D(4,3,9,2)              0.0            calculate D2E/DX2 analytically  !
 ! D10   D(4,3,9,8)            180.0            calculate D2E/DX2 analytically  !
 ! D11   D(5,3,9,2)            180.0            calculate D2E/DX2 analytically  !
 ! D12   D(5,3,9,8)              0.0            calculate D2E/DX2 analytically  !
 ! D13   D(1,8,9,2)            180.0            calculate D2E/DX2 analytically  !
 ! D14   D(1,8,9,3)              0.0            calculate D2E/DX2 analytically  !
 ! D15   D(7,8,9,2)              0.0            calculate D2E/DX2 analytically  !
 ! D16   D(7,8,9,3)            180.0            calculate D2E/DX2 analytically  !
 --------------------------------------------------------------------------------
 Trust Radius=3.00D-01 FncErr=1.00D-07 GrdErr=1.00D-07
 Number of steps in this run=   2 maximum allowed number of steps=   2.
 GradGradGradGradGradGradGradGradGradGradGradGradGradGradGradGradGradGrad

                          Input orientation:                          
 ---------------------------------------------------------------------
 Center     Atomic     Atomic              Coordinates (Angstroms)
 Number     Number      Type              X           Y           Z
 ---------------------------------------------------------------------
    1          7             0       -0.739755   -0.962457    0.000000
    2          1             0       -0.014371    2.081892    0.000000
    3          6             0        1.106996    0.287234    0.000000
    4          1             0        2.099892    0.676620    0.000000
    5          6             0        0.629942   -0.972755    0.000000
    6          1             0        1.182767   -1.886325    0.000000
    7          1             0       -2.073765    0.655240    0.000000
    8          6             0       -1.072462    0.279306    0.000000
    9          7             0       -0.000442    1.092438    0.000000
 ---------------------------------------------------------------------
                    Distance matrix (angstroms):
                    1          2          3          4          5
     1  N    0.000000
     2  H    3.129575   0.000000
     3  C    2.229847   2.116190   0.000000
     4  H    3.278745   2.538680   1.066519   0.000000
     5  C    1.369736   3.121860   1.347277   2.209342   0.000000
     6  H    2.132984   4.144862   2.174879   2.722096   1.067813
     7  H    2.096790   2.505282   3.201980   4.173712   3.156011
     8  C    1.285563   2.090184   2.179473   3.197138   2.113253
     9  N    2.183845   0.989552   1.369224   2.141100   2.159261
                    6          7          8          9
     6  H    0.000000
     7  H    4.130927   0.000000
     8  C    3.126662   1.069548   0.000000
     9  N    3.205154   2.118917   1.345515   0.000000
 Stoichiometry    C3H4N2
 Framework group  CS[SG(C3H4N2)]
 Deg. of freedom    15
 Full point group                 CS      NOp   2
 Largest Abelian subgroup         CS      NOp   2
 Largest concise Abelian subgroup C1      NOp   1
                         Standard orientation:                         
 ---------------------------------------------------------------------
 Center     Atomic     Atomic              Coordinates (Angstroms)
 Number     Number      Type              X           Y           Z
 ---------------------------------------------------------------------
    1          7             0       -0.740144   -0.962158    0.000000
    2          1             0       -0.013528    2.081897    0.000000
    3          6             0        1.107113    0.286786    0.000000
    4          1             0        2.100166    0.675769    0.000000
    5          6             0        0.629548   -0.973011    0.000000
    6          1             0        1.182003   -1.886804    0.000000
    7          1             0       -2.073500    0.656080    0.000000
    8          6             0       -1.072349    0.279741    0.000000
    9          7             0        0.000000    1.092438    0.000000
 ---------------------------------------------------------------------
 Rotational constants (GHZ):      9.9562074      9.6967315      4.9123783
 Standard basis: 6-311+G(3df,2p) (5D, 7F)
 There are   158 symmetry adapted basis functions of A'  symmetry.
 There are    73 symmetry adapted basis functions of A"  symmetry.
 Integral buffers will be    262144 words long.
 Raffenetti 1 integral format.
 Two-electron integral symmetry is turned on.
   231 basis functions,   334 primitive gaussians,   261 cartesian basis functions
    18 alpha electrons       18 beta electrons
       nuclear repulsion energy       165.3433901775 Hartrees.
 NAtoms=    9 NActive=    9 NUniq=    9 SFac= 1.00D+00 NAtFMM=   60 Big=F
 One-electron integrals computed using PRISM.
 NBasis=   231 RedAO= T  NBF=   158    73
 NBsUse=   231 1.00D-06 NBFU=   158    73
 Initial guess read from the checkpoint file:
 gxx.chk
 Initial guess orbital symmetries:
       Occupied  (A') (A') (A') (A') (A') (A') (A') (A') (A') (A')
                 (A') (A') (A") (A') (A') (A') (A") (A")
       Virtual   (A') (A') (A') (A") (A') (A') (A") (A') (A") (A')
                 (A') (A") (A') (A') (A") (A") (A') (A') (A') (A')
                 (A") (A') (A') (A') (A') (A') (A') (A') (A") (A')
                 (A') (A') (A') (A") (A") (A') (A') (A") (A") (A')
                 (A') (A") (A') (A') (A') (A') (A") (A') (A") (A')
                 (A") (A') (A') (A') (A") (A') (A') (A") (A') (A")
                 (A') (A') (A') (A') (A") (A') (A') (A") (A") (A')
                 (A") (A') (A') (A') (A") (A') (A') (A") (A') (A")
                 (A') (A') (A') (A') (A') (A') (A") (A') (A') (A")
                 (A') (A') (A') (A") (A') (A') (A") (A") (A') (A')
                 (A') (A") (A') (A') (A') (A') (A") (A") (A") (A')
                 (A') (A") (A') (A") (A') (A') (A') (A") (A') (A")
                 (A") (A') (A") (A') (A') (A") (A') (A') (A") (A')
                 (A") (A') (A") (A') (A') (A") (A') (A") (A') (A')
                 (A') (A') (A') (A") (A') (A') (A") (A') (A') (A')
                 (A') (A") (A") (A') (A") (A') (A') (A') (A") (A')
                 (A") (A') (A') (A') (A") (A") (A') (A") (A") (A')
                 (A") (A') (A") (A') (A') (A') (A') (A') (A') (A')
                 (A') (A') (A') (A") (A") (A") (A') (A") (A') (A")
                 (A") (A') (A') (A') (A') (A') (A') (A') (A") (A")
                 (A") (A') (A") (A') (A') (A') (A') (A') (A') (A')
                 (A') (A') (A')
 Requested convergence on RMS density matrix=1.00D-08 within 128 cycles.
 Requested convergence on MAX density matrix=1.00D-06.
 Requested convergence on             energy=1.00D-06.
 No special actions if energy rises.
 SCF Done:  E(RHF) =  -224.895424457     A.U. after    1 cycles
             Convg  =    0.1610D-08             -V/T =  2.0001
             S**2   =   0.0000
 Range of M.O.s used for correlation:     1   231
 NBasis=   231 NAE=    18 NBE=    18 NFC=     0 NFV=     0
[...]
 Frc consts  --     7.4361                 7.6655                 9.7865
 IR Inten    --     3.1750                 1.8384                95.2076
 Raman Activ --    66.3093                93.1035                80.3398
 Depolar (P) --     0.5360                 0.1552                 0.2231
 Depolar (U) --     0.6979                 0.2687                 0.3648
 Atom AN      X      Y      Z        X      Y      Z        X      Y      Z
   1   7     0.00   0.00   0.00     0.00   0.00   0.00     0.00   0.00   0.00
   2   1    -0.01   0.00   0.00    -0.01  -0.01   0.00    -0.01   1.00   0.00
   3   6    -0.03  -0.01   0.00    -0.08  -0.03   0.00     0.00   0.00   0.00
   4   1     0.41   0.15   0.00     0.84   0.33   0.00     0.01   0.00   0.00
   5   6     0.04  -0.07   0.00    -0.02   0.04   0.00     0.00   0.00   0.00
   6   1    -0.45   0.76   0.00     0.21  -0.37   0.00     0.00   0.00   0.00
   7   1     0.14  -0.05   0.00    -0.06   0.02   0.00    -0.01   0.00   0.00
   8   6    -0.01   0.01   0.00     0.01   0.00   0.00     0.00   0.00   0.00
   9   7     0.00   0.00   0.00     0.00   0.00   0.00     0.00  -0.08   0.00

 -------------------
 - Thermochemistry -
 -------------------
 Temperature   298.150 Kelvin.  Pressure   1.00000 Atm.
 Atom  1 has atomic number  7 and mass  14.00307
 Atom  2 has atomic number  1 and mass   1.00783
 Atom  3 has atomic number  6 and mass  12.00000
 Atom  4 has atomic number  1 and mass   1.00783
 Atom  5 has atomic number  6 and mass  12.00000
 Atom  6 has atomic number  1 and mass   1.00783
 Atom  7 has atomic number  1 and mass   1.00783
 Atom  8 has atomic number  6 and mass  12.00000
 Atom  9 has atomic number  7 and mass  14.00307
 Molecular mass:    68.03745 amu.
 Principal axes and moments of inertia in atomic units:
                           1         2         3
     EIGENVALUES --   181.26794 186.11851 367.38645
           X            0.50045   0.86576   0.00000
           Y            0.86576  -0.50045   0.00000
           Z            0.00000   0.00000   1.00000
 This molecule is an asymmetric top.
 Rotational symmetry number  1.
 Rotational temperatures (Kelvin)      0.47782     0.46537     0.23576
 Rotational constants (GHZ):           9.95621     9.69673     4.91238
 Zero-point vibrational energy     200593.8 (Joules/Mol)
                                   47.94307 (Kcal/Mol)
 Warning -- explicit consideration of   1 degrees of freedom as
           vibrations may cause significant error
 Vibrational temperatures:    785.71   992.46  1048.27  1208.56  1409.66
          (Kelvin)           1411.54  1453.60  1466.28  1648.90  1691.66
                             1754.74  1792.18  2022.07  2133.71  2253.97
                             2365.91  2476.06  4880.56  4888.88  4931.03
                             5635.95
 
 Zero-point correction=                           0.076402 (Hartree/Particle)
 Thermal correction to Energy=                    0.079952
 Thermal correction to Enthalpy=                  0.080896
 Thermal correction to Gibbs Free Energy=         0.050240
 Sum of electronic and zero-point Energies=           -224.819022
 Sum of electronic and thermal Energies=              -224.815473
 Sum of electronic and thermal Enthalpies=            -224.814529
 Sum of electronic and thermal Free Energies=         -224.845185
 
                     E (Thermal)             CV                S
                      KCal/Mol        Cal/Mol-Kelvin    Cal/Mol-Kelvin
 Total                   50.170             11.997             64.522
 Electronic               0.000              0.000              0.000
 Translational            0.889              2.981             38.570
 Rotational               0.889              2.981             24.031
 Vibrational             48.393              6.036              1.920
 Vibration  1             0.901              1.148              0.552
                       Q            Log10(Q)             Ln(Q)
 Total Bot       0.778854D-23        -23.108544        -53.209389
 Total V=0       0.108127D+13         12.033933         27.709155
 Vib (Bot)       0.885963D-35        -35.052585        -80.711559
 Vib (Bot)  1    0.288448D+00         -0.539933         -1.243241
 Vib (V=0)       0.122996D+01          0.089893          0.206985
 Vib (V=0)  1    0.107724D+01          0.032311          0.074399
 Electronic      0.100000D+01          0.000000          0.000000
 Translational   0.220586D+08          7.343577         16.909211
 Rotational      0.398532D+05          4.600463         10.592958
 ***** Axes restored to original set *****
 -------------------------------------------------------------------
 Center     Atomic                   Forces (Hartrees/Bohr)
 Number     Number              X              Y              Z
 -------------------------------------------------------------------
    1          7           0.000073455    0.000183096    0.000000000
    2          1          -0.000043102    0.000084773    0.000000000
    3          6           0.000090679    0.000065590    0.000000000
    4          1           0.000077936   -0.000058225    0.000000000
    5          6           0.000244311   -0.000196784    0.000000000
    6          1           0.000077129   -0.000038572    0.000000000
    7          1          -0.000075724    0.000041299    0.000000000
    8          6          -0.000473963    0.000161649    0.000000000
    9          7           0.000029280   -0.000242826    0.000000000
 -------------------------------------------------------------------
 Cartesian Forces:  Max     0.000473963 RMS     0.000135241

 GradGradGradGradGradGradGradGradGradGradGradGradGradGradGradGradGradGrad
 Berny optimization.
 Internal  Forces:  Max     0.000289325 RMS     0.000107950
 Search for a local minimum.
 Step number   1 out of a maximum of   2
 All quantities printed in internal units (Hartrees-Bohrs-Radians)
 Second derivative matrix not updated -- analytic derivatives used.
     Eigenvalues ---    0.00561   0.01489   0.02687   0.03346   0.06842
     Eigenvalues ---    0.07138   0.11354   0.12155   0.12582   0.13781
     Eigenvalues ---    0.25961   0.27339   0.39200   0.40458   0.40861
     Eigenvalues ---    0.41097   0.46642   0.49209   0.54485   0.54901
     Eigenvalues ---    0.682061000.000001000.000001000.000001000.00000
     Eigenvalues --- 1000.000001000.000001000.000001000.000001000.00000
     Eigenvalues --- 1000.000001000.000001000.000001000.000001000.00000
     Eigenvalues --- 1000.000001000.000001000.00000
 Angle between quadratic step and forces=  25.31 degrees.
 Linear search not attempted -- first point.
 Iteration  1 RMS(Cart)=  0.00033765 RMS(Int)=  0.00000005
 Iteration  2 RMS(Cart)=  0.00000006 RMS(Int)=  0.00000001
 Variable       Old X    -DE/DX   Delta X   Delta X   Delta X     New X
                                 (Linear)    (Quad)   (Total)
    R1        2.58843   0.00024   0.00000   0.00036   0.00036   2.58879
    R2        2.42936   0.00010   0.00000   0.00010   0.00010   2.42946
    R3        1.86998   0.00009   0.00000   0.00018   0.00018   1.87016
    R4        2.01543   0.00005   0.00000   0.00012   0.00012   2.01555
    R5        2.54598   0.00000   0.00000   0.00007   0.00007   2.54605
    R6        2.58746   0.00022   0.00000   0.00015   0.00015   2.58761
    R7        2.01787   0.00007   0.00000   0.00015   0.00015   2.01802
    R8        2.02115   0.00009   0.00000   0.00016   0.00016   2.02132
    R9        2.54265   0.00008   0.00000   0.00026   0.00026   2.54291
    A1        1.84010   0.00026   0.00000   0.00065   0.00065   1.84075
    A2        2.30647  -0.00008   0.00000  -0.00056  -0.00056   2.30592
    A3        2.13918   0.00009   0.00000   0.00056   0.00056   2.13974
    A4        1.83753  -0.00001   0.00000   0.00000   0.00000   1.83753
    A5        1.92522  -0.00015   0.00000  -0.00038  -0.00038   1.92483
    A6        2.12249   0.00012   0.00000   0.00040   0.00040   2.12289
    A7        2.23547   0.00003   0.00000  -0.00002  -0.00002   2.23546
    A8        2.19174   0.00016   0.00000   0.00046   0.00046   2.19220
    A9        1.95794  -0.00029   0.00000  -0.00073  -0.00073   1.95720
   A10        2.13351   0.00013   0.00000   0.00027   0.00027   2.13378
   A11        2.21355  -0.00005   0.00000  -0.00002  -0.00002   2.21353
   A12        2.20564  -0.00013   0.00000  -0.00045  -0.00045   2.20520
   A13        1.86400   0.00019   0.00000   0.00047   0.00047   1.86446
    D1        0.00000   0.00000   0.00000   0.00000   0.00000   0.00000
    D2        3.14159   0.00000   0.00000   0.00000   0.00000   3.14159
    D3        3.14159   0.00000   0.00000   0.00000   0.00000   3.14159
    D4        0.00000   0.00000   0.00000   0.00000   0.00000   0.00000
    D5        3.14159   0.00000   0.00000   0.00000   0.00000   3.14159
    D6        0.00000   0.00000   0.00000   0.00000   0.00000   0.00000
    D7        0.00000   0.00000   0.00000   0.00000   0.00000   0.00000
    D8        3.14159   0.00000   0.00000   0.00000   0.00000   3.14159
    D9        0.00000   0.00000   0.00000   0.00000   0.00000   0.00000
   D10        3.14159   0.00000   0.00000   0.00000   0.00000   3.14159
   D11        3.14159   0.00000   0.00000   0.00000   0.00000   3.14159
   D12        0.00000   0.00000   0.00000   0.00000   0.00000   0.00000
   D13        3.14159   0.00000   0.00000   0.00000   0.00000   3.14159
   D14        0.00000   0.00000   0.00000   0.00000   0.00000   0.00000
   D15        0.00000   0.00000   0.00000   0.00000   0.00000   0.00000
   D16        3.14159   0.00000   0.00000   0.00000   0.00000   3.14159
         Item               Value     Threshold  Converged?
 Maximum Force            0.000289     0.000450     YES
 RMS     Force            0.000108     0.000300     YES
 Maximum Displacement     0.000953     0.001800     YES
 RMS     Displacement     0.000338     0.001200     YES
 Predicted change in Energy=-5.145475D-07
 Optimization completed.
    -- Stationary point found.
                           ----------------------------
                           !   Optimized Parameters   !
                           ! (Angstroms and Degrees)  !
 --------------------------                            --------------------------
 ! Name  Definition              Value          Derivative Info.                !
 --------------------------------------------------------------------------------
 ! R1    R(1,5)                  1.3697         -DE/DX =    0.0002              !
 ! R2    R(1,8)                  1.2856         -DE/DX =    0.0001              !
 ! R3    R(2,9)                  0.9896         -DE/DX =    0.0001              !
 ! R4    R(3,4)                  1.0665         -DE/DX =    0.0001              !
 ! R5    R(3,5)                  1.3473         -DE/DX =    0.0                 !
 ! R6    R(3,9)                  1.3692         -DE/DX =    0.0002              !
 ! R7    R(5,6)                  1.0678         -DE/DX =    0.0001              !
 ! R8    R(7,8)                  1.0695         -DE/DX =    0.0001              !
 ! R9    R(8,9)                  1.3455         -DE/DX =    0.0001              !
 ! A1    A(5,1,8)              105.4298         -DE/DX =    0.0003              !
 ! A2    A(4,3,5)              132.1513         -DE/DX =   -0.0001              !
 ! A3    A(4,3,9)              122.5659         -DE/DX =    0.0001              !
 ! A4    A(5,3,9)              105.2828         -DE/DX =    0.0                 !
 ! A5    A(1,5,3)              110.3068         -DE/DX =   -0.0001              !
 ! A6    A(1,5,6)              121.61           -DE/DX =    0.0001              !
 ! A7    A(3,5,6)              128.0832         -DE/DX =    0.0                 !
 ! A8    A(1,8,7)              125.5774         -DE/DX =    0.0002              !
 ! A9    A(1,8,9)              112.1814         -DE/DX =   -0.0003              !
 ! A10   A(7,8,9)              122.2411         -DE/DX =    0.0001              !
 ! A11   A(2,9,3)              126.8269         -DE/DX =   -0.0001              !
 ! A12   A(2,9,8)              126.374          -DE/DX =   -0.0001              !
 ! A13   A(3,9,8)              106.7991         -DE/DX =    0.0002              !
 ! D1    D(8,1,5,3)              0.0            -DE/DX =    0.0                 !
 ! D2    D(8,1,5,6)            180.0            -DE/DX =    0.0                 !
 ! D3    D(5,1,8,7)            180.0            -DE/DX =    0.0                 !
 ! D4    D(5,1,8,9)              0.0            -DE/DX =    0.0                 !
 ! D5    D(4,3,5,1)            180.0            -DE/DX =    0.0                 !
 ! D6    D(4,3,5,6)              0.0            -DE/DX =    0.0                 !
 ! D7    D(9,3,5,1)              0.0            -DE/DX =    0.0                 !
 ! D8    D(9,3,5,6)            180.0            -DE/DX =    0.0                 !
 ! D9    D(4,3,9,2)              0.0            -DE/DX =    0.0                 !
 ! D10   D(4,3,9,8)            180.0            -DE/DX =    0.0                 !
 ! D11   D(5,3,9,2)            180.0            -DE/DX =    0.0                 !
 ! D12   D(5,3,9,8)              0.0            -DE/DX =    0.0                 !
 ! D13   D(1,8,9,2)            180.0            -DE/DX =    0.0                 !
 ! D14   D(1,8,9,3)              0.0            -DE/DX =    0.0                 !
 ! D15   D(7,8,9,2)              0.0            -DE/DX =    0.0                 !
 ! D16   D(7,8,9,3)            180.0            -DE/DX =    0.0                 !
 --------------------------------------------------------------------------------
 GradGradGradGradGradGradGradGradGradGradGradGradGradGradGradGradGradGrad

 1|1|UNPC-UNK|Freq|RHF|6-311+G(3df,2p)|C3H4N2|PCUSER|21-May-2007|0||#N 
 GEOM=ALLCHECK GUESS=READ SCRF=CHECK GENCHK RHF/6-311+G(3DF,2P) FREQ||1
 himidaz 1H-Imidazole casno=288324 method=1 basis=10 config=1||0,1|N,-0
 .7397546472,-0.9624573362,0.|H,-0.0143713921,2.0818916075,0.|C,1.10699
 64896,0.2872341127,0.|H,2.0998920027,0.6766200982,0.|C,0.6299422391,-0
 .972755465,0.|H,1.1827668768,-1.8863248242,0.|H,-2.0737654272,0.655239
 9651,0.|C,-1.0724624097,0.2793061357,0.|N,-0.000442492,1.0924379723,0.
 ||Version=x86-Win32-G03RevB.05|State=1-A'|HF=-224.8954245|RMSD=1.610e-
 009|RMSF=1.352e-004|Dipole=0.4235198,1.4354065,0.|DipoleDeriv=-0.50262
 25,-0.0625339,0.,0.0430278,-0.6460933,0.,0.,0.,-0.3469058,0.1826073,0.
 011644,0.,0.0057497,0.2645691,0.,0.,0.,0.3389615,-0.0742202,-0.2538416
 ,0.,-0.0132232,0.2729891,0.,0.,0.,-0.1706962,-0.003481,-0.0272002,0.,-
 0.0374602,0.0626824,0.,0.,0.,0.2126599,0.2503496,-0.0001668,0.,-0.0958
 527,0.1545633,0.,0.,0.,-0.152381,0.0215483,0.0636837,0.,0.0763908,0.00
 35805,0.,0.,0.,0.1775114,-0.0032577,0.0526205,0.,0.0446176,0.048808,0.
 ,0.,0.,0.1578347,0.2622932,0.1800651,0.,0.0841031,0.6411833,0.,0.,0.,0
 .0671503,-0.1332169,0.0357293,0.,-0.1073529,-0.8022825,0.,0.,0.,-0.284
 1346|Polar=52.1435151,-0.4248738,50.8182552,0.,0.,32.4985093|PolarDeri
 v=9.2486202,-2.3680552,-5.396169,0.,0.,-0.2327502,-10.7935255,-1.13776
 16,-4.3763256,0.,0.,-3.5728906,0.,0.,0.,-0.922619,-2.0007587,0.,0.1348
 62,1.0961068,-0.0971419,0.,0.,0.0757768,1.1256776,-0.0906645,9.1864488
 ,0.,0.,0.7989765,0.,0.,0.,0.0423861,0.4112259,0.,1.4479603,2.0317231,1
 .7574843,0.,0.,2.9184656,9.9540808,-0.0213259,4.8885836,0.,0.,6.743327
 3,0.,0.,0.,5.1283405,3.0318612,0.,8.3331334,2.3678667,1.6532165,0.,0.,
 0.631332,2.112579,1.8879725,1.6953949,0.,0.,-0.0012224,0.,0.,0.,-0.609
 8651,-0.3767891,0.,-11.6809919,-0.1759121,2.009396,0.,0.,-1.4393877,-9
 .1715439,-2.1971805,-4.7613148,0.,0.,-7.1643319,0.,0.,0.,0.6649285,-4.
 7199851,0.,2.3710787,-2.7340025,2.8524873,0.,0.,0.3993878,-2.2813354,2
 .8280926,-6.8210718,0.,0.,-0.4283663,0.,0.,0.,0.2062719,0.3214698,0.,-
 8.3763974,2.3125863,-1.5743333,0.,0.,-0.8023127,2.179883,-2.0451577,1.
 5017733,0.,0.,0.2284996,0.,0.,0.,0.1512794,-0.0555214,0.,-4.8817115,0.
 9302058,-2.8682189,0.,0.,-2.4765245,8.1946568,0.2000069,-0.8560772,0.,
 0.,2.3418415,0.,0.,0.,-4.6325755,1.6646907,0.,3.4034463,-3.4605189,1.6
 63279,0.,0.,0.9260129,-1.3204724,0.5760183,-0.4574113,0.,0.,1.0541662,
 0.,0.,0.,-0.0281468,1.7238066,0.|HyperPolar=-34.1733661,36.3732504,10.
 4258356,-39.4539432,0.,0.,0.,35.7973741,-13.4125372,0.|PG=CS [SG(C3H4N
 2)]|NImag=0||0.52731473,-0.03164224,0.72608100,0.,0.,0.12340042,-0.006
 05629,-0.00924568,0.,0.06943404,-0.00346454,0.00079143,0.,-0.00635671,
 0.54482080,0.,0.,0.00761282,0.,0.,0.01217166,-0.06116538,-0.00329978,0
 .,0.01644079,-0.00555910,0.,0.90751988,-0.09499019,0.00392549,0.,0.027
 59072,-0.00667513,0.,0.17510305,0.76782665,0.,0.,0.02051272,0.,0.,-0.0
 0827000,0.,0.,0.14274443,0.00145131,-0.00105540,0.,-0.00002800,0.00021
 407,0.,-0.34601490,-0.10943256,0.,0.36434206,-0.00628864,-0.00480178,0
 .,-0.00127035,0.00047919,0.,-0.11933943,-0.12007522,0.,0.11826476,0.10
 610555,0.,0.,0.00841459,0.,0.,-0.00129155,0.,0.,-0.03126251,0.,0.,0.02
 427833,-0.28899067,-0.01286274,0.,-0.00854803,0.00259800,0.,-0.1589926
 2,-0.09396143,0.,0.00074592,-0.02522265,0.,0.67005475,-0.01031883,-0.1
 2567809,0.,0.00632561,0.00037956,0.,-0.11880873,-0.42521859,0.,0.00159
 118,0.00821803,0.,-0.11244916,0.98083754,0.,0.,-0.08488603,0.,0.,0.002
 30119,0.,0.,-0.08535662,0.,0.,0.00168400,0.,0.,0.16917094,-0.01405804,
 0.03197585,0.,0.00115649,-0.00024222,0.,0.01401085,-0.01111799,0.,-0.0
 0025517,0.00094479,0.,-0.14645906,0.13384380,0.,0.15418037,-0.00108280
 ,0.00890788,0.,0.00116608,-0.00003004,0.,0.01876264,-0.01098381,0.,-0.
 00064336,-0.00008604,0.,0.13767140,-0.31006830,0.,-0.15133450,0.315604
 27,0.,0.,-0.00371260,0.,0.,0.00234446,0.,0.,0.00251469,0.,0.,-0.003454
 87,0.,0.,-0.03977429,0.,0.,0.02910818,-0.00013628,0.00423931,0.,-0.000
 44233,-0.00033904,0.,-0.00022105,-0.00573026,0.,-0.00049718,0.00081342
 ,0.,0.00271785,0.00155699,0.,-0.00001866,-0.00003809,0.,0.36360569,0.0
 3567612,-0.00712324,0.,0.00102833,0.00041042,0.,-0.00235424,-0.0053961
 9,0.,-0.00080961,0.00118114,0.,0.00133835,-0.00611519,0.,0.00171602,0.
 00036683,0.,-0.10947849,0.10850753,0.,0.,-0.00258769,0.,0.,-0.00186680
 ,0.,0.,0.00318459,0.,0.,0.00190025,0.,0.,0.00890434,0.,0.,0.00090431,0
 .,0.,0.02920235,-0.15759717,0.09039651,0.,0.01968426,0.00707734,0.,-0.
 11327586,0.02571897,0.,-0.00135285,0.00370385,0.,-0.05892136,0.0377209
 3,0.,-0.00847373,-0.00196642,0.,-0.34483609,0.10044241,0.,0.95792286,0
 .09067411,-0.47700109,0.,-0.02641271,-0.00951112,0.,-0.03356776,-0.009
 57195,0.,0.00493888,-0.00783004,0.,0.12078341,-0.01972886,0.,-0.001067
 37,0.00157483,0.,0.09704353,-0.10720048,0.,-0.15989977,0.82398672,0.,0
 .,-0.09649736,0.,0.,-0.00895197,0.,0.,0.01863964,0.,0.,0.00302552,0.,0
 .,0.01211185,0.,0.,0.00538653,0.,0.,-0.04145988,0.,0.,0.18486653,-0.00
 076221,-0.06850583,0.,-0.09164093,0.00607220,0.,-0.25830173,0.08681970
 ,0.,-0.01839118,0.02839425,0.,-0.01160677,0.06053820,0.,-0.00008304,-0
 .00253495,0.,-0.02017195,-0.02755889,0.,-0.29315006,-0.09249232,0.,0.6
 9410787,0.02143700,-0.12510160,0.,0.00717470,-0.53066511,0.,0.08906336
 ,-0.19383125,0.,-0.01306796,0.01680917,0.,-0.01789518,-0.10262609,0.,-
 0.00471839,-0.00528561,0.,0.01193264,0.01536918,0.,-0.10319382,-0.1947
 1800,0.,0.00926764,1.12004933,0.,0.,0.02774314,0.,0.,-0.00404980,0.,0.
 ,-0.06270692,0.,0.,-0.00329376,0.,0.,0.01584462,0.,0.,0.00668359,0.,0.
 ,0.00181854,0.,0.,-0.07712084,0.,0.,0.09508145||-0.00007345,-0.0001831
 0,0.,0.00004310,-0.00008477,0.,-0.00009068,-0.00006559,0.,-0.00007794,
 0.00005823,0.,-0.00024431,0.00019678,0.,-0.00007713,0.00003857,0.,0.00
 007572,-0.00004130,0.,0.00047396,-0.00016165,0.,-0.00002928,0.00024283
 ,0.|||@


 THE THINKER DIES, BUT HIS THOUGHTS ARE BEYOND THE 
 REACH OF DESTRUCTION.  MEN ARE MORTAL; BUT IDEAS 
 ARE IMMORTAL.
                              -- WALTER LIPPMANN
 Job cpu time:  0 days  1 hours 17 minutes  2.0 seconds.
 File lengths (MBytes):  RWF=     50 Int=      0 D2E=      0 Chk=      7 Scr=      1
 Normal termination of Gaussian 03 at Mon May 21 04:28:07 2007.
