 host = p1291 (kernel = 2.6.9-K8)
 Running on 64-bit system
 Current disk usage on p1291
/dev/hda1              72G  7.8G   61G  12% /
 Entering Gaussian System, Link 0=/usr/local/gaussian03-rev-C02-64/g03/g03
 Initial command:
 /usr/local/gaussian03-rev-C02-64/g03/l1.exe /scratch/Gau-16932.inp -scrdir=/scratch/
 Entering Link 1 = /usr/local/gaussian03-rev-C02-64/g03/l1.exe PID=     16933.
  
 Copyright (c) 1988,1990,1992,1993,1995,1998,2003,2004, Gaussian, Inc.
                  All Rights Reserved.
  
 This is the Gaussian(R) 03 program.  It is based on the
 the Gaussian(R) 98 system (copyright 1998, Gaussian, Inc.),
 the Gaussian(R) 94 system (copyright 1995, Gaussian, Inc.),
 the Gaussian 92(TM) system (copyright 1992, Gaussian, Inc.),
 the Gaussian 90(TM) system (copyright 1990, Gaussian, Inc.),
 the Gaussian 88(TM) system (copyright 1988, Gaussian, Inc.),
 the Gaussian 86(TM) system (copyright 1986, Carnegie Mellon
 University), and the Gaussian 82(TM) system (copyright 1983,
 Carnegie Mellon University). Gaussian is a federally registered
 trademark of Gaussian, Inc.
  
 This software contains proprietary and confidential information,
 including trade secrets, belonging to Gaussian, Inc.
  
 This software is provided under written license and may be
 used, copied, transmitted, or stored only in accord with that
 written license.
  
 The following legend is applicable only to US Government
 contracts under FAR:
  
                    RESTRICTED RIGHTS LEGEND
  
 Use, reproduction and disclosure by the US Government is
 subject to restrictions as set forth in subparagraphs (a)
 and (c) of the Commercial Computer Software - Restricted
 Rights clause in FAR 52.227-19.
  
 Gaussian, Inc.
 340 Quinnipiac St., Bldg. 40, Wallingford CT 06492
  
  
 ---------------------------------------------------------------
 Warning -- This program may not be used in any manner that
 competes with the business of Gaussian, Inc. or will provide
 assistance to any competitor of Gaussian, Inc.  The licensee
 of this program is prohibited from giving any competitor of
 Gaussian, Inc. access to this program.  By using this program,
 the user acknowledges that Gaussian, Inc. is engaged in the
 business of creating and licensing software in the field of
 computational chemistry and represents and warrants to the
 licensee that it is not a competitor of Gaussian, Inc. and that
 it will not use this program in any manner prohibited above.
 ---------------------------------------------------------------
  

 Cite this work as:
 Gaussian 03, Revision C.02,
 M. J. Frisch, G. W. Trucks, H. B. Schlegel, G. E. Scuseria, 
 M. A. Robb, J. R. Cheeseman, J. A. Montgomery, Jr., T. Vreven, 
 K. N. Kudin, J. C. Burant, J. M. Millam, S. S. Iyengar, J. Tomasi, 
 V. Barone, B. Mennucci, M. Cossi, G. Scalmani, N. Rega, 
 G. A. Petersson, H. Nakatsuji, M. Hada, M. Ehara, K. Toyota, 
 R. Fukuda, J. Hasegawa, M. Ishida, T. Nakajima, Y. Honda, O. Kitao, 
 H. Nakai, M. Klene, X. Li, J. E. Knox, H. P. Hratchian, J. B. Cross, 
 C. Adamo, J. Jaramillo, R. Gomperts, R. E. Stratmann, O. Yazyev, 
 A. J. Austin, R. Cammi, C. Pomelli, J. W. Ochterski, P. Y. Ayala, 
 K. Morokuma, G. A. Voth, P. Salvador, J. J. Dannenberg, 
 V. G. Zakrzewski, S. Dapprich, A. D. Daniels, M. C. Strain, 
 O. Farkas, D. K. Malick, A. D. Rabuck, K. Raghavachari, 
 J. B. Foresman, J. V. Ortiz, Q. Cui, A. G. Baboul, S. Clifford, 
 J. Cioslowski, B. B. Stefanov, G. Liu, A. Liashenko, P. Piskorz, 
 I. Komaromi, R. L. Martin, D. J. Fox, T. Keith, M. A. Al-Laham, 
 C. Y. Peng, A. Nanayakkara, M. Challacombe, P. M. W. Gill, 
 B. Johnson, W. Chen, M. W. Wong, C. Gonzalez, and J. A. Pople, 
 Gaussian, Inc., Wallingford CT, 2004.
 
 ******************************************
 Gaussian 03:  AM64L-G03RevC.02 12-Jun-2004
                13-Jul-2005 
 ******************************************
 %mem=56000000
 ------------------------
 #HF/aug-cc-pVTZ opt freq
 ------------------------
 1/18=20,38=1/1,3;
 2/9=110,17=6,18=5,40=1/2;
 3/5=16,6=1,7=10,11=9,16=1,25=1,30=1/1,2,3;
 4//1;
 5/5=2,38=5/2;
 6/7=2,8=2,9=2,10=2,28=1/1;
 7//1,2,3,16;
 1/18=20/3(1);
 99//99;
 2/9=110/2;
 3/5=16,6=1,7=10,11=9,16=1,25=1,30=1/1,2,3;
 4/5=5,16=3/1;
 5/5=2,38=5/2;
 7//1,2,3,16;
 1/18=20/3(-5);
 2/9=110/2;
 6/7=2,8=2,9=2,10=2,19=2,28=1/1;
 99/9=1/99;
 ----------------------------------------------------
 1himidaz 1H-Imidazole casno=288324 method=1 basis=18
 ----------------------------------------------------
 Symbolic Z-matrix:
 Charge =  0 Multiplicity = 1
 N                    -0.74027  -0.96238   0. 
 H                    -0.01331   2.08163   0. 
 C                     1.10736   0.28671   0. 
 H                     2.10044   0.67539   0. 
 C                     0.62961  -0.9731    0. 
 H                     1.18253  -1.88668   0. 
 H                    -2.07383   0.65621   0. 
 C                    -1.07264   0.27991   0. 
 N                     0.        1.09272   0. 
 

 GradGradGradGradGradGradGradGradGradGradGradGradGradGradGradGradGradGrad
 Berny optimization.
 Initialization pass.
                           ----------------------------
                           !    Initial Parameters    !
                           ! (Angstroms and Degrees)  !
 --------------------------                            --------------------------
 ! Name  Definition              Value          Derivative Info.                !
 --------------------------------------------------------------------------------
 ! R1    R(1,5)                  1.3699         estimate D2E/DX2                !
 ! R2    R(1,8)                  1.286          estimate D2E/DX2                !
 ! R3    R(2,9)                  0.989          estimate D2E/DX2                !
 ! R4    R(3,4)                  1.0664         estimate D2E/DX2                !
 ! R5    R(3,5)                  1.3474         estimate D2E/DX2                !
 ! R6    R(3,9)                  1.3696         estimate D2E/DX2                !
 ! R7    R(5,6)                  1.0679         estimate D2E/DX2                !
 ! R8    R(7,8)                  1.0696         estimate D2E/DX2                !
 ! R9    R(8,9)                  1.3458         estimate D2E/DX2                !
 ! A1    A(5,1,8)              105.427          estimate D2E/DX2                !
 ! A2    A(4,3,5)              132.1428         estimate D2E/DX2                !
 ! A3    A(4,3,9)              122.5753         estimate D2E/DX2                !
 ! A4    A(5,3,9)              105.2818         estimate D2E/DX2                !
 ! A5    A(1,5,3)              110.3194         estimate D2E/DX2                !
 ! A6    A(1,5,6)              121.6317         estimate D2E/DX2                !
 ! A7    A(3,5,6)              128.0489         estimate D2E/DX2                !
 ! A8    A(1,8,7)              125.5776         estimate D2E/DX2                !
 ! A9    A(1,8,9)              112.1753         estimate D2E/DX2                !
 ! A10   A(7,8,9)              122.2471         estimate D2E/DX2                !
 ! A11   A(2,9,3)              126.8206         estimate D2E/DX2                !
 ! A12   A(2,9,8)              126.3829         estimate D2E/DX2                !
 ! A13   A(3,9,8)              106.7965         estimate D2E/DX2                !
 ! D1    D(8,1,5,3)              0.0            estimate D2E/DX2                !
 ! D2    D(8,1,5,6)            180.0            estimate D2E/DX2                !
 ! D3    D(5,1,8,7)            180.0            estimate D2E/DX2                !
 ! D4    D(5,1,8,9)              0.0            estimate D2E/DX2                !
 ! D5    D(4,3,5,1)            180.0            estimate D2E/DX2                !
 ! D6    D(4,3,5,6)              0.0            estimate D2E/DX2                !
 ! D7    D(9,3,5,1)              0.0            estimate D2E/DX2                !
 ! D8    D(9,3,5,6)            180.0            estimate D2E/DX2                !
 ! D9    D(4,3,9,2)              0.0            estimate D2E/DX2                !
 ! D10   D(4,3,9,8)            180.0            estimate D2E/DX2                !
 ! D11   D(5,3,9,2)            180.0            estimate D2E/DX2                !
 ! D12   D(5,3,9,8)              0.0            estimate D2E/DX2                !
 ! D13   D(1,8,9,2)            180.0            estimate D2E/DX2                !
 ! D14   D(1,8,9,3)              0.0            estimate D2E/DX2                !
 ! D15   D(7,8,9,2)              0.0            estimate D2E/DX2                !
 ! D16   D(7,8,9,3)            180.0            estimate D2E/DX2                !
 --------------------------------------------------------------------------------
 Trust Radius=3.00D-01 FncErr=1.00D-07 GrdErr=1.00D-07
 Number of steps in this run=  48 maximum allowed number of steps= 100.
 GradGradGradGradGradGradGradGradGradGradGradGradGradGradGradGradGradGrad

                          Input orientation:                          
 ---------------------------------------------------------------------
 Center     Atomic     Atomic              Coordinates (Angstroms)
 Number     Number      Type              X           Y           Z
 ---------------------------------------------------------------------
    1          7             0       -0.740266   -0.962380    0.000000
    2          1             0       -0.013307    2.081634    0.000000
    3          6             0        1.107361    0.286707    0.000000
    4          1             0        2.100442    0.675391    0.000000
    5          6             0        0.629613   -0.973103    0.000000
    6          1             0        1.182526   -1.886675    0.000000
    7          1             0       -2.073831    0.656212    0.000000
    8          6             0       -1.072636    0.279906    0.000000
    9          7             0        0.000000    1.092720    0.000000
 ---------------------------------------------------------------------
                    Distance matrix (angstroms):
                    1          2          3          4          5
     1  N    0.000000
     2  H    3.129615   0.000000
     3  C    2.230234   2.116048   0.000000
     4  H    3.279011   2.538790   1.066436   0.000000
     5  C    1.369921   3.121660   1.347355   2.209269   0.000000
     6  H    2.133413   4.144574   2.174681   2.721535   1.067861
     7  H    2.097197   2.505511   3.202580   4.174317   3.156466
     8  C    1.285980   2.090072   2.180008   3.197629   2.113689
     9  N    2.184360   0.989004   1.369637   2.141499   2.159638
                    6          7          8          9
     6  H    0.000000
     7  H    4.131602   0.000000
     8  C    3.127272   1.069578   0.000000
     9  N    3.205489   2.119272   1.345814   0.000000
 Stoichiometry    C3H4N2
 Framework group  CS[SG(C3H4N2)]
 Deg. of freedom    15
 Full point group                 CS      NOp   2
 Largest Abelian subgroup         CS      NOp   2
 Largest concise Abelian subgroup C1      NOp   1
                         Standard orientation:                         
 ---------------------------------------------------------------------
 Center     Atomic     Atomic              Coordinates (Angstroms)
 Number     Number      Type              X           Y           Z
 ---------------------------------------------------------------------
    1          7             0       -0.740266   -0.962380    0.000000
    2          1             0       -0.013307    2.081634    0.000000
    3          6             0        1.107361    0.286707    0.000000
    4          1             0        2.100442    0.675391    0.000000
    5          6             0        0.629613   -0.973103    0.000000
    6          1             0        1.182526   -1.886675    0.000000
    7          1             0       -2.073831    0.656212    0.000000
    8          6             0       -1.072636    0.279906    0.000000
    9          7             0        0.000000    1.092720    0.000000
 ---------------------------------------------------------------------
 Rotational constants (GHZ):      9.9519387      9.6939588      4.9106275
 Standard basis: Aug-CC-pVTZ (5D, 7F)
 There are   214 symmetry adapted basis functions of A'  symmetry.
 There are   108 symmetry adapted basis functions of A"  symmetry.
 Integral buffers will be    131072 words long.
 Raffenetti 1 integral format.
 Two-electron integral symmetry is turned on.
   322 basis functions,   473 primitive gaussians,   375 cartesian basis functions
    18 alpha electrons       18 beta electrons
       nuclear repulsion energy       165.3161553468 Hartrees.
 NAtoms=    9 NActive=    9 NUniq=    9 SFac= 1.00D+00 NAtFMM=   60 Big=F
 One-electron integrals computed using PRISM.
 NBasis=   322 RedAO= T  NBF=   214   108
 NBsUse=   322 1.00D-06 NBFU=   214   108
 Harris functional with IExCor=  205 diagonalized for initial guess.
 ExpMin= 2.53D-02 ExpMax= 1.14D+04 ExpMxC= 3.89D+02 IAcc=3 IRadAn=         5 AccDes= 0.00D+00
 HarFok:  IExCor= 205 AccDes= 0.00D+00 IRadAn=         5 IDoV=1
 ScaDFX=  1.000000  1.000000  1.000000  1.000000
 Initial guess orbital symmetries:
       Occupied  (A') (A') (A') (A') (A') (A') (A') (A') (A') (A')
                 (A') (A') (A') (A") (A') (A') (A") (A")
       Virtual   (A") (A") (A') (A') (A') (A') (A') (A") (A') (A')
                 (A") (A') (A") (A') (A') (A') (A') (A') (A') (A')
                 (A") (A') (A") (A') (A') (A") (A') (A') (A') (A')
                 (A') (A') (A") (A') (A") (A") (A') (A') (A') (A")
                 (A') (A") (A') (A') (A') (A') (A") (A') (A") (A')
                 (A') (A") (A') (A") (A') (A') (A') (A') (A') (A')
                 (A") (A') (A') (A") (A') (A") (A') (A") (A') (A')
                 (A") (A') (A") (A') (A") (A') (A') (A') (A') (A')
                 (A") (A') (A") (A') (A') (A") (A") (A') (A') (A")
                 (A') (A') (A') (A") (A') (A") (A') (A") (A') (A")
                 (A') (A') (A') (A') (A") (A") (A') (A') (A") (A')
                 (A") (A') (A') (A") (A') (A") (A') (A') (A") (A')
                 (A') (A") (A') (A') (A") (A') (A") (A') (A') (A")
                 (A') (A") (A') (A') (A") (A') (A") (A') (A') (A')
                 (A") (A") (A') (A') (A") (A') (A') (A') (A') (A")
                 (A') (A") (A') (A") (A') (A') (A") (A') (A') (A")
                 (A') (A") (A') (A") (A") (A') (A') (A') (A') (A')
                 (A") (A') (A") (A') (A') (A") (A') (A') (A") (A')
                 (A") (A') (A') (A") (A') (A') (A') (A") (A') (A')
                 (A") (A") (A') (A') (A') (A') (A") (A") (A') (A")
                 (A') (A") (A") (A') (A") (A') (A') (A") (A') (A')
                 (A") (A") (A') (A") (A') (A') (A") (A') (A') (A')
                 (A') (A") (A') (A") (A') (A") (A') (A') (A') (A")
                 (A') (A') (A') (A") (A") (A') (A') (A") (A') (A")
                 (A') (A") (A') (A') (A') (A') (A") (A') (A") (A')
                 (A') (A") (A") (A') (A") (A') (A") (A') (A') (A')
                 (A') (A") (A') (A") (A') (A") (A") (A") (A') (A')
                 (A') (A') (A") (A") (A") (A') (A") (A') (A") (A')
                 (A') (A") (A') (A') (A') (A") (A') (A') (A') (A')
                 (A') (A') (A') (A') (A') (A') (A') (A') (A') (A')
                 (A') (A') (A') (A')
 The electronic state of the initial guess is 1-A'.
 Requested convergence on RMS density matrix=1.00D-08 within 128 cycles.
 Requested convergence on MAX density matrix=1.00D-06.
 Requested convergence on             energy=1.00D-06.
 No special actions if energy rises.
 SCF Done:  E(RHF) =  -224.900120779     A.U. after   13 cycles
             Convg  =    0.3111D-08             -V/T =  2.0004
             S**2   =   0.0000

 **********************************************************************

            Population analysis using the SCF density.

 **********************************************************************

 Orbital symmetries:
       Occupied  (A') (A') (A') (A') (A') (A') (A') (A') (A') (A')
                 (A') (A') (A") (A') (A') (A') (A") (A")
       Virtual   (A') (A') (A') (A') (A") (A') (A') (A") (A') (A')
                 (A") (A') (A') (A') (A') (A") (A") (A') (A') (A")
                 (A') (A") (A') (A') (A') (A") (A') (A') (A') (A')
                 (A') (A') (A") (A') (A") (A") (A') (A') (A') (A")
                 (A') (A") (A') (A') (A') (A") (A') (A') (A") (A')
                 (A') (A") (A') (A') (A') (A") (A") (A') (A') (A')
                 (A') (A') (A") (A') (A') (A") (A') (A') (A") (A')
                 (A") (A') (A") (A') (A') (A") (A') (A') (A') (A')
                 (A') (A") (A') (A") (A") (A') (A") (A') (A') (A")
                 (A') (A') (A') (A') (A") (A') (A") (A") (A') (A")
                 (A') (A') (A') (A") (A') (A') (A') (A") (A") (A')
                 (A') (A") (A') (A') (A') (A") (A") (A') (A') (A')
                 (A") (A') (A") (A') (A") (A') (A") (A') (A') (A")
                 (A') (A') (A") (A') (A") (A') (A') (A") (A') (A')
                 (A") (A") (A') (A') (A") (A') (A') (A') (A') (A")
                 (A") (A') (A') (A") (A') (A') (A") (A') (A') (A")
                 (A') (A") (A') (A") (A') (A") (A') (A') (A') (A')
                 (A") (A") (A') (A') (A") (A') (A') (A") (A') (A')
                 (A") (A') (A') (A') (A') (A") (A') (A') (A") (A')
                 (A") (A") (A') (A') (A') (A") (A') (A') (A") (A")
                 (A') (A") (A") (A') (A") (A') (A") (A') (A') (A")
                 (A') (A") (A') (A') (A") (A") (A') (A') (A') (A')
                 (A') (A") (A') (A") (A') (A") (A') (A') (A') (A')
                 (A") (A") (A') (A') (A") (A') (A") (A') (A") (A')
                 (A') (A") (A') (A') (A") (A') (A') (A') (A") (A')
                 (A") (A") (A') (A") (A') (A") (A') (A') (A') (A')
                 (A") (A') (A') (A') (A") (A") (A') (A') (A") (A")
                 (A') (A") (A') (A') (A") (A') (A") (A") (A') (A")
                 (A') (A") (A') (A') (A') (A") (A') (A') (A') (A')
                 (A') (A') (A') (A') (A') (A') (A') (A') (A') (A')
                 (A') (A') (A') (A')
 The electronic state is 1-A'.
 Alpha  occ. eigenvalues --  -15.61814 -15.53903 -11.28957 -11.25599 -11.23730
 Alpha  occ. eigenvalues --   -1.35469  -1.17442  -1.01612  -0.83352  -0.80525
 Alpha  occ. eigenvalues --   -0.76641  -0.61535  -0.60706  -0.60498  -0.57420
 Alpha  occ. eigenvalues --   -0.43633  -0.40308  -0.32682
 Alpha virt. eigenvalues --    0.02119   0.03453   0.04140   0.05240   0.07162
 Alpha virt. eigenvalues --    0.08504   0.10419   0.10558   0.10907   0.11174
 Alpha virt. eigenvalues --    0.11735   0.12677   0.13067   0.14104   0.15485
 Alpha virt. eigenvalues --    0.16106   0.18095   0.18855   0.19352   0.20041
 Alpha virt. eigenvalues --    0.20554   0.22531   0.22852   0.24820   0.25681
 Alpha virt. eigenvalues --    0.27300   0.27734   0.29529   0.31063   0.31853
 Alpha virt. eigenvalues --    0.32185   0.32404   0.33322   0.33916   0.34345
 Alpha virt. eigenvalues --    0.36167   0.37487   0.38644   0.39256   0.39900
 Alpha virt. eigenvalues --    0.41122   0.42213   0.43305   0.44804   0.45819
 Alpha virt. eigenvalues --    0.46317   0.47409   0.48270   0.49134   0.49449
 Alpha virt. eigenvalues --    0.49647   0.50697   0.50808   0.51962   0.52894
 Alpha virt. eigenvalues --    0.54489   0.58281   0.58684   0.60993   0.61919
 Alpha virt. eigenvalues --    0.62863   0.65534   0.67281   0.67681   0.69975
 Alpha virt. eigenvalues --    0.70259   0.70693   0.71732   0.72441   0.74537
 Alpha virt. eigenvalues --    0.75445   0.78236   0.79607   0.80273   0.81256
 Alpha virt. eigenvalues --    0.84109   0.86376   0.86655   0.87548   0.89029
 Alpha virt. eigenvalues --    0.92306   0.92925   0.93181   0.93701   0.94050
 Alpha virt. eigenvalues --    0.96075   0.97787   0.98122   0.99793   1.00709
 Alpha virt. eigenvalues --    1.00818   1.03035   1.04192   1.04390   1.05187
 Alpha virt. eigenvalues --    1.06253   1.06333   1.07560   1.10973   1.11017
 Alpha virt. eigenvalues --    1.11858   1.14135   1.15462   1.16816   1.17862
 Alpha virt. eigenvalues --    1.19025   1.20688   1.20927   1.23500   1.24028
 Alpha virt. eigenvalues --    1.27327   1.27455   1.29354   1.30740   1.33394
 Alpha virt. eigenvalues --    1.34593   1.36553   1.40456   1.41257   1.42424
 Alpha virt. eigenvalues --    1.43000   1.47351   1.47433   1.48371   1.50659
 Alpha virt. eigenvalues --    1.51015   1.53184   1.53926   1.56409   1.56869
 Alpha virt. eigenvalues --    1.61843   1.63624   1.67473   1.68022   1.70196
 Alpha virt. eigenvalues --    1.70490   1.74233   1.75748   1.76150   1.79183
 Alpha virt. eigenvalues --    1.82342   1.83488   1.84999   1.87247   1.92425
 Alpha virt. eigenvalues --    1.95374   1.97610   1.98959   2.03058   2.03111
 Alpha virt. eigenvalues --    2.03324   2.03631   2.06108   2.08508   2.11059
 Alpha virt. eigenvalues --    2.13461   2.15088   2.15664   2.18042   2.19846
 Alpha virt. eigenvalues --    2.22527   2.25153   2.27328   2.29042   2.32340
 Alpha virt. eigenvalues --    2.35224   2.36110   2.39909   2.43653   2.45258
 Alpha virt. eigenvalues --    2.48811   2.50544   2.51417   2.56296   2.58054
 Alpha virt. eigenvalues --    2.60636   2.61936   2.69462   2.70071   2.76860
 Alpha virt. eigenvalues --    2.77059   2.79604   2.89762   2.91007   2.99217
 Alpha virt. eigenvalues --    3.02143   3.03014   3.11463   3.12856   3.19200
 Alpha virt. eigenvalues --    3.27826   3.31492   3.33887   3.38310   3.41196
 Alpha virt. eigenvalues --    3.47181   3.47277   3.51142   3.52697   3.56522
 Alpha virt. eigenvalues --    3.58755   3.61513   3.65911   3.68847   3.69717
 Alpha virt. eigenvalues --    3.70861   3.75146   3.76990   3.78035   3.78692
 Alpha virt. eigenvalues --    3.80830   3.83795   3.86138   3.88471   3.89298
 Alpha virt. eigenvalues --    3.92637   3.93297   4.00204   4.05467   4.10822
 Alpha virt. eigenvalues --    4.12268   4.13546   4.14954   4.17702   4.18481
 Alpha virt. eigenvalues --    4.20820   4.22646   4.24149   4.26069   4.28783
 Alpha virt. eigenvalues --    4.29015   4.31936   4.32331   4.40108   4.42081
 Alpha virt. eigenvalues --    4.42858   4.46575   4.51347   4.54292   4.58308
 Alpha virt. eigenvalues --    4.61327   4.67371   4.68269   4.72461   4.81027
 Alpha virt. eigenvalues --    4.81419   4.83993   4.90414   4.95034   4.97272
 Alpha virt. eigenvalues --    4.97611   5.02189   5.03519   5.07480   5.08279
 Alpha virt. eigenvalues --    5.18540   5.18960   5.19609   5.26872   5.34298
 Alpha virt. eigenvalues --    5.34558   5.38280   5.41359   5.48649   5.51047
 Alpha virt. eigenvalues --    5.52746   5.57644   5.58211   5.62900   5.66685
 Alpha virt. eigenvalues --    5.70137   5.76797   5.78939   5.81005   5.83592
 Alpha virt. eigenvalues --    5.84051   5.86435   5.90255   5.96842   5.98859
 Alpha virt. eigenvalues --    6.05692   6.09401   6.12888   6.25707   6.29575
 Alpha virt. eigenvalues --    6.35060   6.44199   6.50229   6.58946   6.62542
 Alpha virt. eigenvalues --    6.70165   6.77640   6.84344   6.94743   7.06663
 Alpha virt. eigenvalues --    7.13423   7.20088   7.60707   7.87893  16.65215
 Alpha virt. eigenvalues --   16.91820  17.97510  18.66420  19.17179
          Condensed to atoms (all electrons):
              1          2          3          4          5          6
     1  N    7.553480  -0.001220  -0.018530   0.006980  -0.051307  -0.007612
     2  H   -0.001220   0.538469  -0.072436   0.012217   0.017221  -0.000173
     3  C   -0.018530  -0.072436   6.430461   0.204077   0.009929   0.049283
     4  H    0.006980   0.012217   0.204077   0.211452   0.029182  -0.002969
     5  C   -0.051307   0.017221   0.009929   0.029182   6.491376   0.196888
     6  H   -0.007612  -0.000173   0.049283  -0.002969   0.196888   0.220598
     7  H    0.007245   0.005535  -0.026867  -0.003272  -0.014986  -0.003454
     8  C    0.222824  -0.067629  -0.299029  -0.021546  -0.208261  -0.024277
     9  N   -0.248458   0.460299   0.248322  -0.003415  -0.157671  -0.000173
              7          8          9
     1  N    0.007245   0.222824  -0.248458
     2  H    0.005535  -0.067629   0.460299
     3  C   -0.026867  -0.299029   0.248322
     4  H   -0.003272  -0.021546  -0.003415
     5  C   -0.014986  -0.208261  -0.157671
     6  H   -0.003454  -0.024277  -0.000173
     7  H    0.207341   0.193154   0.021215
     8  C    0.193154   6.330013   0.472676
     9  N    0.021215   0.472676   6.169290
 Mulliken atomic charges:
              1
     1  N   -0.463402
     2  H    0.107717
     3  C   -0.525209
     4  H    0.567294
     5  C   -0.312372
     6  H    0.571890
     7  H    0.614089
     8  C   -0.597924
     9  N    0.037916
 Sum of Mulliken charges=   0.00000
 Atomic charges with hydrogens summed into heavy atoms:
              1
     1  N   -0.463402
     2  H    0.000000
     3  C    0.042086
     4  H    0.000000
     5  C    0.259517
     6  H    0.000000
     7  H    0.000000
     8  C    0.016165
     9  N    0.145634
 Sum of Mulliken charges=   0.00000
 Electronic spatial extent (au):  <R**2>=   280.5538
 Charge=     0.0000 electrons
 Dipole moment (field-independent basis, Debye):
    X=     1.0739    Y=     3.6363    Z=     0.0000  Tot=     3.7915
 Quadrupole moment (field-independent basis, Debye-Ang):
   XX=   -26.7616   YY=   -25.9837   ZZ=   -32.3234
   XY=    -3.5291   XZ=     0.0000   YZ=     0.0000
 Traceless Quadrupole moment (field-independent basis, Debye-Ang):
   XX=     1.5946   YY=     2.3725   ZZ=    -3.9671
   XY=    -3.5291   XZ=     0.0000   YZ=     0.0000
 Octapole moment (field-independent basis, Debye-Ang**2):
  XXX=    -0.1039  YYY=    16.0019  ZZZ=     0.0000  XYY=     5.9073
  XXY=     7.1439  XXZ=     0.0000  XZZ=    -1.3720  YZZ=     1.4314
  YYZ=     0.0000  XYZ=     0.0000
 Hexadecapole moment (field-independent basis, Debye-Ang**3):
 XXXX=  -155.9081 YYYY=  -137.8042 ZZZZ=   -36.4024 XXXY=    -3.5111
 XXXZ=     0.0000 YYYX=    -9.9020 YYYZ=     0.0000 ZZZX=     0.0000
 ZZZY=     0.0000 XXYY=   -57.4813 XXZZ=   -40.1878 YYZZ=   -36.9237
 XXYZ=     0.0000 YYXZ=     0.0000 ZZXY=     0.5851
 N-N= 1.653161553468D+02 E-N=-8.563199199760D+02  KE= 2.248038875019D+02
 Symmetry A'   KE= 2.170657872768D+02
 Symmetry A"   KE= 7.738100225172D+00
 ***** Axes restored to original set *****
 -------------------------------------------------------------------
 Center     Atomic                   Forces (Hartrees/Bohr)
 Number     Number              X              Y              Z
 -------------------------------------------------------------------
    1          7          -0.000208882    0.000190105    0.000000000
    2          1          -0.000078432    0.000085388    0.000000000
    3          6           0.000252378    0.000350535    0.000000000
    4          1          -0.000080101   -0.000119647    0.000000000
    5          6           0.000748078   -0.000672017    0.000000000
    6          1          -0.000068946    0.000167140    0.000000000
    7          1           0.000161111   -0.000064587    0.000000000
    8          6          -0.000865147    0.000399844    0.000000000
    9          7           0.000139941   -0.000336761    0.000000000
 -------------------------------------------------------------------
 Cartesian Forces:  Max     0.000865147 RMS     0.000299129

 GradGradGradGradGradGradGradGradGradGradGradGradGradGradGradGradGradGrad
 Berny optimization.
 Internal  Forces:  Max     0.000571412 RMS     0.000166514
 Search for a local minimum.
 Step number   1 out of a maximum of  48
 All quantities printed in internal units (Hartrees-Bohrs-Radians)
 Second derivative matrix not updated -- first step.
     Eigenvalues ---    0.02237   0.02377   0.02412   0.02586   0.02641
     Eigenvalues ---    0.02746   0.16000   0.16000   0.16000   0.16000
     Eigenvalues ---    0.22000   0.22911   0.37283   0.37502   0.37684
     Eigenvalues ---    0.45413   0.48268   0.49675   0.51880   0.55534
     Eigenvalues ---    0.679531000.000001000.000001000.000001000.00000
     Eigenvalues --- 1000.000001000.000001000.000001000.000001000.00000
     Eigenvalues --- 1000.000001000.000001000.000001000.000001000.00000
     Eigenvalues --- 1000.000001000.000001000.00000
 RFO step:  Lambda=-3.38268181D-06.
 Linear search not attempted -- first point.
 Iteration  1 RMS(Cart)=  0.00056470 RMS(Int)=  0.00000023
 Iteration  2 RMS(Cart)=  0.00000023 RMS(Int)=  0.00000001
 Variable       Old X    -DE/DX   Delta X   Delta X   Delta X     New X
                                 (Linear)    (Quad)   (Total)
    R1        2.58878   0.00057   0.00000   0.00118   0.00118   2.58996
    R2        2.43015   0.00018   0.00000   0.00027   0.00027   2.43042
    R3        1.86895   0.00009   0.00000   0.00017   0.00017   1.86912
    R4        2.01527  -0.00012   0.00000  -0.00031  -0.00031   2.01496
    R5        2.54613   0.00017   0.00000   0.00032   0.00032   2.54645
    R6        2.58824   0.00022   0.00000   0.00039   0.00039   2.58863
    R7        2.01796  -0.00018   0.00000  -0.00048  -0.00048   2.01749
    R8        2.02121  -0.00017   0.00000  -0.00047  -0.00047   2.02074
    R9        2.54322   0.00013   0.00000   0.00019   0.00019   2.54341
    A1        1.84005   0.00029   0.00000   0.00142   0.00142   1.84147
    A2        2.30633  -0.00009   0.00000  -0.00051  -0.00051   2.30582
    A3        2.13934   0.00008   0.00000   0.00053   0.00053   2.13987
    A4        1.83751   0.00001   0.00000  -0.00002  -0.00002   1.83749
    A5        1.92544  -0.00026   0.00000  -0.00103  -0.00103   1.92440
    A6        2.12287   0.00016   0.00000   0.00069   0.00069   2.12356
    A7        2.23488   0.00010   0.00000   0.00034   0.00034   2.23522
    A8        2.19174   0.00016   0.00000   0.00074   0.00074   2.19249
    A9        1.95783  -0.00033   0.00000  -0.00154  -0.00154   1.95629
   A10        2.13361   0.00017   0.00000   0.00079   0.00079   2.13441
   A11        2.21344  -0.00008   0.00000  -0.00013  -0.00013   2.21330
   A12        2.20580  -0.00022   0.00000  -0.00104  -0.00104   2.20476
   A13        1.86395   0.00030   0.00000   0.00117   0.00117   1.86512
    D1        0.00000   0.00000   0.00000   0.00000   0.00000   0.00000
    D2        3.14159   0.00000   0.00000   0.00000   0.00000   3.14159
    D3        3.14159   0.00000   0.00000   0.00000   0.00000   3.14159
    D4        0.00000   0.00000   0.00000   0.00000   0.00000   0.00000
    D5        3.14159   0.00000   0.00000   0.00000   0.00000   3.14159
    D6        0.00000   0.00000   0.00000   0.00000   0.00000   0.00000
    D7        0.00000   0.00000   0.00000   0.00000   0.00000   0.00000
    D8        3.14159   0.00000   0.00000   0.00000   0.00000   3.14159
    D9        0.00000   0.00000   0.00000   0.00000   0.00000   0.00000
   D10        3.14159   0.00000   0.00000   0.00000   0.00000   3.14159
   D11        3.14159   0.00000   0.00000   0.00000   0.00000   3.14159
   D12        0.00000   0.00000   0.00000   0.00000   0.00000   0.00000
   D13        3.14159   0.00000   0.00000   0.00000   0.00000   3.14159
   D14        0.00000   0.00000   0.00000   0.00000   0.00000   0.00000
   D15        0.00000   0.00000   0.00000   0.00000   0.00000   0.00000
   D16        3.14159   0.00000   0.00000   0.00000   0.00000   3.14159
         Item               Value     Threshold  Converged?
 Maximum Force            0.000571     0.000450     NO 
 RMS     Force            0.000167     0.000300     YES
 Maximum Displacement     0.001615     0.001800     YES
 RMS     Displacement     0.000565     0.001200     YES
 Predicted change in Energy=-1.691336D-06
 GradGradGradGradGradGradGradGradGradGradGradGradGradGradGradGradGradGrad

                          Input orientation:                          
 ---------------------------------------------------------------------
 Center     Atomic     Atomic              Coordinates (Angstroms)
 Number     Number      Type              X           Y           Z
 ---------------------------------------------------------------------
    1          7             0       -0.740190   -0.961794    0.000000
    2          1             0       -0.013636    2.081389    0.000000
    3          6             0        1.107699    0.286643    0.000000
    4          1             0        2.100694    0.675091    0.000000
    5          6             0        0.630306   -0.973483    0.000000
    6          1             0        1.183077   -1.886846    0.000000
    7          1             0       -2.074446    0.656635    0.000000
    8          6             0       -1.073491    0.280390    0.000000
    9          7             0       -0.000112    1.092386    0.000000
 ---------------------------------------------------------------------
                    Distance matrix (angstroms):
                    1          2          3          4          5
     1  N    0.000000
     2  H    3.128713   0.000000
     3  C    2.230087   2.116248   0.000000
     4  H    3.278721   2.539304   1.066270   0.000000
     5  C    1.370546   3.122004   1.347524   2.209035   0.000000
     6  H    2.134169   4.144758   2.174796   2.721313   1.067609
     7  H    2.097511   2.505366   3.203582   4.175180   3.158000
     8  C    1.286122   2.089710   2.181198   3.198630   2.115448
     9  N    2.183431   0.989096   1.369842   2.141849   2.159917
                    6          7          8          9
     6  H    0.000000
     7  H    4.132887   0.000000
     8  C    3.128740   1.069332   0.000000
     9  N    3.205583   2.119608   1.345912   0.000000
 Stoichiometry    C3H4N2
 Framework group  CS[SG(C3H4N2)]
 Deg. of freedom    15
 Full point group                 CS      NOp   2
 Largest Abelian subgroup         CS      NOp   2
 Largest concise Abelian subgroup C1      NOp   1
                         Standard orientation:                         
 ---------------------------------------------------------------------
 Center     Atomic     Atomic              Coordinates (Angstroms)
 Number     Number      Type              X           Y           Z
 ---------------------------------------------------------------------
    1          7             0       -0.740323   -0.961753    0.000000
    2          1             0       -0.013407    2.081343    0.000000
    3          6             0        1.107714    0.286463    0.000000
    4          1             0        2.100756    0.674793    0.000000
    5          6             0        0.630172   -0.973606    0.000000
    6          1             0        1.182834   -1.887035    0.000000
    7          1             0       -2.074386    0.656835    0.000000
    8          6             0       -1.073476    0.280471    0.000000
    9          7             0        0.000000    1.092338    0.000000
 ---------------------------------------------------------------------
 Rotational constants (GHZ):      9.9406163      9.6990415      4.9091716
 Standard basis: Aug-CC-pVTZ (5D, 7F)
 There are   214 symmetry adapted basis functions of A'  symmetry.
 There are   108 symmetry adapted basis functions of A"  symmetry.
 Integral buffers will be    131072 words long.
 Raffenetti 1 integral format.
 Two-electron integral symmetry is turned on.
   322 basis functions,   473 primitive gaussians,   375 cartesian basis functions
    18 alpha electrons       18 beta electrons
       nuclear repulsion energy       165.2924335092 Hartrees.
 NAtoms=    9 NActive=    9 NUniq=    9 SFac= 1.00D+00 NAtFMM=   60 Big=F
 One-electron integrals computed using PRISM.
 NBasis=   322 RedAO= T  NBF=   214   108
 NBsUse=   322 1.00D-06 NBFU=   214   108
 Initial guess read from the read-write file:
 Initial guess orbital symmetries:
       Occupied  (A') (A') (A') (A') (A') (A') (A') (A') (A') (A')
                 (A') (A') (A") (A') (A') (A') (A") (A")
       Virtual   (A') (A') (A') (A') (A") (A') (A') (A") (A') (A')
                 (A") (A') (A') (A') (A') (A") (A") (A') (A') (A")
                 (A') (A") (A') (A') (A') (A") (A') (A') (A') (A')
                 (A') (A') (A") (A') (A") (A") (A') (A') (A') (A")
                 (A') (A") (A') (A') (A') (A") (A') (A') (A") (A')
                 (A') (A") (A') (A') (A') (A") (A") (A') (A') (A')
                 (A') (A') (A") (A') (A') (A") (A') (A') (A") (A')
                 (A") (A') (A") (A') (A') (A") (A') (A') (A') (A')
                 (A') (A") (A') (A") (A") (A') (A") (A') (A') (A")
                 (A') (A') (A') (A') (A") (A') (A") (A") (A') (A")
                 (A') (A') (A') (A") (A') (A') (A') (A") (A") (A')
                 (A') (A") (A') (A') (A') (A") (A") (A') (A') (A')
                 (A") (A') (A") (A') (A") (A') (A") (A') (A') (A")
                 (A') (A') (A") (A') (A") (A') (A') (A") (A') (A')
                 (A") (A") (A') (A') (A") (A') (A') (A') (A') (A")
                 (A") (A') (A') (A") (A') (A') (A") (A') (A') (A")
                 (A') (A") (A') (A") (A') (A") (A') (A') (A') (A')
                 (A") (A") (A') (A') (A") (A') (A') (A") (A') (A')
                 (A") (A') (A') (A') (A') (A") (A') (A') (A") (A')
                 (A") (A") (A') (A') (A') (A") (A') (A') (A") (A")
                 (A') (A") (A") (A') (A") (A') (A") (A') (A') (A")
                 (A') (A") (A') (A') (A") (A") (A') (A') (A') (A')
                 (A') (A") (A') (A") (A') (A") (A') (A') (A') (A')
                 (A") (A") (A') (A') (A") (A') (A") (A') (A") (A')
                 (A') (A") (A') (A') (A") (A') (A') (A') (A") (A')
                 (A") (A") (A') (A") (A') (A") (A') (A') (A') (A')
                 (A") (A') (A') (A') (A") (A") (A') (A') (A") (A")
                 (A') (A") (A') (A') (A") (A') (A") (A") (A') (A")
                 (A') (A") (A') (A') (A') (A") (A') (A') (A') (A')
                 (A') (A') (A') (A') (A') (A') (A') (A') (A') (A')
                 (A') (A') (A') (A')
 Requested convergence on RMS density matrix=1.00D-08 within 128 cycles.
 Requested convergence on MAX density matrix=1.00D-06.
 Requested convergence on             energy=1.00D-06.
 No special actions if energy rises.
 SCF Done:  E(RHF) =  -224.900121626     A.U. after    8 cycles
             Convg  =    0.4831D-08             -V/T =  2.0004
             S**2   =   0.0000
 ***** Axes restored to original set *****
 -------------------------------------------------------------------
 Center     Atomic                   Forces (Hartrees/Bohr)
 Number     Number              X              Y              Z
 -------------------------------------------------------------------
    1          7          -0.000200381   -0.000219349    0.000000000
    2          1           0.000019691    0.000019110    0.000000000
    3          6          -0.000222398    0.000108060    0.000000000
    4          1           0.000003934    0.000018976    0.000000000
    5          6          -0.000100943    0.000147044    0.000000000
    6          1          -0.000049776   -0.000007330    0.000000000
    7          1           0.000020498   -0.000016346    0.000000000
    8          6           0.000348412   -0.000218069    0.000000000
    9          7           0.000180965    0.000167904    0.000000000
 -------------------------------------------------------------------
 Cartesian Forces:  Max     0.000348412 RMS     0.000124044

 GradGradGradGradGradGradGradGradGradGradGradGradGradGradGradGradGradGrad
 Berny optimization.
 Internal  Forces:  Max     0.000272275 RMS     0.000095931
 Search for a local minimum.
 Step number   2 out of a maximum of  48
 All quantities printed in internal units (Hartrees-Bohrs-Radians)
 Update second derivatives using D2CorX and points  1  2
 Trust test= 5.01D-01 RLast= 3.54D-03 DXMaxT set to 3.00D-01
     Eigenvalues ---    0.02237   0.02377   0.02412   0.02586   0.02641
     Eigenvalues ---    0.02746   0.15813   0.16000   0.16000   0.16101
     Eigenvalues ---    0.22112   0.33258   0.35912   0.37401   0.37706
     Eigenvalues ---    0.43430   0.49388   0.49577   0.53238   0.58888
     Eigenvalues ---    0.687271000.000001000.000001000.000001000.00000
     Eigenvalues --- 1000.000001000.000001000.000001000.000001000.00000
     Eigenvalues --- 1000.000001000.000001000.000001000.000001000.00000
     Eigenvalues --- 1000.000001000.000001000.00000
 RFO step:  Lambda=-2.03367250D-07.
 Quartic linear search produced a step of -0.33299.
 Iteration  1 RMS(Cart)=  0.00025181 RMS(Int)=  0.00000004
 Iteration  2 RMS(Cart)=  0.00000004 RMS(Int)=  0.00000001
 Variable       Old X    -DE/DX   Delta X   Delta X   Delta X     New X
                                 (Linear)    (Quad)   (Total)
    R1        2.58996  -0.00008  -0.00039   0.00035  -0.00004   2.58992
    R2        2.43042  -0.00005  -0.00009   0.00005  -0.00004   2.43038
    R3        1.86912   0.00002  -0.00006   0.00009   0.00004   1.86916
    R4        2.01496   0.00001   0.00010  -0.00010   0.00000   2.01496
    R5        2.54645   0.00008  -0.00011   0.00022   0.00012   2.54657
    R6        2.58863  -0.00027  -0.00013  -0.00020  -0.00033   2.58830
    R7        2.01749  -0.00002   0.00016  -0.00022  -0.00006   2.01742
    R8        2.02074  -0.00002   0.00015  -0.00023  -0.00007   2.02067
    R9        2.54341   0.00008  -0.00006   0.00017   0.00011   2.54352
    A1        1.84147  -0.00027  -0.00047  -0.00020  -0.00067   1.84080
    A2        2.30582   0.00000   0.00017  -0.00018  -0.00001   2.30581
    A3        2.13987  -0.00004  -0.00018   0.00009  -0.00009   2.13979
    A4        1.83749   0.00004   0.00001   0.00009   0.00010   1.83759
    A5        1.92440   0.00013   0.00034  -0.00003   0.00031   1.92472
    A6        2.12356  -0.00011  -0.00023  -0.00011  -0.00034   2.12322
    A7        2.23522  -0.00002  -0.00011   0.00014   0.00003   2.23525
    A8        2.19249  -0.00014  -0.00025  -0.00013  -0.00038   2.19211
    A9        1.95629   0.00026   0.00051   0.00018   0.00069   1.95698
   A10        2.13441  -0.00012  -0.00026  -0.00005  -0.00031   2.13410
   A11        2.21330   0.00006   0.00004   0.00012   0.00017   2.21347
   A12        2.20476   0.00010   0.00035  -0.00008   0.00027   2.20503
   A13        1.86512  -0.00016  -0.00039  -0.00004  -0.00043   1.86469
    D1        0.00000   0.00000   0.00000   0.00000   0.00000   0.00000
    D2        3.14159   0.00000   0.00000   0.00000   0.00000   3.14159
    D3        3.14159   0.00000   0.00000   0.00000   0.00000   3.14159
    D4        0.00000   0.00000   0.00000   0.00000   0.00000   0.00000
    D5        3.14159   0.00000   0.00000   0.00000   0.00000   3.14159
    D6        0.00000   0.00000   0.00000   0.00000   0.00000   0.00000
    D7        0.00000   0.00000   0.00000   0.00000   0.00000   0.00000
    D8        3.14159   0.00000   0.00000   0.00000   0.00000   3.14159
    D9        0.00000   0.00000   0.00000   0.00000   0.00000   0.00000
   D10        3.14159   0.00000   0.00000   0.00000   0.00000   3.14159
   D11        3.14159   0.00000   0.00000   0.00000   0.00000   3.14159
   D12        0.00000   0.00000   0.00000   0.00000   0.00000   0.00000
   D13        3.14159   0.00000   0.00000   0.00000   0.00000   3.14159
   D14        0.00000   0.00000   0.00000   0.00000   0.00000   0.00000
   D15        0.00000   0.00000   0.00000   0.00000   0.00000   0.00000
   D16        3.14159   0.00000   0.00000   0.00000   0.00000   3.14159
         Item               Value     Threshold  Converged?
 Maximum Force            0.000272     0.000450     YES
 RMS     Force            0.000096     0.000300     YES
 Maximum Displacement     0.000665     0.001800     YES
 RMS     Displacement     0.000252     0.001200     YES
 Predicted change in Energy=-3.825931D-07
 Optimization completed.
    -- Stationary point found.
                           ----------------------------
                           !   Optimized Parameters   !
                           ! (Angstroms and Degrees)  !
 --------------------------                            --------------------------
 ! Name  Definition              Value          Derivative Info.                !
 --------------------------------------------------------------------------------
 ! R1    R(1,5)                  1.3705         -DE/DX =   -0.0001              !
 ! R2    R(1,8)                  1.2861         -DE/DX =   -0.0001              !
 ! R3    R(2,9)                  0.9891         -DE/DX =    0.0                 !
 ! R4    R(3,4)                  1.0663         -DE/DX =    0.0                 !
 ! R5    R(3,5)                  1.3475         -DE/DX =    0.0001              !
 ! R6    R(3,9)                  1.3698         -DE/DX =   -0.0003              !
 ! R7    R(5,6)                  1.0676         -DE/DX =    0.0                 !
 ! R8    R(7,8)                  1.0693         -DE/DX =    0.0                 !
 ! R9    R(8,9)                  1.3459         -DE/DX =    0.0001              !
 ! A1    A(5,1,8)              105.5084         -DE/DX =   -0.0003              !
 ! A2    A(4,3,5)              132.1138         -DE/DX =    0.0                 !
 ! A3    A(4,3,9)              122.6057         -DE/DX =    0.0                 !
 ! A4    A(5,3,9)              105.2805         -DE/DX =    0.0                 !
 ! A5    A(1,5,3)              110.2603         -DE/DX =    0.0001              !
 ! A6    A(1,5,6)              121.6712         -DE/DX =   -0.0001              !
 ! A7    A(3,5,6)              128.0685         -DE/DX =    0.0                 !
 ! A8    A(1,8,7)              125.6203         -DE/DX =   -0.0001              !
 ! A9    A(1,8,9)              112.0872         -DE/DX =    0.0003              !
 ! A10   A(7,8,9)              122.2925         -DE/DX =   -0.0001              !
 ! A11   A(2,9,3)              126.813          -DE/DX =    0.0001              !
 ! A12   A(2,9,8)              126.3235         -DE/DX =    0.0001              !
 ! A13   A(3,9,8)              106.8635         -DE/DX =   -0.0002              !
 ! D1    D(8,1,5,3)              0.0            -DE/DX =    0.0                 !
 ! D2    D(8,1,5,6)            180.0            -DE/DX =    0.0                 !
 ! D3    D(5,1,8,7)            180.0            -DE/DX =    0.0                 !
 ! D4    D(5,1,8,9)              0.0            -DE/DX =    0.0                 !
 ! D5    D(4,3,5,1)            180.0            -DE/DX =    0.0                 !
 ! D6    D(4,3,5,6)              0.0            -DE/DX =    0.0                 !
 ! D7    D(9,3,5,1)              0.0            -DE/DX =    0.0                 !
 ! D8    D(9,3,5,6)            180.0            -DE/DX =    0.0                 !
 ! D9    D(4,3,9,2)              0.0            -DE/DX =    0.0                 !
 ! D10   D(4,3,9,8)            180.0            -DE/DX =    0.0                 !
 ! D11   D(5,3,9,2)            180.0            -DE/DX =    0.0                 !
 ! D12   D(5,3,9,8)              0.0            -DE/DX =    0.0                 !
 ! D13   D(1,8,9,2)            180.0            -DE/DX =    0.0                 !
 ! D14   D(1,8,9,3)              0.0            -DE/DX =    0.0                 !
 ! D15   D(7,8,9,2)              0.0            -DE/DX =    0.0                 !
 ! D16   D(7,8,9,3)            180.0            -DE/DX =    0.0                 !
 --------------------------------------------------------------------------------
 GradGradGradGradGradGradGradGradGradGradGradGradGradGradGradGradGradGrad

                          Input orientation:                          
 ---------------------------------------------------------------------
 Center     Atomic     Atomic              Coordinates (Angstroms)
 Number     Number      Type              X           Y           Z
 ---------------------------------------------------------------------
    1          7             0       -0.740190   -0.961794    0.000000
    2          1             0       -0.013636    2.081389    0.000000
    3          6             0        1.107699    0.286643    0.000000
    4          1             0        2.100694    0.675091    0.000000
    5          6             0        0.630306   -0.973483    0.000000
    6          1             0        1.183077   -1.886846    0.000000
    7          1             0       -2.074446    0.656635    0.000000
    8          6             0       -1.073491    0.280390    0.000000
    9          7             0       -0.000112    1.092386    0.000000
 ---------------------------------------------------------------------
                    Distance matrix (angstroms):
                    1          2          3          4          5
     1  N    0.000000
     2  H    3.128713   0.000000
     3  C    2.230087   2.116248   0.000000
     4  H    3.278721   2.539304   1.066270   0.000000
     5  C    1.370546   3.122004   1.347524   2.209035   0.000000
     6  H    2.134169   4.144758   2.174796   2.721313   1.067609
     7  H    2.097511   2.505366   3.203582   4.175180   3.158000
     8  C    1.286122   2.089710   2.181198   3.198630   2.115448
     9  N    2.183431   0.989096   1.369842   2.141849   2.159917
                    6          7          8          9
     6  H    0.000000
     7  H    4.132887   0.000000
     8  C    3.128740   1.069332   0.000000
     9  N    3.205583   2.119608   1.345912   0.000000
 Stoichiometry    C3H4N2
 Framework group  CS[SG(C3H4N2)]
 Deg. of freedom    15
 Full point group                 CS      NOp   2
 Largest Abelian subgroup         CS      NOp   2
 Largest concise Abelian subgroup C1      NOp   1
                         Standard orientation:                         
 ---------------------------------------------------------------------
 Center     Atomic     Atomic              Coordinates (Angstroms)
 Number     Number      Type              X           Y           Z
 ---------------------------------------------------------------------
    1          7             0       -0.740323   -0.961753    0.000000
    2          1             0       -0.013407    2.081343    0.000000
    3          6             0        1.107714    0.286463    0.000000
    4          1             0        2.100756    0.674793    0.000000
    5          6             0        0.630172   -0.973606    0.000000
    6          1             0        1.182834   -1.887035    0.000000
    7          1             0       -2.074386    0.656835    0.000000
    8          6             0       -1.073476    0.280471    0.000000
    9          7             0        0.000000    1.092338    0.000000
 ---------------------------------------------------------------------
 Rotational constants (GHZ):      9.9406163      9.6990415      4.9091716

 **********************************************************************

            Population analysis using the SCF density.

 **********************************************************************

 Orbital symmetries:
       Occupied  (A') (A') (A') (A') (A') (A') (A') (A') (A') (A')
                 (A') (A') (A") (A') (A') (A') (A") (A")
       Virtual   (A') (A') (A') (A') (A") (A') (A') (A") (A') (A')
                 (A") (A') (A') (A') (A') (A") (A") (A') (A') (A")
                 (A') (A") (A') (A') (A') (A") (A') (A') (A') (A')
                 (A') (A') (A") (A') (A") (A") (A') (A') (A') (A")
                 (A') (A") (A') (A') (A') (A") (A') (A') (A") (A')
                 (A') (A") (A') (A') (A') (A") (A") (A') (A') (A')
                 (A') (A') (A") (A') (A') (A") (A') (A') (A") (A')
                 (A") (A') (A") (A') (A') (A") (A') (A') (A') (A')
                 (A') (A") (A') (A") (A") (A') (A") (A') (A') (A")
                 (A') (A') (A') (A') (A") (A') (A") (A") (A') (A")
                 (A') (A') (A') (A") (A') (A') (A') (A") (A") (A')
                 (A') (A") (A') (A') (A') (A") (A") (A') (A') (A')
                 (A") (A') (A") (A') (A") (A') (A") (A') (A') (A")
                 (A') (A') (A") (A') (A") (A') (A') (A") (A') (A')
                 (A") (A") (A') (A') (A") (A') (A') (A') (A') (A")
                 (A") (A') (A') (A") (A') (A') (A") (A') (A') (A")
                 (A') (A") (A') (A") (A') (A") (A') (A') (A') (A')
                 (A") (A") (A') (A') (A") (A') (A') (A") (A') (A')
                 (A") (A') (A') (A') (A') (A") (A') (A') (A") (A')
                 (A") (A") (A') (A') (A') (A") (A') (A') (A") (A")
                 (A') (A") (A") (A') (A") (A') (A") (A') (A') (A")
                 (A') (A") (A') (A') (A") (A") (A') (A') (A') (A')
                 (A') (A") (A') (A") (A') (A") (A') (A') (A') (A')
                 (A") (A") (A') (A') (A") (A') (A") (A') (A") (A')
                 (A') (A") (A') (A') (A") (A') (A') (A') (A") (A')
                 (A") (A") (A') (A") (A') (A") (A') (A') (A') (A')
                 (A") (A') (A') (A') (A") (A") (A') (A') (A") (A")
                 (A') (A") (A') (A') (A") (A') (A") (A") (A') (A")
                 (A') (A") (A') (A') (A') (A") (A') (A') (A') (A')
                 (A') (A') (A') (A') (A') (A') (A') (A') (A') (A')
                 (A') (A') (A') (A')
 The electronic state is 1-A'.
 Alpha  occ. eigenvalues --  -15.61810 -15.53900 -11.28958 -11.25608 -11.23738
 Alpha  occ. eigenvalues --   -1.35447  -1.17405  -1.01621  -0.83328  -0.80523
 Alpha  occ. eigenvalues --   -0.76645  -0.61514  -0.60691  -0.60519  -0.57452
 Alpha  occ. eigenvalues --   -0.43604  -0.40287  -0.32688
 Alpha virt. eigenvalues --    0.02120   0.03453   0.04140   0.05239   0.07161
 Alpha virt. eigenvalues --    0.08504   0.10420   0.10558   0.10909   0.11173
 Alpha virt. eigenvalues --    0.11734   0.12677   0.13067   0.14103   0.15485
 Alpha virt. eigenvalues --    0.16107   0.18093   0.18847   0.19354   0.20040
 Alpha virt. eigenvalues --    0.20557   0.22524   0.22849   0.24820   0.25682
 Alpha virt. eigenvalues --    0.27301   0.27734   0.29527   0.31063   0.31851
 Alpha virt. eigenvalues --    0.32188   0.32403   0.33318   0.33916   0.34344
 Alpha virt. eigenvalues --    0.36165   0.37481   0.38643   0.39253   0.39898
 Alpha virt. eigenvalues --    0.41131   0.42207   0.43293   0.44801   0.45802
 Alpha virt. eigenvalues --    0.46318   0.47406   0.48261   0.49139   0.49447
 Alpha virt. eigenvalues --    0.49636   0.50712   0.50816   0.51962   0.52887
 Alpha virt. eigenvalues --    0.54497   0.58277   0.58686   0.60991   0.61929
 Alpha virt. eigenvalues --    0.62862   0.65539   0.67278   0.67670   0.69954
 Alpha virt. eigenvalues --    0.70263   0.70696   0.71736   0.72432   0.74539
 Alpha virt. eigenvalues --    0.75443   0.78234   0.79607   0.80265   0.81267
 Alpha virt. eigenvalues --    0.84105   0.86381   0.86658   0.87534   0.89028
 Alpha virt. eigenvalues --    0.92303   0.92921   0.93166   0.93700   0.94052
 Alpha virt. eigenvalues --    0.96069   0.97797   0.98119   0.99769   1.00706
 Alpha virt. eigenvalues --    1.00807   1.03046   1.04189   1.04378   1.05178
 Alpha virt. eigenvalues --    1.06258   1.06334   1.07564   1.10962   1.11013
 Alpha virt. eigenvalues --    1.11856   1.14132   1.15470   1.16826   1.17863
 Alpha virt. eigenvalues --    1.19034   1.20690   1.20929   1.23516   1.24028
 Alpha virt. eigenvalues --    1.27329   1.27467   1.29350   1.30738   1.33389
 Alpha virt. eigenvalues --    1.34605   1.36572   1.40450   1.41255   1.42405
 Alpha virt. eigenvalues --    1.42987   1.47367   1.47415   1.48374   1.50640
 Alpha virt. eigenvalues --    1.50993   1.53178   1.53929   1.56401   1.56834
 Alpha virt. eigenvalues --    1.61814   1.63616   1.67501   1.68010   1.70165
 Alpha virt. eigenvalues --    1.70462   1.74217   1.75749   1.76150   1.79184
 Alpha virt. eigenvalues --    1.82345   1.83463   1.85002   1.87259   1.92379
 Alpha virt. eigenvalues --    1.95385   1.97604   1.98918   2.03056   2.03090
 Alpha virt. eigenvalues --    2.03347   2.03623   2.06108   2.08511   2.11074
 Alpha virt. eigenvalues --    2.13484   2.15077   2.15678   2.18027   2.19818
 Alpha virt. eigenvalues --    2.22532   2.25165   2.27301   2.29027   2.32324
 Alpha virt. eigenvalues --    2.35240   2.36109   2.39895   2.43642   2.45217
 Alpha virt. eigenvalues --    2.48814   2.50525   2.51399   2.56229   2.58041
 Alpha virt. eigenvalues --    2.60659   2.61934   2.69469   2.70105   2.76821
 Alpha virt. eigenvalues --    2.77020   2.79625   2.89771   2.90990   2.99194
 Alpha virt. eigenvalues --    3.02149   3.02951   3.11432   3.12851   3.19164
 Alpha virt. eigenvalues --    3.27799   3.31475   3.33829   3.38322   3.41107
 Alpha virt. eigenvalues --    3.47162   3.47242   3.51128   3.52703   3.56518
 Alpha virt. eigenvalues --    3.58752   3.61496   3.65903   3.68855   3.69712
 Alpha virt. eigenvalues --    3.70844   3.75123   3.76965   3.78036   3.78684
 Alpha virt. eigenvalues --    3.80827   3.83824   3.86117   3.88446   3.89300
 Alpha virt. eigenvalues --    3.92640   3.93286   4.00221   4.05445   4.10845
 Alpha virt. eigenvalues --    4.12261   4.13520   4.14973   4.17659   4.18456
 Alpha virt. eigenvalues --    4.20799   4.22644   4.24095   4.26085   4.28726
 Alpha virt. eigenvalues --    4.29011   4.31964   4.32368   4.40047   4.42057
 Alpha virt. eigenvalues --    4.42849   4.46577   4.51299   4.54273   4.58333
 Alpha virt. eigenvalues --    4.61342   4.67337   4.68266   4.72455   4.81040
 Alpha virt. eigenvalues --    4.81455   4.83969   4.90416   4.94997   4.97242
 Alpha virt. eigenvalues --    4.97621   5.02171   5.03509   5.07473   5.08241
 Alpha virt. eigenvalues --    5.18525   5.18941   5.19581   5.26836   5.34181
 Alpha virt. eigenvalues --    5.34560   5.38286   5.41335   5.48647   5.51118
 Alpha virt. eigenvalues --    5.52723   5.57690   5.58185   5.62834   5.66651
 Alpha virt. eigenvalues --    5.70106   5.76803   5.78960   5.80936   5.83609
 Alpha virt. eigenvalues --    5.84062   5.86441   5.90235   5.96880   5.98821
 Alpha virt. eigenvalues --    6.05722   6.09399   6.12928   6.25762   6.29702
 Alpha virt. eigenvalues --    6.34997   6.44285   6.50159   6.58989   6.62491
 Alpha virt. eigenvalues --    6.70168   6.77492   6.84190   6.94721   7.06640
 Alpha virt. eigenvalues --    7.13281   7.20118   7.60740   7.87773  16.64856
 Alpha virt. eigenvalues --   16.91250  17.97363  18.66387  19.16686
          Condensed to atoms (all electrons):
              1          2          3          4          5          6
     1  N    7.552455  -0.001172  -0.018439   0.007001  -0.050959  -0.007305
     2  H   -0.001172   0.538916  -0.072258   0.012214   0.017164  -0.000169
     3  C   -0.018439  -0.072258   6.430300   0.204055   0.009726   0.049310
     4  H    0.007001   0.012214   0.204055   0.211380   0.029138  -0.002956
     5  C   -0.050959   0.017164   0.009726   0.029138   6.490448   0.196624
     6  H   -0.007305  -0.000169   0.049310  -0.002956   0.196624   0.220339
     7  H    0.007389   0.005566  -0.026800  -0.003268  -0.014959  -0.003438
     8  C    0.222876  -0.067917  -0.299087  -0.021520  -0.206727  -0.024301
     9  N   -0.248793   0.460096   0.248394  -0.003371  -0.157507  -0.000231
              7          8          9
     1  N    0.007389   0.222876  -0.248793
     2  H    0.005566  -0.067917   0.460096
     3  C   -0.026800  -0.299087   0.248394
     4  H   -0.003268  -0.021520  -0.003371
     5  C   -0.014959  -0.206727  -0.157507
     6  H   -0.003438  -0.024301  -0.000231
     7  H    0.207282   0.192868   0.021122
     8  C    0.192868   6.328971   0.472982
     9  N    0.021122   0.472982   6.169220
 Mulliken atomic charges:
              1
     1  N   -0.463052
     2  H    0.107561
     3  C   -0.525200
     4  H    0.567328
     5  C   -0.312947
     6  H    0.572128
     7  H    0.614239
     8  C   -0.598146
     9  N    0.038089
 Sum of Mulliken charges=   0.00000
 Atomic charges with hydrogens summed into heavy atoms:
              1
     1  N   -0.463052
     2  H    0.000000
     3  C    0.042128
     4  H    0.000000
     5  C    0.259181
     6  H    0.000000
     7  H    0.000000
     8  C    0.016093
     9  N    0.145649
 Sum of Mulliken charges=   0.00000
 Electronic spatial extent (au):  <R**2>=   280.6118
 Charge=     0.0000 electrons
 Dipole moment (field-independent basis, Debye):
    X=     1.0743    Y=     3.6352    Z=     0.0000  Tot=     3.7906
 Quadrupole moment (field-independent basis, Debye-Ang):
   XX=   -26.7494   YY=   -25.9871   ZZ=   -32.3262
   XY=    -3.5392   XZ=     0.0000   YZ=     0.0000
 Traceless Quadrupole moment (field-independent basis, Debye-Ang):
   XX=     1.6048   YY=     2.3672   ZZ=    -3.9720
   XY=    -3.5392   XZ=     0.0000   YZ=     0.0000
 Octapole moment (field-independent basis, Debye-Ang**2):
  XXX=    -0.1105  YYY=    15.9796  ZZZ=     0.0000  XYY=     5.9092
  XXY=     7.1503  XXZ=     0.0000  XZZ=    -1.3708  YZZ=     1.4335
  YYZ=     0.0000  XYZ=     0.0000
 Hexadecapole moment (field-independent basis, Debye-Ang**3):
 XXXX=  -155.9456 YYYY=  -137.8078 ZZZZ=   -36.4107 XXXY=    -3.5062
 XXXZ=     0.0000 YYYX=    -9.8906 YYYZ=     0.0000 ZZZX=     0.0000
 ZZZY=     0.0000 XXYY=   -57.4858 XXZZ=   -40.2072 YYZZ=   -36.9244
 XXYZ=     0.0000 YYXZ=     0.0000 ZZXY=     0.5971
 N-N= 1.652924335092D+02 E-N=-8.562710895419D+02  KE= 2.248007491340D+02
 Symmetry A'   KE= 2.170632773634D+02
 Symmetry A"   KE= 7.737471770623D+00
 1\1\GINC-P1291\FOpt\RHF\Aug-CC-pVTZ\C3H4N2\RDJ3\13-Jul-2005\0\\#HF/AUG
 -CC-PVTZ OPT FREQ\\1himidaz 1H-Imidazole casno=288324 method=1 basis=1
 8\\0,1\N,-0.7402083255,-0.9618414376,0.\H,-0.0136545232,2.0813414543,0
 .\C,1.1076803079,0.2865953073,0.\H,2.1006753977,0.6750433672,0.\C,0.63
 02876371,-0.9735308672,0.\H,1.1830590068,-1.8868938614,0.\H,-2.0744639
 364,0.65658755,0.\C,-1.0735090455,0.2803427821,0.\N,-0.000130152,1.092
 3383172,0.\\Version=AM64L-G03RevC.02\State=1-A'\HF=-224.9001216\RMSD=4
 .831e-09\RMSF=1.240e-04\Dipole=0.4225016,1.4302499,0.\PG=CS [SG(C3H4N2
 )]\\@


 ASKING FOR EFFICIENCY AND ADAPTABILITY IN THE SAME PROGRAM IS LIKE
 ASKING FOR A BEAUTIFUL AND MODEST WIFE ...
 WE'LL PROBABLY HAVE TO SETTLE FOR ONE OR THE OTHER.

             -- THE PSYCHOLOGY OF COMPUTER PROGRAMMING
                GERALD M. WEINBERG
 Job cpu time:  0 days  2 hours 16 minutes 25.7 seconds.
 File lengths (MBytes):  RWF=     77 Int=      0 D2E=      0 Chk=     12 Scr=      1
 Normal termination of Gaussian 03 at Wed Jul 13 20:37:08 2005.
 Link1:  Proceeding to internal job step number  2.
 ------------------------------------------------------------------
 #N Geom=AllCheck Guess=Read SCRF=Check GenChk RHF/Aug-CC-pVTZ Freq
 ------------------------------------------------------------------
 1/10=4,29=7,30=1,38=1,40=1,46=1/1,3;
 2/40=1/2;
 3/5=16,6=1,7=10,11=1,16=1,25=1,30=1,70=2,71=2/1,2,3;
 4/5=1,7=1/1;
 5/5=2,38=6/2;
 8/6=4,10=90,11=11/1;
 10/13=10/2;
 11/6=2,8=1,9=11,15=111,16=1/1,2,10;
 10/6=1/2;
 6/7=2,8=2,9=2,10=2,18=1,28=1/1;
 7/8=1,10=1,25=1/1,2,3,16;
 1/10=4,30=1,46=1/3;
 99//99;
 ----------------------------------------------------
 1himidaz 1H-Imidazole casno=288324 method=1 basis=18
 ----------------------------------------------------
 Redundant internal coordinates taken from checkpoint file:
 /scratch/Gau-16933.chk
 Charge =  0 Multiplicity = 1
 N,0,-0.7402083255,-0.9618414376,0.
 H,0,-0.0136545232,2.0813414543,0.
 C,0,1.1076803079,0.2865953073,0.
 H,0,2.1006753977,0.6750433672,0.
 C,0,0.6302876371,-0.9735308672,0.
 H,0,1.1830590068,-1.8868938614,0.
 H,0,-2.0744639364,0.65658755,0.
 C,0,-1.0735090455,0.2803427821,0.
 N,0,-0.000130152,1.0923383172,0.
 Recover connectivity data from disk.

 GradGradGradGradGradGradGradGradGradGradGradGradGradGradGradGradGradGrad
 Berny optimization.
 Initialization pass.
                           ----------------------------
                           !    Initial Parameters    !
                           ! (Angstroms and Degrees)  !
 --------------------------                            --------------------------
 ! Name  Definition              Value          Derivative Info.                !
 --------------------------------------------------------------------------------
 ! R1    R(1,5)                  1.3705         calculate D2E/DX2 analytically  !
 ! R2    R(1,8)                  1.2861         calculate D2E/DX2 analytically  !
 ! R3    R(2,9)                  0.9891         calculate D2E/DX2 analytically  !
 ! R4    R(3,4)                  1.0663         calculate D2E/DX2 analytically  !
 ! R5    R(3,5)                  1.3475         calculate D2E/DX2 analytically  !
 ! R6    R(3,9)                  1.3698         calculate D2E/DX2 analytically  !
 ! R7    R(5,6)                  1.0676         calculate D2E/DX2 analytically  !
 ! R8    R(7,8)                  1.0693         calculate D2E/DX2 analytically  !
 ! R9    R(8,9)                  1.3459         calculate D2E/DX2 analytically  !
 ! A1    A(5,1,8)              105.5084         calculate D2E/DX2 analytically  !
 ! A2    A(4,3,5)              132.1138         calculate D2E/DX2 analytically  !
 ! A3    A(4,3,9)              122.6057         calculate D2E/DX2 analytically  !
 ! A4    A(5,3,9)              105.2805         calculate D2E/DX2 analytically  !
 ! A5    A(1,5,3)              110.2603         calculate D2E/DX2 analytically  !
 ! A6    A(1,5,6)              121.6712         calculate D2E/DX2 analytically  !
 ! A7    A(3,5,6)              128.0685         calculate D2E/DX2 analytically  !
 ! A8    A(1,8,7)              125.6203         calculate D2E/DX2 analytically  !
 ! A9    A(1,8,9)              112.0872         calculate D2E/DX2 analytically  !
 ! A10   A(7,8,9)              122.2925         calculate D2E/DX2 analytically  !
 ! A11   A(2,9,3)              126.813          calculate D2E/DX2 analytically  !
 ! A12   A(2,9,8)              126.3235         calculate D2E/DX2 analytically  !
 ! A13   A(3,9,8)              106.8635         calculate D2E/DX2 analytically  !
 ! D1    D(8,1,5,3)              0.0            calculate D2E/DX2 analytically  !
 ! D2    D(8,1,5,6)            180.0            calculate D2E/DX2 analytically  !
 ! D3    D(5,1,8,7)            180.0            calculate D2E/DX2 analytically  !
 ! D4    D(5,1,8,9)              0.0            calculate D2E/DX2 analytically  !
 ! D5    D(4,3,5,1)            180.0            calculate D2E/DX2 analytically  !
 ! D6    D(4,3,5,6)              0.0            calculate D2E/DX2 analytically  !
 ! D7    D(9,3,5,1)              0.0            calculate D2E/DX2 analytically  !
 ! D8    D(9,3,5,6)            180.0            calculate D2E/DX2 analytically  !
 ! D9    D(4,3,9,2)              0.0            calculate D2E/DX2 analytically  !
 ! D10   D(4,3,9,8)            180.0            calculate D2E/DX2 analytically  !
 ! D11   D(5,3,9,2)            180.0            calculate D2E/DX2 analytically  !
 ! D12   D(5,3,9,8)              0.0            calculate D2E/DX2 analytically  !
 ! D13   D(1,8,9,2)            180.0            calculate D2E/DX2 analytically  !
 ! D14   D(1,8,9,3)              0.0            calculate D2E/DX2 analytically  !
 ! D15   D(7,8,9,2)              0.0            calculate D2E/DX2 analytically  !
 ! D16   D(7,8,9,3)            180.0            calculate D2E/DX2 analytically  !
 --------------------------------------------------------------------------------
 Trust Radius=3.00D-01 FncErr=1.00D-07 GrdErr=1.00D-07
 Number of steps in this run=   2 maximum allowed number of steps=   2.
 GradGradGradGradGradGradGradGradGradGradGradGradGradGradGradGradGradGrad

                          Input orientation:                          
 ---------------------------------------------------------------------
 Center     Atomic     Atomic              Coordinates (Angstroms)
 Number     Number      Type              X           Y           Z
 ---------------------------------------------------------------------
    1          7             0       -0.740208   -0.961841    0.000000
    2          1             0       -0.013655    2.081341    0.000000
    3          6             0        1.107680    0.286595    0.000000
    4          1             0        2.100675    0.675043    0.000000
    5          6             0        0.630288   -0.973531    0.000000
    6          1             0        1.183059   -1.886894    0.000000
    7          1             0       -2.074464    0.656588    0.000000
    8          6             0       -1.073509    0.280343    0.000000
    9          7             0       -0.000130    1.092338    0.000000
 ---------------------------------------------------------------------
                    Distance matrix (angstroms):
                    1          2          3          4          5
     1  N    0.000000
     2  H    3.128713   0.000000
     3  C    2.230087   2.116248   0.000000
     4  H    3.278721   2.539304   1.066270   0.000000
     5  C    1.370546   3.122004   1.347524   2.209035   0.000000
     6  H    2.134169   4.144758   2.174796   2.721313   1.067609
     7  H    2.097511   2.505366   3.203582   4.175180   3.158000
     8  C    1.286122   2.089710   2.181198   3.198630   2.115448
     9  N    2.183431   0.989096   1.369842   2.141849   2.159917
                    6          7          8          9
     6  H    0.000000
     7  H    4.132887   0.000000
     8  C    3.128740   1.069332   0.000000
     9  N    3.205583   2.119608   1.345912   0.000000
 Stoichiometry    C3H4N2
 Framework group  CS[SG(C3H4N2)]
 Deg. of freedom    15
 Full point group                 CS      NOp   2
 Largest Abelian subgroup         CS      NOp   2
 Largest concise Abelian subgroup C1      NOp   1
                         Standard orientation:                         
 ---------------------------------------------------------------------
 Center     Atomic     Atomic              Coordinates (Angstroms)
 Number     Number      Type              X           Y           Z
 ---------------------------------------------------------------------
    1          7             0       -0.740323   -0.961753    0.000000
    2          1             0       -0.013407    2.081343    0.000000
    3          6             0        1.107714    0.286463    0.000000
    4          1             0        2.100756    0.674793    0.000000
    5          6             0        0.630172   -0.973606    0.000000
    6          1             0        1.182834   -1.887035    0.000000
    7          1             0       -2.074386    0.656835    0.000000
    8          6             0       -1.073476    0.280471    0.000000
    9          7             0        0.000000    1.092338    0.000000
 ---------------------------------------------------------------------
 Rotational constants (GHZ):      9.9406163      9.6990415      4.9091716
 Standard basis: Aug-CC-pVTZ (5D, 7F)
 There are   214 symmetry adapted basis functions of A'  symmetry.
 There are   108 symmetry adapted basis functions of A"  symmetry.
 Integral buffers will be    131072 words long.
 Raffenetti 1 integral format.
 Two-electron integral symmetry is turned on.
   322 basis functions,   473 primitive gaussians,   375 cartesian basis functions
    18 alpha electrons       18 beta electrons
       nuclear repulsion energy       165.2924335092 Hartrees.
 NAtoms=    9 NActive=    9 NUniq=    9 SFac= 1.00D+00 NAtFMM=   60 Big=F
 One-electron integrals computed using PRISM.
 NBasis=   322 RedAO= T  NBF=   214   108
 NBsUse=   322 1.00D-06 NBFU=   214   108
 Initial guess read from the checkpoint file:
 /scratch/Gau-16933.chk
 Initial guess orbital symmetries:
       Occupied  (A') (A') (A') (A') (A') (A') (A') (A') (A') (A')
                 (A') (A') (A") (A') (A') (A') (A") (A")
       Virtual   (A') (A') (A') (A') (A") (A') (A') (A") (A') (A')
                 (A") (A') (A') (A') (A') (A") (A") (A') (A') (A")
                 (A') (A") (A') (A') (A') (A") (A') (A') (A') (A')
                 (A') (A') (A") (A') (A") (A") (A') (A') (A') (A")
                 (A') (A") (A') (A') (A') (A") (A') (A') (A") (A')
                 (A') (A") (A') (A') (A') (A") (A") (A') (A') (A')
                 (A') (A') (A") (A') (A') (A") (A') (A') (A") (A')
                 (A") (A') (A") (A') (A') (A") (A') (A') (A') (A')
                 (A') (A") (A') (A") (A") (A') (A") (A') (A') (A")
                 (A') (A') (A') (A') (A") (A') (A") (A") (A') (A")
                 (A') (A') (A') (A") (A') (A') (A') (A") (A") (A')
                 (A') (A") (A') (A') (A') (A") (A") (A') (A') (A')
                 (A") (A') (A") (A') (A") (A') (A") (A') (A') (A")
                 (A') (A') (A") (A') (A") (A') (A') (A") (A') (A')
                 (A") (A") (A') (A') (A") (A') (A') (A') (A') (A")
                 (A") (A') (A') (A") (A') (A') (A") (A') (A') (A")
                 (A') (A") (A') (A") (A') (A") (A') (A') (A') (A')
                 (A") (A") (A') (A') (A") (A') (A') (A") (A') (A')
                 (A") (A') (A') (A') (A') (A") (A') (A') (A") (A')
                 (A") (A") (A') (A') (A') (A") (A') (A') (A") (A")
                 (A') (A") (A") (A') (A") (A') (A") (A') (A') (A")
                 (A') (A") (A') (A') (A") (A") (A') (A') (A') (A')
                 (A') (A") (A') (A") (A') (A") (A') (A') (A') (A')
                 (A") (A") (A') (A') (A") (A') (A") (A') (A") (A')
                 (A') (A") (A') (A') (A") (A') (A') (A') (A") (A')
                 (A") (A") (A') (A") (A') (A") (A') (A') (A') (A')
                 (A") (A') (A') (A') (A") (A") (A') (A') (A") (A")
                 (A') (A") (A') (A') (A") (A') (A") (A") (A') (A")
                 (A') (A") (A') (A') (A') (A") (A') (A') (A') (A')
                 (A') (A') (A') (A') (A') (A') (A') (A') (A') (A')
                 (A') (A') (A') (A')
 Requested convergence on RMS density matrix=1.00D-08 within 128 cycles.
 Requested convergence on MAX density matrix=1.00D-06.
 Requested convergence on             energy=1.00D-06.
 No special actions if energy rises.
 SCF Done:  E(RHF) =  -224.900121626     A.U. after    1 cycles
             Convg  =    0.8998D-09             -V/T =  2.0004
             S**2   =   0.0000
 Range of M.O.s used for correlation:     1   322
 NBasis=   322 NAE=    18 NBE=    18 NFC=     0 NFV=     0
 NROrb=    322 NOA=    18 NOB=    18 NVA=   304 NVB=   304

 **** Warning!!: The largest alpha MO coefficient is  0.10181433D+03

          Differentiating once with respect to electric field.
                with respect to dipole field.
          Electric field/nuclear overlap derivatives assumed to be zero.
 Integrals replicated using symmetry in FoFDir.
 MinBra= 0 MaxBra= 3 Meth= 1.
 IRaf=       0 NMat=   3 IRICut=       1 DoRegI=T DoRafI=F ISym2E= 2 JSym2E=2.
          There are   3 degrees of freedom in the 1st order CPHF.
     3 vectors were produced by pass  0.
 AX will form   3 AO Fock derivatives at one time.
     3 vectors were produced by pass  1.
     3 vectors were produced by pass  2.
     3 vectors were produced by pass  3.
     3 vectors were produced by pass  4.
     3 vectors were produced by pass  5.
     3 vectors were produced by pass  6.
     3 vectors were produced by pass  7.
     3 vectors were produced by pass  8.
     3 vectors were produced by pass  9.
     2 vectors were produced by pass 10.
     1 vectors were produced by pass 11.
 Inv2:  IOpt= 1 Iter= 1 AM= 5.64D-16 Conv= 1.00D-12.
 Inverted reduced A of dimension   33 with in-core refinement.
 End of Minotr Frequency-dependent properties file   721 does not exist.
 Symmetrizing basis deriv contribution to polar:
 IMax=3 JMax=2 DiffMx= 0.00D+00
 G2DrvN: will do   10 centers at a time, making    1 passes doing MaxLOS=3.
 FoFDir/FoFCou used for L=0 through L=3.
 DoAtom=TTTTTTTTT
          Differentiating once with respect to electric field.
                with respect to dipole field.
          Differentiating once with respect to nuclear coordinates.
 Integrals replicated using symmetry in FoFDir.
 MinBra= 0 MaxBra= 3 Meth= 1.
 IRaf=       0 NMat=  30 IRICut=      30 DoRegI=T DoRafI=T ISym2E= 2 JSym2E=2.
          There are  30 degrees of freedom in the 1st order CPHF.
    27 vectors were produced by pass  0.
 AX will form  27 AO Fock derivatives at one time.
    27 vectors were produced by pass  1.
    27 vectors were produced by pass  2.
    27 vectors were produced by pass  3.
    27 vectors were produced by pass  4.
    27 vectors were produced by pass  5.
    27 vectors were produced by pass  6.
    15 vectors were produced by pass  7.
     3 vectors were produced by pass  8.
 Inv2:  IOpt= 1 Iter= 1 AM= 1.79D-15 Conv= 1.00D-12.
 Inverted reduced A of dimension  207 with in-core refinement.
 Isotropic polarizability for W=    0.000000       45.72 Bohr**3.
 End of Minotr Frequency-dependent properties file   721 does not exist.

 **********************************************************************

            Population analysis using the SCF density.

 **********************************************************************

 Orbital symmetries:
       Occupied  (A') (A') (A') (A') (A') (A') (A') (A') (A') (A')
                 (A') (A') (A") (A') (A') (A') (A") (A")
       Virtual   (A') (A') (A') (A') (A") (A') (A') (A") (A') (A')
                 (A") (A') (A') (A') (A') (A") (A") (A') (A') (A")
                 (A') (A") (A') (A') (A') (A") (A') (A') (A') (A')
                 (A') (A') (A") (A') (A") (A") (A') (A') (A') (A")
                 (A') (A") (A') (A') (A') (A") (A') (A') (A") (A')
                 (A') (A") (A') (A') (A') (A") (A") (A') (A') (A')
                 (A') (A') (A") (A') (A') (A") (A') (A') (A") (A')
                 (A") (A') (A") (A') (A') (A") (A') (A') (A') (A')
                 (A') (A") (A') (A") (A") (A') (A") (A') (A') (A")
                 (A') (A') (A') (A') (A") (A') (A") (A") (A') (A")
                 (A') (A') (A') (A") (A') (A') (A') (A") (A") (A')
                 (A') (A") (A') (A') (A') (A") (A") (A') (A') (A')
                 (A") (A') (A") (A') (A") (A') (A") (A') (A') (A")
                 (A') (A') (A") (A') (A") (A') (A') (A") (A') (A')
                 (A") (A") (A') (A') (A") (A') (A') (A') (A') (A")
                 (A") (A') (A') (A") (A') (A') (A") (A') (A') (A")
                 (A') (A") (A') (A") (A') (A") (A') (A') (A') (A')
                 (A") (A") (A') (A') (A") (A') (A') (A") (A') (A')
                 (A") (A') (A') (A') (A') (A") (A') (A') (A") (A')
                 (A") (A") (A') (A') (A') (A") (A') (A') (A") (A")
                 (A') (A") (A") (A') (A") (A') (A") (A') (A') (A")
                 (A') (A") (A') (A') (A") (A") (A') (A') (A') (A')
                 (A') (A") (A') (A") (A') (A") (A') (A') (A') (A')
                 (A") (A") (A') (A') (A") (A') (A") (A') (A") (A')
                 (A') (A") (A') (A') (A") (A') (A') (A') (A") (A')
                 (A") (A") (A') (A") (A') (A") (A') (A') (A') (A')
                 (A") (A') (A') (A') (A") (A") (A') (A') (A") (A")
                 (A') (A") (A') (A') (A") (A') (A") (A") (A') (A")
                 (A') (A") (A') (A') (A') (A") (A') (A') (A') (A')
                 (A') (A') (A') (A') (A') (A') (A') (A') (A') (A')
                 (A') (A') (A') (A')
 The electronic state is 1-A'.
 Alpha  occ. eigenvalues --  -15.61810 -15.53900 -11.28958 -11.25608 -11.23738
 Alpha  occ. eigenvalues --   -1.35447  -1.17405  -1.01621  -0.83328  -0.80523
 Alpha  occ. eigenvalues --   -0.76645  -0.61514  -0.60691  -0.60519  -0.57452
 Alpha  occ. eigenvalues --   -0.43604  -0.40287  -0.32688
 Alpha virt. eigenvalues --    0.02120   0.03453   0.04140   0.05239   0.07161
 Alpha virt. eigenvalues --    0.08504   0.10420   0.10558   0.10909   0.11173
 Alpha virt. eigenvalues --    0.11734   0.12677   0.13067   0.14103   0.15485
 Alpha virt. eigenvalues --    0.16107   0.18093   0.18847   0.19354   0.20040
 Alpha virt. eigenvalues --    0.20557   0.22524   0.22849   0.24820   0.25682
 Alpha virt. eigenvalues --    0.27301   0.27734   0.29527   0.31063   0.31851
 Alpha virt. eigenvalues --    0.32188   0.32403   0.33318   0.33916   0.34344
[...]
 Frc consts  --     7.4415                 7.6713                 9.7422
 IR Inten    --     3.2399                 1.9387                92.8980
 Raman Activ --    66.4142                93.4710                82.1231
 Depolar (P) --     0.5326                 0.1507                 0.2189
 Depolar (U) --     0.6950                 0.2619                 0.3592
 Atom AN      X      Y      Z        X      Y      Z        X      Y      Z
   1   7     0.00   0.00   0.00     0.00   0.00   0.00     0.00   0.00   0.00
   2   1    -0.01   0.00   0.00    -0.01  -0.01   0.00    -0.01   1.00   0.00
   3   6    -0.03  -0.01   0.00    -0.08  -0.03   0.00     0.00   0.00   0.00
   4   1     0.40   0.15   0.00     0.84   0.33   0.00     0.01   0.00   0.00
   5   6     0.04  -0.07   0.00    -0.02   0.04   0.00     0.00   0.00   0.00
   6   1    -0.46   0.76   0.00     0.21  -0.37   0.00     0.00   0.00   0.00
   7   1     0.13  -0.05   0.00    -0.05   0.02   0.00    -0.01   0.00   0.00
   8   6    -0.01   0.01   0.00     0.01   0.00   0.00     0.00   0.00   0.00
   9   7     0.00   0.00   0.00     0.00   0.00   0.00     0.00  -0.08   0.00

 -------------------
 - Thermochemistry -
 -------------------
 Temperature   298.150 Kelvin.  Pressure   1.00000 Atm.
 Atom  1 has atomic number  7 and mass  14.00307
 Atom  2 has atomic number  1 and mass   1.00783
 Atom  3 has atomic number  6 and mass  12.00000
 Atom  4 has atomic number  1 and mass   1.00783
 Atom  5 has atomic number  6 and mass  12.00000
 Atom  6 has atomic number  1 and mass   1.00783
 Atom  7 has atomic number  1 and mass   1.00783
 Atom  8 has atomic number  6 and mass  12.00000
 Atom  9 has atomic number  7 and mass  14.00307
 Molecular mass:    68.03745 amu.
 Principal axes and moments of inertia in atomic units:
                           1         2         3
     EIGENVALUES --   181.55225 186.07418 367.62643
           X            0.50806   0.86132   0.00000
           Y            0.86132  -0.50806   0.00000
           Z            0.00000   0.00000   1.00000
 This molecule is an asymmetric top.
 Rotational symmetry number  1.
 Rotational temperatures (Kelvin)      0.47707     0.46548     0.23560
 Rotational constants (GHZ):           9.94062     9.69904     4.90917
 Zero-point vibrational energy     200543.2 (Joules/Mol)
                                   47.93097 (Kcal/Mol)
 Warning -- explicit consideration of   1 degrees of freedom as
           vibrations may cause significant error
 Vibrational temperatures:    796.19   993.58  1050.01  1213.76  1410.65
          (Kelvin)           1411.79  1456.46  1465.24  1645.08  1688.93
                             1750.40  1789.38  2018.26  2130.82  2254.01
                             2363.59  2473.71  4881.57  4890.39  4932.83
                             5622.90
 
 Zero-point correction=                           0.076383 (Hartree/Particle)
 Thermal correction to Energy=                    0.079927
 Thermal correction to Enthalpy=                  0.080871
 Thermal correction to Gibbs Free Energy=         0.050222
 Sum of electronic and zero-point Energies=           -224.823739
 Sum of electronic and thermal Energies=              -224.820195
 Sum of electronic and thermal Enthalpies=            -224.819251
 Sum of electronic and thermal Free Energies=         -224.849899
 
                     E (Thermal)             CV                S
                      KCal/Mol        Cal/Mol-Kelvin    Cal/Mol-Kelvin
 Total                   50.155             11.978             64.505
 Electronic               0.000              0.000              0.000
 Translational            0.889              2.981             38.570
 Rotational               0.889              2.981             24.033
 Vibrational             48.377              6.016              1.902
 Vibration  1             0.909              1.132              0.537
                       Q            Log10(Q)             Ln(Q)
 Total Bot       0.793171D-23        -23.100633        -53.191174
 Total V=0       0.107888D+13         12.032975         27.706949
 Vib (Bot)       0.901355D-35        -35.045104        -80.694334
 Vib (Bot)  1    0.282671D+00         -0.548719         -1.263473
 Vib (V=0)       0.122604D+01          0.088504          0.203788
 Vib (V=0)  1    0.107437D+01          0.031154          0.071736
 Electronic      0.100000D+01          0.000000          0.000000
 Translational   0.220586D+08          7.343577         16.909211
 Rotational      0.398927D+05          4.600894         10.593949
 ***** Axes restored to original set *****
 -------------------------------------------------------------------
 Center     Atomic                   Forces (Hartrees/Bohr)
 Number     Number              X              Y              Z
 -------------------------------------------------------------------
    1          7          -0.000200422   -0.000219325    0.000000000
    2          1           0.000019688    0.000019134    0.000000000
    3          6          -0.000222376    0.000108065    0.000000000
    4          1           0.000003924    0.000018970    0.000000000
    5          6          -0.000100923    0.000147040    0.000000000
    6          1          -0.000049776   -0.000007325    0.000000000
    7          1           0.000020498   -0.000016345    0.000000000
    8          6           0.000348419   -0.000218096    0.000000000
    9          7           0.000180969    0.000167883    0.000000000
 -------------------------------------------------------------------
 Cartesian Forces:  Max     0.000348419 RMS     0.000124045

 GradGradGradGradGradGradGradGradGradGradGradGradGradGradGradGradGradGrad
 Berny optimization.
 Internal  Forces:  Max     0.000272279 RMS     0.000095932
 Search for a local minimum.
 Step number   1 out of a maximum of   2
 All quantities printed in internal units (Hartrees-Bohrs-Radians)
 Second derivative matrix not updated -- analytic derivatives used.
     Eigenvalues ---    0.00569   0.01498   0.02700   0.03360   0.06867
     Eigenvalues ---    0.07157   0.11311   0.12113   0.12539   0.13716
     Eigenvalues ---    0.25902   0.27294   0.39072   0.40457   0.40849
     Eigenvalues ---    0.41112   0.46578   0.49053   0.54267   0.54794
     Eigenvalues ---    0.680651000.000001000.000001000.000001000.00000
     Eigenvalues --- 1000.000001000.000001000.000001000.000001000.00000
     Eigenvalues --- 1000.000001000.000001000.000001000.000001000.00000
     Eigenvalues --- 1000.000001000.000001000.00000
 Angle between quadratic step and forces=  18.49 degrees.
 Linear search not attempted -- first point.
 Iteration  1 RMS(Cart)=  0.00024334 RMS(Int)=  0.00000004
 Iteration  2 RMS(Cart)=  0.00000004 RMS(Int)=  0.00000001
 Variable       Old X    -DE/DX   Delta X   Delta X   Delta X     New X
                                 (Linear)    (Quad)   (Total)
    R1        2.58996  -0.00008   0.00000   0.00001   0.00001   2.58997
    R2        2.43042  -0.00005   0.00000  -0.00010  -0.00010   2.43032
    R3        1.86912   0.00002   0.00000   0.00001   0.00001   1.86913
    R4        2.01496   0.00001   0.00000   0.00003   0.00003   2.01499
    R5        2.54645   0.00008   0.00000   0.00004   0.00004   2.54649
    R6        2.58863  -0.00027   0.00000  -0.00041  -0.00042   2.58821
    R7        2.01749  -0.00002   0.00000  -0.00003  -0.00003   2.01746
    R8        2.02074  -0.00002   0.00000  -0.00002  -0.00002   2.02072
    R9        2.54341   0.00008   0.00000   0.00015   0.00015   2.54355
    A1        1.84147  -0.00027   0.00000  -0.00066  -0.00066   1.84081
    A2        2.30582   0.00000   0.00000  -0.00013  -0.00013   2.30569
    A3        2.13987  -0.00004   0.00000  -0.00002  -0.00002   2.13985
    A4        1.83749   0.00004   0.00000   0.00015   0.00015   1.83764
    A5        1.92440   0.00013   0.00000   0.00028   0.00028   1.92468
    A6        2.12356  -0.00011   0.00000  -0.00039  -0.00039   2.12318
    A7        2.23522  -0.00002   0.00000   0.00011   0.00011   2.23533
    A8        2.19249  -0.00014   0.00000  -0.00034  -0.00034   2.19215
    A9        1.95629   0.00026   0.00000   0.00068   0.00068   1.95697
   A10        2.13441  -0.00012   0.00000  -0.00034  -0.00034   2.13407
   A11        2.21330   0.00006   0.00000   0.00021   0.00021   2.21351
   A12        2.20476   0.00010   0.00000   0.00024   0.00024   2.20500
   A13        1.86512  -0.00016   0.00000  -0.00044  -0.00044   1.86468
    D1        0.00000   0.00000   0.00000   0.00000   0.00000   0.00000
    D2        3.14159   0.00000   0.00000   0.00000   0.00000   3.14159
    D3        3.14159   0.00000   0.00000   0.00000   0.00000   3.14159
    D4        0.00000   0.00000   0.00000   0.00000   0.00000   0.00000
    D5        3.14159   0.00000   0.00000   0.00000   0.00000   3.14159
    D6        0.00000   0.00000   0.00000   0.00000   0.00000   0.00000
    D7        0.00000   0.00000   0.00000   0.00000   0.00000   0.00000
    D8        3.14159   0.00000   0.00000   0.00000   0.00000   3.14159
    D9        0.00000   0.00000   0.00000   0.00000   0.00000   0.00000
   D10        3.14159   0.00000   0.00000   0.00000   0.00000   3.14159
   D11        3.14159   0.00000   0.00000   0.00000   0.00000   3.14159
   D12        0.00000   0.00000   0.00000   0.00000   0.00000   0.00000
   D13        3.14159   0.00000   0.00000   0.00000   0.00000   3.14159
   D14        0.00000   0.00000   0.00000   0.00000   0.00000   0.00000
   D15        0.00000   0.00000   0.00000   0.00000   0.00000   0.00000
   D16        3.14159   0.00000   0.00000   0.00000   0.00000   3.14159
         Item               Value     Threshold  Converged?
 Maximum Force            0.000272     0.000450     YES
 RMS     Force            0.000096     0.000300     YES
 Maximum Displacement     0.000631     0.001800     YES
 RMS     Displacement     0.000243     0.001200     YES
 Predicted change in Energy=-3.865258D-07
 Optimization completed.
    -- Stationary point found.
                           ----------------------------
                           !   Optimized Parameters   !
                           ! (Angstroms and Degrees)  !
 --------------------------                            --------------------------
 ! Name  Definition              Value          Derivative Info.                !
 --------------------------------------------------------------------------------
 ! R1    R(1,5)                  1.3705         -DE/DX =   -0.0001              !
 ! R2    R(1,8)                  1.2861         -DE/DX =   -0.0001              !
 ! R3    R(2,9)                  0.9891         -DE/DX =    0.0                 !
 ! R4    R(3,4)                  1.0663         -DE/DX =    0.0                 !
 ! R5    R(3,5)                  1.3475         -DE/DX =    0.0001              !
 ! R6    R(3,9)                  1.3698         -DE/DX =   -0.0003              !
 ! R7    R(5,6)                  1.0676         -DE/DX =    0.0                 !
 ! R8    R(7,8)                  1.0693         -DE/DX =    0.0                 !
 ! R9    R(8,9)                  1.3459         -DE/DX =    0.0001              !
 ! A1    A(5,1,8)              105.5084         -DE/DX =   -0.0003              !
 ! A2    A(4,3,5)              132.1138         -DE/DX =    0.0                 !
 ! A3    A(4,3,9)              122.6057         -DE/DX =    0.0                 !
 ! A4    A(5,3,9)              105.2805         -DE/DX =    0.0                 !
 ! A5    A(1,5,3)              110.2603         -DE/DX =    0.0001              !
 ! A6    A(1,5,6)              121.6712         -DE/DX =   -0.0001              !
 ! A7    A(3,5,6)              128.0685         -DE/DX =    0.0                 !
 ! A8    A(1,8,7)              125.6203         -DE/DX =   -0.0001              !
 ! A9    A(1,8,9)              112.0872         -DE/DX =    0.0003              !
 ! A10   A(7,8,9)              122.2925         -DE/DX =   -0.0001              !
 ! A11   A(2,9,3)              126.813          -DE/DX =    0.0001              !
 ! A12   A(2,9,8)              126.3235         -DE/DX =    0.0001              !
 ! A13   A(3,9,8)              106.8635         -DE/DX =   -0.0002              !
 ! D1    D(8,1,5,3)              0.0            -DE/DX =    0.0                 !
 ! D2    D(8,1,5,6)            180.0            -DE/DX =    0.0                 !
 ! D3    D(5,1,8,7)            180.0            -DE/DX =    0.0                 !
 ! D4    D(5,1,8,9)              0.0            -DE/DX =    0.0                 !
 ! D5    D(4,3,5,1)            180.0            -DE/DX =    0.0                 !
 ! D6    D(4,3,5,6)              0.0            -DE/DX =    0.0                 !
 ! D7    D(9,3,5,1)              0.0            -DE/DX =    0.0                 !
 ! D8    D(9,3,5,6)            180.0            -DE/DX =    0.0                 !
 ! D9    D(4,3,9,2)              0.0            -DE/DX =    0.0                 !
 ! D10   D(4,3,9,8)            180.0            -DE/DX =    0.0                 !
 ! D11   D(5,3,9,2)            180.0            -DE/DX =    0.0                 !
 ! D12   D(5,3,9,8)              0.0            -DE/DX =    0.0                 !
 ! D13   D(1,8,9,2)            180.0            -DE/DX =    0.0                 !
 ! D14   D(1,8,9,3)              0.0            -DE/DX =    0.0                 !
 ! D15   D(7,8,9,2)              0.0            -DE/DX =    0.0                 !
 ! D16   D(7,8,9,3)            180.0            -DE/DX =    0.0                 !
 --------------------------------------------------------------------------------
 GradGradGradGradGradGradGradGradGradGradGradGradGradGradGradGradGradGrad

 1\1\GINC-P1291\Freq\RHF\Aug-CC-pVTZ\C3H4N2\RDJ3\14-Jul-2005\0\\#N GEOM
 =ALLCHECK GUESS=READ SCRF=CHECK GENCHK RHF/AUG-CC-PVTZ FREQ\\1himidaz 
 1H-Imidazole casno=288324 method=1 basis=18\\0,1\N,-0.7402083255,-0.96
 18414376,0.\H,-0.0136545232,2.0813414543,0.\C,1.1076803079,0.286595307
 3,0.\H,2.1006753977,0.6750433672,0.\C,0.6302876371,-0.9735308672,0.\H,
 1.1830590068,-1.8868938614,0.\H,-2.0744639364,0.65658755,0.\C,-1.07350
 90455,0.2803427821,0.\N,-0.000130152,1.0923383172,0.\\Version=AM64L-G0
 3RevC.02\State=1-A'\HF=-224.9001216\RMSD=8.998e-10\RMSF=1.240e-04\Dipo
 le=0.4225017,1.4302498,0.\DipoleDeriv=-0.5032208,-0.0635809,0.,0.04381
 06,-0.6471434,0.,0.,0.,-0.3452586,0.1805728,0.0117875,0.,0.0058937,0.2
 606802,0.,0.,0.,0.3378985,-0.0721216,-0.256749,0.,-0.0136438,0.276134,
 0.,0.,0.,-0.1702352,-0.0046167,-0.0266602,0.,-0.0373458,0.0617551,0.,0
 .,0.,0.2123447,0.2512031,-0.0011798,0.,-0.0943234,0.1558179,0.,0.,0.,-
 0.1523786,0.0207049,0.0639659,0.,0.0762424,0.0030193,0.,0.,0.,0.177260
 2,-0.0029866,0.0522577,0.,0.044888,0.0487978,0.,0.,0.,0.1585373,0.2633
 738,0.1836211,0.,0.0831749,0.6407724,0.,0.,0.,0.0649238,-0.1329088,0.0
 365378,0.,-0.1086967,-0.7998332,0.,0.,0.,-0.2830921\Polar=52.8958539,-
 0.5301734,51.4913746,0.,0.,32.7666433\PolarDeriv=9.3877513,-2.2920591,
 -5.4295916,0.,0.,-0.270236,-11.0752521,-1.1051959,-4.4574246,0.,0.,-3.
 543584,0.,0.,0.,-0.9328718,-2.0172663,0.,0.1364633,1.1259674,-0.110785
 8,0.,0.,0.0699618,1.1654148,-0.0881853,9.2682109,0.,0.,0.8770311,0.,0.
 ,0.,0.0189499,0.5144958,0.,1.3976213,2.0228301,1.996293,0.,0.,2.971987
 8,10.5368754,-0.3593171,5.0267896,0.,0.,6.6558515,0.,0.,0.,5.1560683,3
 .0855703,0.,8.3992898,2.344865,1.6635521,0.,0.,0.6940209,2.0567497,1.8
 930854,1.716775,0.,0.,0.0416695,0.,0.,0.,-0.5698237,-0.3815523,0.,-11.
 9411278,0.0812791,1.9682854,0.,0.,-1.4017724,-9.7707258,-2.0831001,-4.
 9727216,0.,0.,-7.1206741,0.,0.,0.,0.6604711,-4.7796422,0.,2.4360397,-2
 .7689231,2.8837999,0.,0.,0.4420205,-2.2955714,2.8162355,-6.8400305,0.,
 0.,-0.5152978,0.,0.,0.,0.2330105,0.3093445,0.,-8.4283097,2.3066697,-1.
 5918611,0.,0.,-0.8798763,2.1809097,-2.0647674,1.533833,0.,0.,0.263555,
 0.,0.,0.,0.1435808,-0.049593,0.,-4.9329892,0.9469935,-3.1650864,0.,0.,
 -2.5275369,8.295766,0.406219,-0.7888549,0.,0.,2.3024953,0.,0.,0.,-4.70
 72859,1.7131995,0.,3.5452614,-3.7676226,1.7853943,0.,0.,0.9014306,-1.0
 941664,0.5850258,-0.4865769,0.,0.,1.0389535,0.,0.,0.,-0.0020992,1.6054
 438,0.\HyperPolar=-27.4118548,34.3702148,10.4402193,-29.0222948,0.,0.,
 0.,35.9399649,-13.0236637,0.\PG=CS [SG(C3H4N2)]\NImag=0\\0.52514422,-0
 .03138270,0.72415192,0.,0.,0.12357579,-0.00605682,-0.00933071,0.,0.069
 42979,-0.00344293,0.00079858,0.,-0.00607498,0.54226130,0.,0.,0.0076709
 2,0.,0.,0.01237714,-0.06134306,-0.00346803,0.,0.01655984,-0.00563513,0
 .,0.90691976,-0.09500149,0.00399691,0.,0.02739941,-0.00651735,0.,0.176
 17106,0.76713813,0.,0.,0.02054709,0.,0.,-0.00807833,0.,0.,0.14385594,0
 .00142713,-0.00103024,0.,-0.00001351,0.00021834,0.,-0.34655766,-0.1094
 8657,0.,0.36465649,-0.00630231,-0.00478792,0.,-0.00128556,0.00045902,0
 .,-0.11947062,-0.11988854,0.,0.11831930,0.10580256,0.,0.,0.00841768,0.
 ,0.,-0.00130504,0.,0.,-0.03157780,0.,0.,0.02445036,-0.28708379,-0.0123
 4093,0.,-0.00853070,0.00260260,0.,-0.15900556,-0.09433505,0.,0.0007405
 4,-0.02506117,0.,0.66783628,-0.01027374,-0.12560119,0.,0.00639737,0.00
 036210,0.,-0.11894501,-0.42556499,0.,0.00156317,0.00834598,0.,-0.11238
 325,0.98141844,0.,0.,-0.08508659,0.,0.,0.00220721,0.,0.,-0.08556558,0.
 ,0.,0.00174169,0.,0.,0.16970565,-0.01379195,0.03177260,0.,0.00115479,-
 0.00023306,0.,0.01407396,-0.01099552,0.,-0.00026339,0.00096049,0.,-0.1
 4659718,0.13403007,0.,0.15401038,-0.00106218,0.00899294,0.,0.00115981,
 -0.00002733,0.,0.01870262,-0.01088804,0.,-0.00066182,-0.00009903,0.,0.
 13790974,-0.31045489,0.,-0.15146105,0.31579484,0.,0.,-0.00370687,0.,0.
 ,0.00234326,0.,0.,0.00245879,0.,0.,-0.00343543,0.,0.,-0.03995280,0.,0.
 ,0.02926027,-0.00001840,0.00432565,0.,-0.00042708,-0.00034996,0.,-0.00
 028580,-0.00569916,0.,-0.00049089,0.00081900,0.,0.00272301,0.00150242,
 0.,-0.00001198,-0.00003177,0.,0.36355461,0.03542525,-0.00700461,0.,0.0
 0104499,0.00039232,0.,-0.00238789,-0.00542269,0.,-0.00080088,0.0011945
 8,0.,0.00137926,-0.00613510,0.,0.00171134,0.00037754,0.,-0.10974037,0.
 10838150,0.,0.,-0.00266373,0.,0.,-0.00186494,0.,0.,0.00325465,0.,0.,0.
 00189353,0.,0.,0.00891648,0.,0.,0.00090335,0.,0.,0.02931013,-0.1575738
 2,0.09002711,0.,0.01975644,0.00711031,0.,-0.11275380,0.02576661,0.,-0.
 00135944,0.00367751,0.,-0.05857528,0.03764395,0.,-0.00849187,-0.002027
 00,0.,-0.34516646,0.10080950,0.,0.95739987,0.09080003,-0.47513479,0.,-
 0.02629998,-0.00931460,0.,-0.03319695,-0.00942373,0.,0.00483879,-0.007
 89037,0.,0.11997230,-0.01972423,0.,-0.00101921,0.00155086,0.,0.0973109
 2,-0.10721772,0.,-0.16030621,0.82131715,0.,0.,-0.09662939,0.,0.,-0.008
 84354,0.,0.,0.01865824,0.,0.,0.00305449,0.,0.,0.01208703,0.,0.,0.00535
 850,0.,0.,-0.04147477,0.,0.,0.18529942,-0.00070352,-0.06857277,0.,-0.0
 9187275,0.00580480,0.,-0.25760769,0.08618071,0.,-0.01813927,0.02834336
 ,0.,-0.01150732,0.06046501,0.,-0.00008277,-0.00252834,0.,-0.01987703,-
 0.02744120,0.,-0.29323564,-0.09209970,0.,0.69302598,0.02124006,-0.1254
 1185,0.,0.00698965,-0.52841404,0.,0.08822994,-0.19342970,0.,-0.0129601
 0,0.01686371,0.,-0.01774349,-0.10264611,0.,-0.00476567,-0.00524688,0.,
 0.01186327,0.01543417,0.,-0.10270178,-0.19416257,0.,0.00984812,1.11701
 327,0.,0.,0.02787511,0.,0.,-0.00450666,0.,0.,-0.06355299,0.,0.,-0.0032
 3947,0.,0.,0.01594693,0.,0.,0.00677092,0.,0.,0.00172531,0.,0.,-0.07750
 998,0.,0.,0.09649083\\0.00020042,0.00021933,0.,-0.00001969,-0.00001913
 ,0.,0.00022238,-0.00010806,0.,-0.00000392,-0.00001897,0.,0.00010092,-0
 .00014704,0.,0.00004978,0.00000733,0.,-0.00002050,0.00001634,0.,-0.000
 34842,0.00021810,0.,-0.00018097,-0.00016788,0.\\\@


 ERWIN WITH HIS PSI CAN DO
 CALCULATIONS QUITE A FEW.
 BUT ONE THING HAS NOT BEEN SEEN
 JUST WHAT DOES PSI REALLY MEAN.
 -- WALTER HUCKEL, TRANS. BY FELIX BLOCH
 Job cpu time:  0 days  5 hours 53 minutes 53.0 seconds.
 File lengths (MBytes):  RWF=     93 Int=      0 D2E=      0 Chk=     12 Scr=      1
 Normal termination of Gaussian 03 at Thu Jul 14 02:31:05 2005.
