 Entering Gaussian System, Link 0=g98
 Initial command:
 /usr/local/apps/g98a6/g98/l1.exe /wrk/rdj3/Gau-12792.inp -scrdir=/wrk/rdj3/
 Entering Link 1 = /usr/local/apps/g98a6/g98/l1.exe PID=     15468.
  
 Copyright (c) 1988,1990,1992,1993,1995,1998 Gaussian, Inc.
                  All Rights Reserved.
  
 This is part of the Gaussian(R) 98 program.  It is based on
 the Gaussian 94(TM) system (copyright 1995 Gaussian, Inc.),
 the Gaussian 92(TM) system (copyright 1992 Gaussian, Inc.),
 the Gaussian 90(TM) system (copyright 1990 Gaussian, Inc.),
 the Gaussian 88(TM) system (copyright 1988 Gaussian, Inc.),
 the Gaussian 86(TM) system (copyright 1986 Carnegie Mellon
 University), and the Gaussian 82(TM) system (copyright 1983
 Carnegie Mellon University). Gaussian is a federally registered
 trademark of Gaussian, Inc.
  
 This software contains proprietary and confidential information,
 including trade secrets, belonging to Gaussian, Inc.
  
 This software is provided under written license and may be
 used, copied, transmitted, or stored only in accord with that
 written license.
  
 The following legend is applicable only to US Government
 contracts under DFARS:
  
                    RESTRICTED RIGHTS LEGEND
  
 Use, duplication or disclosure by the US Government is subject
 to restrictions as set forth in subparagraph (c)(1)(ii) of the
 Rights in Technical Data and Computer Software clause at DFARS
 252.227-7013.
  
 Gaussian, Inc.
 Carnegie Office Park, Building 6, Pittsburgh, PA 15106 USA
  
 The following legend is applicable only to US Government
 contracts under FAR:
  
                    RESTRICTED RIGHTS LEGEND
  
 Use, reproduction and disclosure by the US Government is subject
 to restrictions as set forth in subparagraph (c) of the
 Commercial Computer Software - Restricted Rights clause at FAR
 52.227-19.
  
 Gaussian, Inc.
 Carnegie Office Park, Building 6, Pittsburgh, PA 15106 USA
  
  
 ---------------------------------------------------------------
 Warning -- This program may not be used in any manner that
 competes with the business of Gaussian, Inc. or will provide
 assistance to any competitor of Gaussian, Inc.  The licensee
 of this program is prohibited from giving any competitor of
 Gaussian, Inc. access to this program.  By using this program,
 the user acknowledges that Gaussian, Inc. is engaged in the
 business of creating and licensing software in the field of
 computational chemistry and represents and warrants to the
 licensee that it is not a competitor of Gaussian, Inc. and that
 it will not use this program in any manner prohibited above.
 ---------------------------------------------------------------
  

 Cite this work as:
 Gaussian 98, Revision A.6,
 M. J. Frisch, G. W. Trucks, H. B. Schlegel, G. E. Scuseria, 
 M. A. Robb, J. R. Cheeseman, V. G. Zakrzewski, J. A. Montgomery, Jr., 
 R. E. Stratmann, J. C. Burant, S. Dapprich, J. M. Millam, 
 A. D. Daniels, K. N. Kudin, M. C. Strain, O. Farkas, J. Tomasi, 
 V. Barone, M. Cossi, R. Cammi, B. Mennucci, C. Pomelli, C. Adamo, 
 S. Clifford, J. Ochterski, G. A. Petersson, P. Y. Ayala, Q. Cui, 
 K. Morokuma, D. K. Malick, A. D. Rabuck, K. Raghavachari, 
 J. B. Foresman, J. Cioslowski, J. V. Ortiz, B. B. Stefanov, G. Liu, 
 A. Liashenko, P. Piskorz, I. Komaromi, R. Gomperts, R. L. Martin, 
 D. J. Fox, T. Keith, M. A. Al-Laham, C. Y. Peng, A. Nanayakkara, 
 C. Gonzalez, M. Challacombe, P. M. W. Gill, B. Johnson, W. Chen, 
 M. W. Wong, J. L. Andres, C. Gonzalez, M. Head-Gordon, 
 E. S. Replogle, and J. A. Pople, 
 Gaussian, Inc., Pittsburgh PA, 1998.

 **********************************************
 Gaussian 98:  IBM-RS6000-G98RevA.6 19-Oct-1998
                  27-Jul-2001 
 **********************************************
 %mem=24000000
 ------------------------
 #HF/aug-cc-pVDZ opt freq
 ------------------------
 1/18=20,38=1/1,3;
 2/9=110,17=6,18=5/2;
 3/5=16,7=10,11=9,25=1,30=1/1,2,3;
 4//1;
 5/5=2,38=4/2;
 6/7=2,8=2,9=2,10=2,28=1/1;
 7//1,2,3,16;
 1/18=20/3(1);
 99//99;
 2/9=110/2;
 3/5=16,7=10,11=9,25=1,30=1/1,2,3;
 4/5=5,16=2/1;
 5/5=2,38=4/2;
 7//1,2,3,16;
 1/18=20/3(-5);
 2/9=110/2;
 6/7=2,8=2,9=2,10=2,19=2,28=1/1;
 99/9=1/99;
 --------------------------------
 1H imidazole C3H4N2 casno=288324
 --------------------------------
 Symbolic Z-matrix:
 Charge =  0 Multiplicity = 1
 N                     0.30938   0.        1.30938 
 H                     0.3125    0.       -1.6875 
 C                    -1.06875   0.       -0.28438 
 H                    -1.91875   0.       -0.79063 
 C                    -0.93438   0.        1.02812 
 H                    -1.675     0.        1.6875 
 H                     1.91875   0.        0.09063 
 C                     0.93438   0.        0.19063 
 N                     0.09688   0.       -0.775 

 GradGradGradGradGradGradGradGradGradGradGradGradGradGradGradGradGradGrad
 Berny optimization.
 Initialization pass.
                         ----------------------------
                         !    Initial Parameters    !
                         ! (Angstroms and Degrees)  !
 ------------------------                            -------------------------
 ! Name  Definition              Value          Derivative Info.             !
 -----------------------------------------------------------------------------
 ! R1    R(1,5)                  1.2752         estimate D2E/DX2             !
 ! R2    R(1,8)                  1.2815         estimate D2E/DX2             !
 ! R3    R(2,9)                  0.9376         estimate D2E/DX2             !
 ! R4    R(3,4)                  0.9893         estimate D2E/DX2             !
 ! R5    R(3,5)                  1.3194         estimate D2E/DX2             !
 ! R6    R(3,9)                  1.2647         estimate D2E/DX2             !
 ! R7    R(5,6)                  0.9916         estimate D2E/DX2             !
 ! R8    R(7,8)                  0.9894         estimate D2E/DX2             !
 ! R9    R(8,9)                  1.2782         estimate D2E/DX2             !
 ! A1    A(5,1,8)              106.4483         estimate D2E/DX2             !
 ! A2    A(4,3,5)              126.6232         estimate D2E/DX2             !
 ! A3    A(4,3,9)              126.3957         estimate D2E/DX2             !
 ! A4    A(5,3,9)              106.9812         estimate D2E/DX2             !
 ! A5    A(1,5,3)              108.5877         estimate D2E/DX2             !
 ! A6    A(1,5,6)              125.5794         estimate D2E/DX2             !
 ! A7    A(3,5,6)              125.8329         estimate D2E/DX2             !
 ! A8    A(1,8,7)              124.9909         estimate D2E/DX2             !
 ! A9    A(1,8,9)              109.8741         estimate D2E/DX2             !
 ! A10   A(7,8,9)              125.1349         estimate D2E/DX2             !
 ! A11   A(2,9,3)              126.122          estimate D2E/DX2             !
 ! A12   A(2,9,8)              125.7693         estimate D2E/DX2             !
 ! A13   A(3,9,8)              108.1088         estimate D2E/DX2             !
 ! D1    D(8,1,5,3)              0.             estimate D2E/DX2             !
 ! D2    D(8,1,5,6)            180.             estimate D2E/DX2             !
 ! D3    D(5,1,8,7)            180.             estimate D2E/DX2             !
 ! D4    D(5,1,8,9)              0.             estimate D2E/DX2             !
 ! D5    D(4,3,5,1)            180.             estimate D2E/DX2             !
 ! D6    D(4,3,5,6)              0.             estimate D2E/DX2             !
 ! D7    D(9,3,5,1)              0.             estimate D2E/DX2             !
 ! D8    D(9,3,5,6)            180.             estimate D2E/DX2             !
 ! D9    D(4,3,9,2)              0.             estimate D2E/DX2             !
 ! D10   D(4,3,9,8)            180.             estimate D2E/DX2             !
 ! D11   D(5,3,9,2)            180.             estimate D2E/DX2             !
 ! D12   D(5,3,9,8)              0.             estimate D2E/DX2             !
 ! D13   D(1,8,9,2)            180.             estimate D2E/DX2             !
 ! D14   D(1,8,9,3)              0.             estimate D2E/DX2             !
 ! D15   D(7,8,9,2)              0.             estimate D2E/DX2             !
 ! D16   D(7,8,9,3)            180.             estimate D2E/DX2             !
 -----------------------------------------------------------------------------
 Trust Radius=3.00D-01 FncErr=1.00D-07 GrdErr=1.00D-07
 Number of steps in this run=  48 maximum allowed number of steps= 100.
 GradGradGradGradGradGradGradGradGradGradGradGradGradGradGradGradGradGrad

                          Input orientation:                          
 ---------------------------------------------------------------------
 Center     Atomic     Atomic              Coordinates (Angstroms)
 Number     Number      Type              X           Y           Z
 ---------------------------------------------------------------------
    1          7             0        0.309375    0.000000    1.309375
    2          1             0        0.312500    0.000000   -1.687500
    3          6             0       -1.068750    0.000000   -0.284375
    4          1             0       -1.918750    0.000000   -0.790625
    5          6             0       -0.934375    0.000000    1.028125
    6          1             0       -1.675000    0.000000    1.687500
    7          1             0        1.918750    0.000000    0.090625
    8          6             0        0.934375    0.000000    0.190625
    9          7             0        0.096875    0.000000   -0.775000
 ---------------------------------------------------------------------
                    Distance matrix (angstroms):
                    1          2          3          4          5
     1  N    0.000000
     2  H    2.996877   0.000000
     3  C    2.106957   1.968911   0.000000
     4  H    3.061787   2.404758   0.989338   0.000000
     5  C    1.275153   2.988196   1.319361   2.068054   0.000000
     6  H    2.020080   3.916731   2.062966   2.490084   0.991615
     7  H    2.018772   2.396199   3.010944   3.937386   3.003203
     8  C    1.281494   1.978404   2.058673   3.017147   2.047836
     9  N    2.095179   0.937630   1.264672   2.015686   2.077194
                    6          7          8          9
     6  H    0.000000
     7  H    3.932563   0.000000
     8  C    3.008234   0.989441   0.000000
     9  N    3.033718   2.017061   1.278217   0.000000
 Stoichiometry    C3H4N2
 Framework group  CS[SG(C3H4N2)]
 Deg. of freedom   15
 Full point group                 CS      NOp   2
 Largest Abelian subgroup         CS      NOp   2
 Largest concise Abelian subgroup C1      NOp   1
                         Standard orientation:                         
 ---------------------------------------------------------------------
 Center     Atomic     Atomic              Coordinates (Angstroms)
 Number     Number      Type              X           Y           Z
 ---------------------------------------------------------------------
    1          7             0       -0.674969   -0.941702    0.000000
    2          1             0       -0.005288    1.979393    0.000000
    3          6             0        1.025744    0.302019    0.000000
    4          1             0        1.967693    0.604544    0.000000
    5          6             0        0.600174   -0.946822    0.000000
    6          1             0        1.173884   -1.755622    0.000000
    7          1             0       -1.969692    0.607211    0.000000
    8          6             0       -1.032886    0.288794    0.000000
    9          7             0        0.000000    1.041778    0.000000
 ---------------------------------------------------------------------
 Rotational constants (GHZ):     11.1543393     10.4769603      5.4025219
 Isotopes: N-14,H-1,C-12,H-1,C-12,H-1,H-1,C-12,N-14
 Standard basis: Aug-CC-pVDZ (5D, 7F)
 There are   108 symmetry adapted basis functions of A'  symmetry.
 There are    43 symmetry adapted basis functions of A"  symmetry.
 Crude estimate of integral set expansion from redundant integrals=1.000.
 Integral buffers will be    262144 words long.
 Raffenetti 1 integral format.
 Two-electron integral symmetry is turned on.
   151 basis functions      269 primitive gaussians
    18 alpha electrons       18 beta electrons
       nuclear repulsion energy       173.5664837334 Hartrees.
 One-electron integrals computed using PRISM.
 NBasis=   151 RedAO= T  NBF=   108    43
 NBsUse=   151 1.00D-04 NBFU=   108    43
 Projected INDO Guess.
 Initial guess orbital symmetries:
       Occupied  (A') (A') (A') (A') (A') (A') (A') (A') (A') (A')
                 (A') (A") (A') (A') (A') (A") (A') (A")
       Virtual   (A") (A') (A') (A") (A') (A') (A') (A') (A') (A')
                 (A') (A') (A') (A') (A') (A') (A') (A') (A') (A')
                 (A') (A') (A') (A') (A') (A') (A') (A') (A') (A')
                 (A') (A') (A') (A') (A') (A') (A') (A') (A') (A')
                 (A') (A') (A') (A') (A') (A') (A') (A') (A') (A')
                 (A') (A') (A') (A') (A') (A') (A') (A') (A') (A')
                 (A') (A') (A') (A') (A') (A') (A') (A') (A') (A')
                 (A') (A') (A') (A') (A') (A') (A') (A') (A') (A')
                 (A') (A') (A') (A') (A') (A') (A') (A') (A') (A')
                 (A') (A') (A') (A') (A') (A") (A") (A") (A") (A")
                 (A") (A") (A") (A") (A") (A") (A") (A") (A") (A")
                 (A") (A") (A") (A") (A") (A") (A") (A") (A") (A")
                 (A") (A") (A") (A") (A") (A") (A") (A") (A") (A")
                 (A") (A") (A")
 Requested convergence on RMS density matrix=1.00D-08 within  64 cycles.
 Requested convergence on MAX density matrix=1.00D-06.
 SCF Done:  E(RHF) =  -224.794325759     A.U. after   14 cycles
             Convg  =    0.5167D-08             -V/T =  1.9930
             S**2   =   0.0000

 **********************************************************************

            Population analysis using the SCF density.

 **********************************************************************

 Orbital Symmetries:
       Occupied  (A') (A') (A') (A') (A') (A') (A') (A') (A') (A')
                 (A') (A') (A") (A') (A') (A') (A") (A")
       Virtual   (A') (A') (A') (A') (A") (A') (A') (A") (A') (A')
                 (A") (A') (A') (A') (A') (A") (A') (A") (A') (A")
                 (A') (A') (A") (A') (A') (A') (A") (A') (A') (A')
                 (A') (A') (A') (A") (A") (A') (A") (A') (A') (A')
                 (A') (A') (A") (A') (A") (A') (A") (A') (A') (A')
                 (A") (A') (A') (A") (A') (A") (A') (A') (A') (A')
                 (A") (A') (A') (A") (A') (A") (A') (A") (A') (A')
                 (A") (A') (A') (A") (A') (A") (A') (A') (A') (A')
                 (A') (A') (A") (A') (A') (A") (A') (A') (A") (A")
                 (A") (A") (A') (A') (A') (A") (A') (A') (A") (A')
                 (A') (A") (A') (A') (A") (A") (A') (A') (A") (A')
                 (A') (A') (A') (A') (A") (A') (A') (A") (A') (A')
                 (A") (A') (A") (A') (A') (A') (A') (A') (A') (A')
                 (A') (A') (A')
  The electronic state is 1-A'.
 Alpha  occ. eigenvalues --  -15.62172 -15.52820 -11.26786 -11.22921 -11.21180
 Alpha  occ. eigenvalues --   -1.41879  -1.21128  -1.03955  -0.87124  -0.83455
 Alpha  occ. eigenvalues --   -0.80364  -0.64457  -0.64339  -0.61690  -0.59775
 Alpha  occ. eigenvalues --   -0.42495  -0.41716  -0.31795
 Alpha virt. eigenvalues --    0.02556   0.04200   0.05045   0.06360   0.08555
 Alpha virt. eigenvalues --    0.10165   0.11947   0.12655   0.13356   0.13452
 Alpha virt. eigenvalues --    0.14092   0.15711   0.16018   0.17348   0.19130
 Alpha virt. eigenvalues --    0.19283   0.21916   0.21970   0.23075   0.24927
 Alpha virt. eigenvalues --    0.26285   0.26753   0.28421   0.30392   0.32148
 Alpha virt. eigenvalues --    0.35642   0.38107   0.38218   0.39990   0.41496
 Alpha virt. eigenvalues --    0.42095   0.43135   0.44060   0.45792   0.47934
 Alpha virt. eigenvalues --    0.49135   0.49947   0.50602   0.55487   0.56361
 Alpha virt. eigenvalues --    0.58366   0.59643   0.60482   0.62275   0.62555
 Alpha virt. eigenvalues --    0.64602   0.67696   0.68397   0.68642   0.70615
 Alpha virt. eigenvalues --    0.71666   0.72091   0.74394   0.76256   0.76526
 Alpha virt. eigenvalues --    0.78739   0.81152   0.81628   0.85377   0.88729
 Alpha virt. eigenvalues --    0.89412   0.89943   0.94502   0.95518   0.98851
 Alpha virt. eigenvalues --    1.00372   1.02562   1.02919   1.06193   1.12231
 Alpha virt. eigenvalues --    1.12427   1.15133   1.19198   1.19199   1.21879
 Alpha virt. eigenvalues --    1.25368   1.26605   1.32261   1.40650   1.42467
 Alpha virt. eigenvalues --    1.46966   1.51991   1.54859   1.58164   1.60092
 Alpha virt. eigenvalues --    1.60538   1.68585   1.69945   1.70041   1.75674
 Alpha virt. eigenvalues --    1.80691   1.84427   1.85393   1.92336   1.94806
 Alpha virt. eigenvalues --    1.95492   2.00887   2.08538   2.08627   2.10000
 Alpha virt. eigenvalues --    2.18728   2.20801   2.22368   2.26424   2.27101
 Alpha virt. eigenvalues --    2.33087   2.33300   2.35959   2.42246   2.43428
 Alpha virt. eigenvalues --    2.52162   2.56825   2.61929   2.66859   2.78767
 Alpha virt. eigenvalues --    2.80841   2.84374   2.86918   2.88623   2.97375
 Alpha virt. eigenvalues --    2.97382   3.01724   3.06351   3.12103   3.26936
 Alpha virt. eigenvalues --    3.32756   3.40722   3.45707   3.50903   3.65609
 Alpha virt. eigenvalues --    3.73373   4.05175   4.47131
          Condensed to atoms (all electrons):
              1          2          3          4          5          6
  1  N    7.311378   0.001075  -0.012910  -0.014974   0.226654  -0.038182
  2  H    0.001075   1.228861  -0.166869  -0.042165  -0.054991  -0.002556
  3  C   -0.012910  -0.166869   5.889483  -0.108742  -0.237080  -0.039257
  4  H   -0.014974  -0.042165  -0.108742   1.328941   0.100170   0.068719
  5  C    0.226654  -0.054991  -0.237080   0.100170   5.896983   0.056443
  6  H   -0.038182  -0.002556  -0.039257   0.068719   0.056443   1.222875
  7  H   -0.034102  -0.007780   0.054109   0.010450   0.125069   0.003159
  8  C    0.428359  -0.226854  -0.402613   0.010371  -0.528480   0.039024
  9  N   -0.146358   0.456196   0.301682   0.038187  -0.199474   0.041243
              7          8          9
  1  N   -0.034102   0.428359  -0.146358
  2  H   -0.007780  -0.226854   0.456196
  3  C    0.054109  -0.402613   0.301682
  4  H    0.010450   0.010371   0.038187
  5  C    0.125069  -0.528480  -0.199474
  6  H    0.003159   0.039024   0.041243
  7  H    1.240463   0.036560  -0.070575
  8  C    0.036560   5.305570   0.453074
  9  N   -0.070575   0.453074   6.342284
 Total atomic charges:
              1
  1  N   -0.720939
  2  H   -0.184917
  3  C    0.722198
  4  H   -0.390956
  5  C    0.614705
  6  H   -0.351467
  7  H   -0.357352
  8  C    0.884988
  9  N   -0.216260
 Sum of Mulliken charges=   0.00000
 Atomic charges with hydrogens summed into heavy atoms:
              1
  1  N   -0.720939
  2  H    0.000000
  3  C    0.331242
  4  H    0.000000
  5  C    0.263238
  6  H    0.000000
  7  H    0.000000
  8  C    0.527636
  9  N   -0.401177
 Sum of Mulliken charges=   0.00000
 Electronic spatial extent (au):  <R**2>=   259.9022
 Charge=     0.0000 electrons
 Dipole moment (Debye):
    X=     1.0906    Y=     3.8041    Z=     0.0000  Tot=     3.9574
 Quadrupole moment (Debye-Ang):
   XX=   -27.1468   YY=   -25.9914   ZZ=   -31.4973
   XY=    -3.4482   XZ=     0.0000   YZ=     0.0000
 Octapole moment (Debye-Ang**2):
  XXX=     0.0644  YYY=    16.1298  ZZZ=     0.0000  XYY=     5.4300
  XXY=     5.8298  XXZ=     0.0000  XZZ=    -0.8978  YZZ=     1.5759
  YYZ=     0.0000  XYZ=     0.0000
 Hexadecapole moment (Debye-Ang**3):
 XXXX=  -142.9728 YYYY=  -131.4984 ZZZZ=   -35.2059 XXXY=    -3.8290
 XXXZ=     0.0000 YYYX=    -8.4454 YYYZ=     0.0000 ZZZX=     0.0000
 ZZZY=     0.0000 XXYY=   -53.2920 XXZZ=   -36.4660 YYZZ=   -33.8549
 XXYZ=     0.0000 YYXZ=     0.0000 ZZXY=     0.4977
 N-N= 1.735664837334D+02 E-N=-8.736938903140D+02  KE= 2.263733072815D+02
 Symmetry A'   KE= 2.185713225422D+02
 Symmetry A"   KE= 7.801984739306D+00
 ***** Axes restored to original set *****
 -------------------------------------------------------------------
 Center     Atomic                   Forces (Hartrees/Bohr)
 Number     Number              X              Y              Z
 -------------------------------------------------------------------
    1          7           0.090646672    0.000000000    0.068781222
    2          1           0.016665575    0.000000000   -0.067870610
    3          6          -0.076106216    0.000000000    0.026820233
    4          1          -0.068052825    0.000000000   -0.050943663
    5          6          -0.029353046    0.000000000   -0.022073243
    6          1          -0.058438426    0.000000000    0.058946626
    7          1           0.083483321    0.000000000   -0.011067756
    8          6           0.000171900    0.000000000    0.051942842
    9          7           0.040983045    0.000000000   -0.054535650
 -------------------------------------------------------------------
 Cartesian Forces:  Max     0.090646672 RMS     0.044825646

 GradGradGradGradGradGradGradGradGradGradGradGradGradGradGradGradGradGrad
 Berny optimization.
 Internal  Forces:  Max     0.127562091 RMS     0.043940530
 Search for a local minimum.
 Step number   1 out of a maximum of  48
 All quantities printed in internal units (Hartrees-Bohrs-Radians)
 Second derivative matrix not updated -- first step.
     Eigenvalues ---    0.03211   0.03261   0.03288   0.03318   0.03352
     Eigenvalues ---    0.03407   0.16000   0.16000   0.16000   0.16000
     Eigenvalues ---    0.22000   0.22917   0.49193   0.49594   0.49613
     Eigenvalues ---    0.54578   0.60577   0.63413   0.68379   0.73836
     Eigenvalues ---    0.765081000.000001000.000001000.000001000.00000
     Eigenvalues --- 1000.000001000.000001000.000001000.000001000.00000
     Eigenvalues --- 1000.000001000.000001000.000001000.000001000.00000
     Eigenvalues --- 1000.000001000.000001000.00000
 RFO step:  Lambda=-1.00219038D-01.
 Linear search not attempted -- first point.
 Maximum step size (   0.300) exceeded in Quadratic search.
    -- Step size scaled by   0.794
 Iteration  1 RMS(Cart)=  0.06519601 RMS(Int)=  0.00049713
 Iteration  2 RMS(Cart)=  0.00057920 RMS(Int)=  0.00012915
 Iteration  3 RMS(Cart)=  0.00000038 RMS(Int)=  0.00012915
 Variable       Old X    -DE/DX   Delta X   Delta X   Delta X     New X
                                 (Linear)    (Quad)   (Total)
    R1        2.40969   0.11595   0.00000   0.10645   0.10639   2.51608
    R2        2.42167   0.04348   0.00000   0.03893   0.03869   2.46036
    R3        1.77186   0.06988   0.00000   0.07858   0.07858   1.85045
    R4        1.86958   0.08454   0.00000   0.11253   0.11253   1.98211
    R5        2.49323   0.06982   0.00000   0.07846   0.07866   2.57189
    R6        2.38988   0.12756   0.00000   0.11805   0.11823   2.50811
    R7        1.87388   0.08284   0.00000   0.11106   0.11106   1.98494
    R8        1.86977   0.08417   0.00000   0.11209   0.11209   1.98186
    R9        2.41548   0.10043   0.00000   0.09588   0.09579   2.51127
    A1        1.85787   0.00493   0.00000  -0.00355  -0.00392   1.85396
    A2        2.20999   0.01702   0.00000   0.04124   0.04105   2.25104
    A3        2.20602   0.00029   0.00000  -0.00979  -0.00997   2.19605
    A4        1.86717  -0.01731   0.00000  -0.03145  -0.03108   1.83610
    A5        1.89521   0.00874   0.00000   0.02034   0.02049   1.91570
    A6        2.19177  -0.00921   0.00000  -0.02494  -0.02501   2.16676
    A7        2.19620   0.00047   0.00000   0.00460   0.00453   2.20073
    A8        2.18150   0.00000   0.00000   0.00333   0.00346   2.18496
    A9        1.91767   0.00481   0.00000   0.00803   0.00777   1.92543
   A10        2.18402  -0.00481   0.00000  -0.01135  -0.01122   2.17279
   A11        2.20124   0.00113   0.00000  -0.00166  -0.00172   2.19953
   A12        2.19509   0.00005   0.00000  -0.00497  -0.00502   2.19007
   A13        1.88685  -0.00118   0.00000   0.00663   0.00674   1.89359
    D1        0.00000   0.00000   0.00000   0.00000   0.00000   0.00000
    D2        3.14159   0.00000   0.00000   0.00000   0.00000   3.14159
    D3        3.14159   0.00000   0.00000   0.00000   0.00000   3.14159
    D4        0.00000   0.00000   0.00000   0.00000   0.00000   0.00000
    D5        3.14159   0.00000   0.00000   0.00000   0.00000   3.14159
    D6        0.00000   0.00000   0.00000   0.00000   0.00000   0.00000
    D7        0.00000   0.00000   0.00000   0.00000   0.00000   0.00000
    D8        3.14159   0.00000   0.00000   0.00000   0.00000   3.14159
    D9        0.00000   0.00000   0.00000   0.00000   0.00000   0.00000
   D10        3.14159   0.00000   0.00000   0.00000   0.00000   3.14159
   D11        3.14159   0.00000   0.00000   0.00000   0.00000   3.14159
   D12        0.00000   0.00000   0.00000   0.00000   0.00000   0.00000
   D13        3.14159   0.00000   0.00000   0.00000   0.00000   3.14159
   D14        0.00000   0.00000   0.00000   0.00000   0.00000   0.00000
   D15        0.00000   0.00000   0.00000   0.00000   0.00000   0.00000
   D16        3.14159   0.00000   0.00000   0.00000   0.00000   3.14159
         Item               Value     Threshold  Converged?
 Maximum Force            0.127562     0.000450     NO 
 RMS     Force            0.043941     0.000300     NO 
 Maximum Displacement     0.185518     0.001800     NO 
 RMS     Displacement     0.065127     0.001200     NO 
 Predicted change in Energy=-2.707553D-02
 GradGradGradGradGradGradGradGradGradGradGradGradGradGradGradGradGradGrad

                          Input orientation:                          
 ---------------------------------------------------------------------
 Center     Atomic     Atomic              Coordinates (Angstroms)
 Number     Number      Type              X           Y           Z
 ---------------------------------------------------------------------
    1          7             0        0.480255    0.000000    1.106480
    2          1             0        0.478919    0.000000   -1.990820
    3          6             0       -0.984017    0.000000   -0.538606
    4          1             0       -1.873714    0.000000   -1.094130
    5          6             0       -0.818282    0.000000    0.812249
    6          1             0       -1.585399    0.000000    1.529777
    7          1             0        2.153901    0.000000   -0.145582
    8          6             0        1.111276    0.000000   -0.032348
    9          7             0        0.244873    0.000000   -1.039987
 ---------------------------------------------------------------------
                    Distance matrix (angstroms):
                    1          2          3          4          5
     1  N    0.000000
     2  H    3.097300   0.000000
     3  C    2.202362   2.061336   0.000000
     4  H    3.222399   2.517724   1.048889   0.000000
     5  C    1.331455   3.088677   1.360984   2.179041   0.000000
     6  H    2.108580   4.081177   2.154035   2.639699   1.050387
     7  H    2.090155   2.492081   3.162435   4.137804   3.122709
     8  C    1.301966   2.058030   2.155585   3.168208   2.106309
     9  N    2.159334   0.979214   1.327236   2.119279   2.135668
                    6          7          8          9
     6  H    0.000000
     7  H    4.097461   0.000000
     8  C    3.116454   1.048756   0.000000
     9  N    3.154930   2.108162   1.328905   0.000000
 Stoichiometry    C3H4N2
 Framework group  CS[SG(C3H4N2)]
 Deg. of freedom   15
 Full point group                 CS      NOp   2
 Largest Abelian subgroup         CS      NOp   2
 Largest concise Abelian subgroup C1      NOp   1
                         Standard orientation:                         
 ---------------------------------------------------------------------
 Center     Atomic     Atomic              Coordinates (Angstroms)
 Number     Number      Type              X           Y           Z
 ---------------------------------------------------------------------
    1          7             0       -0.713192   -0.964635    0.000000
    2          1             0       -0.013679    2.052639    0.000000
    3          6             0        1.084235    0.308022    0.000000
    4          1             0        2.076261    0.648686    0.000000
    5          6             0        0.618248   -0.970702    0.000000
    6          1             0        1.203870   -1.842689    0.000000
    7          1             0       -2.061512    0.632482    0.000000
    8          6             0       -1.071249    0.287128    0.000000
    9          7             0        0.000000    1.073521    0.000000
 ---------------------------------------------------------------------
 Rotational constants (GHZ):     10.2108730      9.8655489      5.0176205
 Isotopes: N-14,H-1,C-12,H-1,C-12,H-1,H-1,C-12,N-14
 Standard basis: Aug-CC-pVDZ (5D, 7F)
 There are   108 symmetry adapted basis functions of A'  symmetry.
 There are    43 symmetry adapted basis functions of A"  symmetry.
 Crude estimate of integral set expansion from redundant integrals=1.000.
 Integral buffers will be    262144 words long.
 Raffenetti 1 integral format.
 Two-electron integral symmetry is turned on.
   151 basis functions      269 primitive gaussians
    18 alpha electrons       18 beta electrons
       nuclear repulsion energy       167.1270725072 Hartrees.
 One-electron integrals computed using PRISM.
 NBasis=   151 RedAO= T  NBF=   108    43
 NBsUse=   151 1.00D-04 NBFU=   108    43
 Initial guess read from the read-write file:
 Initial guess orbital symmetries:
       Occupied  (A') (A') (A') (A') (A') (A') (A') (A') (A') (A')
                 (A') (A') (A") (A') (A') (A') (A") (A")
       Virtual   (A') (A') (A') (A') (A") (A') (A') (A") (A') (A')
                 (A") (A') (A') (A') (A') (A") (A') (A") (A') (A")
                 (A') (A') (A") (A') (A') (A') (A") (A') (A') (A')
                 (A') (A') (A') (A") (A") (A') (A") (A') (A') (A')
                 (A') (A') (A") (A') (A") (A') (A") (A') (A') (A')
                 (A") (A') (A') (A") (A') (A") (A') (A') (A') (A')
                 (A") (A') (A') (A") (A') (A") (A') (A") (A') (A')
                 (A") (A') (A') (A") (A') (A") (A') (A') (A') (A')
                 (A') (A') (A") (A') (A') (A") (A') (A') (A") (A")
                 (A") (A") (A') (A') (A') (A") (A') (A') (A") (A')
                 (A') (A") (A') (A') (A") (A") (A') (A') (A") (A')
                 (A') (A') (A') (A') (A") (A') (A') (A") (A') (A')
                 (A") (A') (A") (A') (A') (A') (A') (A') (A') (A')
                 (A') (A') (A')
 Requested convergence on RMS density matrix=1.00D-08 within  64 cycles.
 Requested convergence on MAX density matrix=1.00D-06.
 SCF Done:  E(RHF) =  -224.842898127     A.U. after   13 cycles
             Convg  =    0.5995D-08             -V/T =  1.9986
             S**2   =   0.0000
 ***** Axes restored to original set *****
 -------------------------------------------------------------------
 Center     Atomic                   Forces (Hartrees/Bohr)
 Number     Number              X              Y              Z
 -------------------------------------------------------------------
    1          7           0.035246595    0.000000000    0.014226544
    2          1           0.004302747    0.000000000   -0.016040639
    3          6          -0.025928256    0.000000000    0.028761351
    4          1          -0.014470271    0.000000000   -0.016106163
    5          6          -0.016060905    0.000000000   -0.021799648
    6          1          -0.012713427    0.000000000    0.017154340
    7          1           0.021052745    0.000000000   -0.004728307
    8          6          -0.012746448    0.000000000    0.025149647
    9          7           0.021317219    0.000000000   -0.026617124
 -------------------------------------------------------------------
 Cartesian Forces:  Max     0.035246595 RMS     0.016444459

 GradGradGradGradGradGradGradGradGradGradGradGradGradGradGradGradGradGrad
 Berny optimization.
 Internal  Forces:  Max     0.040134838 RMS     0.011859076
 Search for a local minimum.
 Step number   2 out of a maximum of  48
 All quantities printed in internal units (Hartrees-Bohrs-Radians)
 Update second derivatives using information from points  1  2
 Trust test= 1.79D+00 RLast= 3.00D-01 DXMaxT set to 4.24D-01
     Eigenvalues ---    0.03209   0.03262   0.03288   0.03313   0.03351
     Eigenvalues ---    0.03406   0.15905   0.16000   0.16000   0.16001
     Eigenvalues ---    0.22145   0.22845   0.49307   0.49600   0.51423
     Eigenvalues ---    0.55867   0.61066   0.63791   0.69745   0.74348
     Eigenvalues ---    0.770661000.000001000.000001000.000001000.00000
     Eigenvalues --- 1000.000001000.000001000.000001000.000001000.00000
     Eigenvalues --- 1000.000001000.000001000.000001000.000001000.00000
     Eigenvalues --- 1000.000001000.000001000.00000
 RFO step:  Lambda=-2.40715524D-03.
 Quartic linear search produced a step of  0.43620.
 Iteration  1 RMS(Cart)=  0.03070077 RMS(Int)=  0.00054058
 Iteration  2 RMS(Cart)=  0.00064095 RMS(Int)=  0.00007601
 Iteration  3 RMS(Cart)=  0.00000046 RMS(Int)=  0.00007601
 Variable       Old X    -DE/DX   Delta X   Delta X   Delta X     New X
                                 (Linear)    (Quad)   (Total)
    R1        2.51608   0.03528   0.04641   0.01030   0.05658   2.57267
    R2        2.46036   0.00191   0.01688  -0.01892  -0.00212   2.45824
    R3        1.85045   0.01660   0.03428  -0.00146   0.03282   1.88327
    R4        1.98211   0.02080   0.04909   0.00188   0.05096   2.03308
    R5        2.57189   0.00706   0.03431  -0.02305   0.01126   2.58315
    R6        2.50811   0.04013   0.05157   0.01508   0.06678   2.57489
    R7        1.98494   0.02100   0.04845   0.00373   0.05218   2.03712
    R8        1.98186   0.02144   0.04889   0.00396   0.05285   2.03472
    R9        2.51127   0.02427   0.04178  -0.00193   0.03993   2.55119
    A1        1.85396  -0.00054  -0.00171  -0.01823  -0.02020   1.83375
    A2        2.25104   0.00726   0.01791   0.03418   0.05202   2.30306
    A3        2.19605  -0.00463  -0.00435  -0.04557  -0.04999   2.14606
    A4        1.83610  -0.00263  -0.01356   0.01139  -0.00203   1.83407
    A5        1.91570   0.00288   0.00894   0.00582   0.01467   1.93036
    A6        2.16676  -0.00525  -0.01091  -0.02930  -0.04016   2.12660
    A7        2.20073   0.00238   0.00198   0.02347   0.02549   2.22622
    A8        2.18496  -0.00059   0.00151   0.00255   0.00405   2.18901
    A9        1.92543   0.00598   0.00339   0.03015   0.03355   1.95898
   A10        2.17279  -0.00540  -0.00490  -0.03270  -0.03760   2.13519
   A11        2.19953   0.00316  -0.00075   0.01656   0.01571   2.21523
   A12        2.19007   0.00253  -0.00219   0.01257   0.01028   2.20035
   A13        1.89359  -0.00569   0.00294  -0.02913  -0.02599   1.86761
    D1        0.00000   0.00000   0.00000   0.00000   0.00000   0.00000
    D2        3.14159   0.00000   0.00000   0.00000   0.00000   3.14159
    D3        3.14159   0.00000   0.00000   0.00000   0.00000   3.14159
    D4        0.00000   0.00000   0.00000   0.00000   0.00000   0.00000
    D5        3.14159   0.00000   0.00000   0.00000   0.00000   3.14159
    D6        0.00000   0.00000   0.00000   0.00000   0.00000   0.00000
    D7        0.00000   0.00000   0.00000   0.00000   0.00000   0.00000
    D8        3.14159   0.00000   0.00000   0.00000   0.00000   3.14159
    D9        0.00000   0.00000   0.00000   0.00000   0.00000   0.00000
   D10        3.14159   0.00000   0.00000   0.00000   0.00000   3.14159
   D11        3.14159   0.00000   0.00000   0.00000   0.00000   3.14159
   D12        0.00000   0.00000   0.00000   0.00000   0.00000   0.00000
   D13        3.14159   0.00000   0.00000   0.00000   0.00000   3.14159
   D14        0.00000   0.00000   0.00000   0.00000   0.00000   0.00000
   D15        0.00000   0.00000   0.00000   0.00000   0.00000   0.00000
   D16        3.14159   0.00000   0.00000   0.00000   0.00000   3.14159
         Item               Value     Threshold  Converged?
 Maximum Force            0.040135     0.000450     NO 
 RMS     Force            0.011859     0.000300     NO 
 Maximum Displacement     0.101888     0.001800     NO 
 RMS     Displacement     0.030648     0.001200     NO 
 Predicted change in Energy=-6.805551D-03
 GradGradGradGradGradGradGradGradGradGradGradGradGradGradGradGradGradGrad

                          Input orientation:                          
 ---------------------------------------------------------------------
 Center     Atomic     Atomic              Coordinates (Angstroms)
 Number     Number      Type              X           Y           Z
 ---------------------------------------------------------------------
    1          7             0        0.493140    0.000000    1.123890
    2          1             0        0.494352    0.000000   -2.028786
    3          6             0       -1.010873    0.000000   -0.540292
    4          1             0       -1.897855    0.000000   -1.149170
    5          6             0       -0.832751    0.000000    0.814995
    6          1             0       -1.594472    0.000000    1.577792
    7          1             0        2.175609    0.000000   -0.158452
    8          6             0        1.107468    0.000000   -0.022753
    9          7             0        0.247327    0.000000   -1.063305
 ---------------------------------------------------------------------
                    Distance matrix (angstroms):
                    1          2          3          4          5
     1  N    0.000000
     2  H    3.152676   0.000000
     3  C    2.243114   2.116912   0.000000
     4  H    3.299039   2.548799   1.075857   0.000000
     5  C    1.361397   3.138199   1.366942   2.234366   0.000000
     6  H    2.136387   4.167804   2.197013   2.743786   1.077997
     7  H    2.115444   2.514911   3.209279   4.192211   3.161934
     8  C    1.300842   2.097636   2.180646   3.209483   2.113356
     9  N    2.200965   0.996581   1.362575   2.146900   2.166698
                    6          7          8          9
     6  H    0.000000
     7  H    4.150669   0.000000
     8  C    3.140418   1.076726   0.000000
     9  N    3.219878   2.130031   1.350034   0.000000
 Stoichiometry    C3H4N2
 Framework group  CS[SG(C3H4N2)]
 Deg. of freedom   15
 Full point group                 CS      NOp   2
 Largest Abelian subgroup         CS      NOp   2
 Largest concise Abelian subgroup C1      NOp   1
                         Standard orientation:                         
 ---------------------------------------------------------------------
 Center     Atomic     Atomic              Coordinates (Angstroms)
 Number     Number      Type              X           Y           Z
 ---------------------------------------------------------------------
    1          7             0       -0.735698   -0.977530    0.000000
    2          1             0       -0.021504    2.093186    0.000000
    3          6             0        1.106704    0.301968    0.000000
    4          1             0        2.108710    0.693699    0.000000
    5          6             0        0.625699   -0.977549    0.000000
    6          1             0        1.194465   -1.893292    0.000000
    7          1             0       -2.083305    0.653133    0.000000
    8          6             0       -1.073817    0.278602    0.000000
    9          7             0        0.000000    1.096837    0.000000
 ---------------------------------------------------------------------
 Rotational constants (GHZ):      9.9741023      9.5274702      4.8728359
 Isotopes: N-14,H-1,C-12,H-1,C-12,H-1,H-1,C-12,N-14
 Standard basis: Aug-CC-pVDZ (5D, 7F)
 There are   108 symmetry adapted basis functions of A'  symmetry.
 There are    43 symmetry adapted basis functions of A"  symmetry.
 Crude estimate of integral set expansion from redundant integrals=1.000.
 Integral buffers will be    262144 words long.
 Raffenetti 1 integral format.
 Two-electron integral symmetry is turned on.
   151 basis functions      269 primitive gaussians
    18 alpha electrons       18 beta electrons
       nuclear repulsion energy       164.6558054413 Hartrees.
 One-electron integrals computed using PRISM.
 NBasis=   151 RedAO= T  NBF=   108    43
 NBsUse=   151 1.00D-04 NBFU=   108    43
 Initial guess read from the read-write file:
 Initial guess orbital symmetries:
       Occupied  (A') (A') (A') (A') (A') (A') (A') (A') (A') (A')
                 (A') (A') (A") (A') (A') (A') (A") (A")
       Virtual   (A') (A') (A') (A') (A") (A') (A') (A") (A') (A')
                 (A") (A') (A') (A') (A") (A') (A") (A') (A') (A")
                 (A') (A') (A") (A') (A') (A') (A') (A") (A') (A')
                 (A') (A') (A') (A") (A") (A') (A") (A') (A') (A')
                 (A') (A') (A") (A') (A") (A') (A') (A") (A') (A')
                 (A') (A") (A') (A') (A") (A') (A") (A') (A') (A')
                 (A') (A") (A') (A") (A') (A') (A") (A") (A') (A')
                 (A") (A') (A') (A") (A') (A") (A') (A') (A') (A')
                 (A') (A') (A") (A') (A") (A') (A") (A') (A') (A")
                 (A") (A") (A') (A') (A') (A") (A') (A') (A") (A')
                 (A') (A") (A') (A") (A') (A') (A') (A") (A') (A")
                 (A') (A') (A') (A') (A') (A") (A') (A') (A") (A')
                 (A') (A") (A") (A') (A') (A') (A') (A') (A') (A')
                 (A') (A') (A')
 Requested convergence on RMS density matrix=1.00D-08 within  64 cycles.
 Requested convergence on MAX density matrix=1.00D-06.
 SCF Done:  E(RHF) =  -224.848517707     A.U. after   13 cycles
             Convg  =    0.3999D-08             -V/T =  2.0006
             S**2   =   0.0000
 ***** Axes restored to original set *****
 -------------------------------------------------------------------
 Center     Atomic                   Forces (Hartrees/Bohr)
 Number     Number              X              Y              Z
 -------------------------------------------------------------------
    1          7           0.009648821    0.000000000   -0.007852450
    2          1          -0.000541822    0.000000000    0.002685423
    3          6          -0.008699968    0.000000000    0.011219899
    4          1           0.001431420    0.000000000    0.001045045
    5          6          -0.012967945    0.000000000   -0.007887800
    6          1           0.001364792    0.000000000   -0.001443948
    7          1          -0.000827108    0.000000000    0.000013731
    8          6           0.002670186    0.000000000    0.005407210
    9          7           0.007921625    0.000000000   -0.003187109
 -------------------------------------------------------------------
 Cartesian Forces:  Max     0.012967945 RMS     0.005132601

 GradGradGradGradGradGradGradGradGradGradGradGradGradGradGradGradGradGrad
 Berny optimization.
 Internal  Forces:  Max     0.009911414 RMS     0.003127471
 Search for a local minimum.
 Step number   3 out of a maximum of  48
 All quantities printed in internal units (Hartrees-Bohrs-Radians)
 Update second derivatives using information from points  1  2  3
 Trust test= 8.26D-01 RLast= 1.74D-01 DXMaxT set to 5.22D-01
     Eigenvalues ---    0.03205   0.03261   0.03287   0.03305   0.03349
     Eigenvalues ---    0.03405   0.15446   0.16000   0.16001   0.16002
     Eigenvalues ---    0.22362   0.23957   0.43694   0.49328   0.49629
     Eigenvalues ---    0.56083   0.58375   0.62968   0.65294   0.74661
     Eigenvalues ---    0.789601000.000001000.000001000.000001000.00000
     Eigenvalues --- 1000.000001000.000001000.000001000.000001000.00000
     Eigenvalues --- 1000.000001000.000001000.000001000.000001000.00000
     Eigenvalues --- 1000.000001000.000001000.00000
 RFO step:  Lambda=-6.67918313D-04.
 Quartic linear search produced a step of  0.03883.
 Iteration  1 RMS(Cart)=  0.00685159 RMS(Int)=  0.00001947
 Iteration  2 RMS(Cart)=  0.00001781 RMS(Int)=  0.00000464
 Iteration  3 RMS(Cart)=  0.00000000 RMS(Int)=  0.00000464
 Variable       Old X    -DE/DX   Delta X   Delta X   Delta X     New X
                                 (Linear)    (Quad)   (Total)
    R1        2.57267   0.00934   0.00220   0.01460   0.01680   2.58947
    R2        2.45824  -0.00654  -0.00008  -0.00926  -0.00934   2.44889
    R3        1.88327  -0.00274   0.00127  -0.00338  -0.00211   1.88116
    R4        2.03308  -0.00177   0.00198  -0.00174   0.00024   2.03331
    R5        2.58315  -0.00991   0.00044  -0.01524  -0.01480   2.56835
    R6        2.57489   0.00945   0.00259   0.01491   0.01750   2.59239
    R7        2.03712  -0.00199   0.00203  -0.00222  -0.00020   2.03692
    R8        2.03472  -0.00082   0.00205   0.00025   0.00231   2.03702
    R9        2.55119  -0.00041   0.00155   0.00093   0.00247   2.55367
    A1        1.83375   0.00402  -0.00078   0.01479   0.01401   1.84776
    A2        2.30306   0.00028   0.00202   0.00162   0.00364   2.30669
    A3        2.14606   0.00038  -0.00194  -0.00025  -0.00219   2.14387
    A4        1.83407  -0.00066  -0.00008  -0.00137  -0.00144   1.83263
    A5        1.93036  -0.00174   0.00057  -0.00709  -0.00651   1.92385
    A6        2.12660   0.00093  -0.00156   0.00311   0.00155   2.12815
    A7        2.22622   0.00082   0.00099   0.00398   0.00496   2.23119
    A8        2.18901   0.00163   0.00016   0.00821   0.00837   2.19738
    A9        1.95898  -0.00307   0.00130  -0.01429  -0.01299   1.94599
   A10        2.13519   0.00144  -0.00146   0.00608   0.00462   2.13982
   A11        2.21523  -0.00059   0.00061  -0.00305  -0.00244   2.21280
   A12        2.20035  -0.00086   0.00040  -0.00490  -0.00450   2.19585
   A13        1.86761   0.00145  -0.00101   0.00796   0.00694   1.87454
    D1        0.00000   0.00000   0.00000   0.00000   0.00000   0.00000
    D2        3.14159   0.00000   0.00000   0.00000   0.00000   3.14159
    D3        3.14159   0.00000   0.00000   0.00000   0.00000   3.14159
    D4        0.00000   0.00000   0.00000   0.00000   0.00000   0.00000
    D5        3.14159   0.00000   0.00000   0.00000   0.00000   3.14159
    D6        0.00000   0.00000   0.00000   0.00000   0.00000   0.00000
    D7        0.00000   0.00000   0.00000   0.00000   0.00000   0.00000
    D8        3.14159   0.00000   0.00000   0.00000   0.00000   3.14159
    D9        0.00000   0.00000   0.00000   0.00000   0.00000   0.00000
   D10        3.14159   0.00000   0.00000   0.00000   0.00000   3.14159
   D11        3.14159   0.00000   0.00000   0.00000   0.00000   3.14159
   D12        0.00000   0.00000   0.00000   0.00000   0.00000   0.00000
   D13        3.14159   0.00000   0.00000   0.00000   0.00000   3.14159
   D14        0.00000   0.00000   0.00000   0.00000   0.00000   0.00000
   D15        0.00000   0.00000   0.00000   0.00000   0.00000   0.00000
   D16        3.14159   0.00000   0.00000   0.00000   0.00000   3.14159
         Item               Value     Threshold  Converged?
 Maximum Force            0.009911     0.000450     NO 
 RMS     Force            0.003127     0.000300     NO 
 Maximum Displacement     0.018629     0.001800     NO 
 RMS     Displacement     0.006849     0.001200     NO 
 Predicted change in Energy=-3.415510D-04
 GradGradGradGradGradGradGradGradGradGradGradGradGradGradGradGradGradGrad

                          Input orientation:                          
 ---------------------------------------------------------------------
 Center     Atomic     Atomic              Coordinates (Angstroms)
 Number     Number      Type              X           Y           Z
 ---------------------------------------------------------------------
    1          7             0        0.496942    0.000000    1.109576
    2          1             0        0.497343    0.000000   -2.029546
    3          6             0       -1.016311    0.000000   -0.540526
    4          1             0       -1.901030    0.000000   -1.152907
    5          6             0       -0.839531    0.000000    0.807039
    6          1             0       -1.597566    0.000000    1.573352
    7          1             0        2.187024    0.000000   -0.164464
    8          6             0        1.117758    0.000000   -0.027938
    9          7             0        0.251323    0.000000   -1.064961
 ---------------------------------------------------------------------
                    Distance matrix (angstroms):
                    1          2          3          4          5
     1  N    0.000000
     2  H    3.139122   0.000000
     3  C    2.238922   2.123283   0.000000
     4  H    3.296831   2.553564   1.075982   0.000000
     5  C    1.370288   3.135833   1.359110   2.228939   0.000000
     6  H    2.145239   4.167676   2.192336   2.743097   1.077893
     7  H    2.116496   2.516654   3.225333   4.205853   3.178656
     8  C    1.295898   2.095554   2.194766   3.221589   2.127949
     9  N    2.188365   0.995465   1.371834   2.154149   2.166644
                    6          7          8          9
     6  H    0.000000
     7  H    4.164508   0.000000
     8  C    3.152320   1.077946   0.000000
     9  N    3.221659   2.134907   1.351342   0.000000
 Stoichiometry    C3H4N2
 Framework group  CS[SG(C3H4N2)]
 Deg. of freedom   15
 Full point group                 CS      NOp   2
 Largest Abelian subgroup         CS      NOp   2
 Largest concise Abelian subgroup C1      NOp   1
                         Standard orientation:                         
 ---------------------------------------------------------------------
 Center     Atomic     Atomic              Coordinates (Angstroms)
 Number     Number      Type              X           Y           Z
 ---------------------------------------------------------------------
    1          7             0       -0.739114   -0.966330    0.000000
    2          1             0       -0.017600    2.088749    0.000000
    3          6             0        1.113054    0.291542    0.000000
    4          1             0        2.114890    0.684051    0.000000
    5          6             0        0.631112   -0.979250    0.000000
    6          1             0        1.192601   -1.899350    0.000000
    7          1             0       -2.090906    0.662232    0.000000
    8          6             0       -1.081697    0.283466    0.000000
    9          7             0        0.000000    1.093440    0.000000
 ---------------------------------------------------------------------
 Rotational constants (GHZ):      9.8406265      9.6209544      4.8647753
 Isotopes: N-14,H-1,C-12,H-1,C-12,H-1,H-1,C-12,N-14
 Standard basis: Aug-CC-pVDZ (5D, 7F)
 There are   108 symmetry adapted basis functions of A'  symmetry.
 There are    43 symmetry adapted basis functions of A"  symmetry.
 Crude estimate of integral set expansion from redundant integrals=1.000.
 Integral buffers will be    262144 words long.
 Raffenetti 1 integral format.
 Two-electron integral symmetry is turned on.
   151 basis functions      269 primitive gaussians
    18 alpha electrons       18 beta electrons
       nuclear repulsion energy       164.5113714115 Hartrees.
 One-electron integrals computed using PRISM.
 NBasis=   151 RedAO= T  NBF=   108    43
 NBsUse=   151 1.00D-04 NBFU=   108    43
 Initial guess read from the read-write file:
 Initial guess orbital symmetries:
       Occupied  (A') (A') (A') (A') (A') (A') (A') (A') (A') (A')
                 (A') (A') (A") (A') (A') (A') (A") (A")
       Virtual   (A') (A') (A') (A') (A") (A') (A') (A") (A') (A')
                 (A") (A') (A') (A') (A") (A') (A") (A') (A') (A")
                 (A') (A') (A") (A') (A') (A') (A') (A") (A') (A')
                 (A') (A') (A') (A") (A") (A') (A") (A') (A') (A')
                 (A') (A') (A") (A') (A") (A') (A') (A') (A") (A')
                 (A') (A") (A') (A') (A") (A') (A') (A") (A') (A')
                 (A') (A') (A") (A") (A') (A') (A") (A") (A') (A')
                 (A") (A') (A') (A") (A') (A") (A') (A') (A') (A')
                 (A') (A') (A") (A") (A') (A') (A") (A') (A') (A")
                 (A") (A') (A") (A') (A') (A") (A') (A') (A") (A')
                 (A') (A") (A') (A") (A') (A') (A") (A') (A') (A")
                 (A') (A') (A') (A') (A') (A') (A") (A') (A") (A')
                 (A') (A") (A") (A') (A') (A') (A') (A') (A') (A')
                 (A') (A') (A')
 Requested convergence on RMS density matrix=1.00D-08 within  64 cycles.
 Requested convergence on MAX density matrix=1.00D-06.
 SCF Done:  E(RHF) =  -224.848831874     A.U. after   11 cycles
             Convg  =    0.2417D-08             -V/T =  2.0007
             S**2   =   0.0000
 ***** Axes restored to original set *****
 -------------------------------------------------------------------
 Center     Atomic                   Forces (Hartrees/Bohr)
 Number     Number              X              Y              Z
 -------------------------------------------------------------------
    1          7           0.005002430    0.000000000    0.001545494
    2          1          -0.000823601    0.000000000    0.001324529
    3          6          -0.000927011    0.000000000    0.002991262
    4          1           0.001674755    0.000000000    0.000900172
    5          6          -0.003315816    0.000000000   -0.002992350
    6          1           0.001868318    0.000000000   -0.001240389
    7          1          -0.001880891    0.000000000    0.000332677
    8          6          -0.004813530    0.000000000    0.002190362
    9          7           0.003215346    0.000000000   -0.005051756
 -------------------------------------------------------------------
 Cartesian Forces:  Max     0.005051756 RMS     0.002242027

 GradGradGradGradGradGradGradGradGradGradGradGradGradGradGradGradGradGrad
 Berny optimization.
 Internal  Forces:  Max     0.003310910 RMS     0.001277298
 Search for a local minimum.
 Step number   4 out of a maximum of  48
 All quantities printed in internal units (Hartrees-Bohrs-Radians)
 Update second derivatives using information from points  1  2  3  4
 Trust test= 9.20D-01 RLast= 3.91D-02 DXMaxT set to 5.22D-01
     Eigenvalues ---    0.03205   0.03262   0.03287   0.03305   0.03350
     Eigenvalues ---    0.03405   0.14990   0.15999   0.16000   0.16040
     Eigenvalues ---    0.22243   0.28217   0.48698   0.49616   0.50217
     Eigenvalues ---    0.52325   0.56306   0.61068   0.64273   0.74316
     Eigenvalues ---    0.762621000.000001000.000001000.000001000.00000
     Eigenvalues --- 1000.000001000.000001000.000001000.000001000.00000
     Eigenvalues --- 1000.000001000.000001000.000001000.000001000.00000
     Eigenvalues --- 1000.000001000.000001000.00000
 RFO step:  Lambda=-1.60512517D-04.
 Quartic linear search produced a step of -0.07230.
 Iteration  1 RMS(Cart)=  0.00304861 RMS(Int)=  0.00000860
 Iteration  2 RMS(Cart)=  0.00000838 RMS(Int)=  0.00000507
 Iteration  3 RMS(Cart)=  0.00000000 RMS(Int)=  0.00000507
 Variable       Old X    -DE/DX   Delta X   Delta X   Delta X     New X
                                 (Linear)    (Quad)   (Total)
    R1        2.58947   0.00159  -0.00121   0.00779   0.00657   2.59604
    R2        2.44889  -0.00227   0.00068  -0.00539  -0.00471   2.44419
    R3        1.88116  -0.00149   0.00015  -0.00223  -0.00208   1.87908
    R4        2.03331  -0.00189  -0.00002  -0.00241  -0.00242   2.03089
    R5        2.56835  -0.00221   0.00107  -0.00681  -0.00575   2.56260
    R6        2.59239   0.00022  -0.00127   0.00645   0.00518   2.59757
    R7        2.03692  -0.00220   0.00001  -0.00317  -0.00316   2.03376
    R8        2.03702  -0.00191  -0.00017  -0.00184  -0.00200   2.03502
    R9        2.55367  -0.00027  -0.00018   0.00114   0.00097   2.55464
    A1        1.84776  -0.00261  -0.00101  -0.00627  -0.00728   1.84048
    A2        2.30669  -0.00017  -0.00026   0.00095   0.00070   2.30739
    A3        2.14387  -0.00060   0.00016  -0.00354  -0.00338   2.14049
    A4        1.83263   0.00076   0.00010   0.00258   0.00268   1.83531
    A5        1.92385   0.00094   0.00047   0.00222   0.00268   1.92653
    A6        2.12815  -0.00093  -0.00011  -0.00435  -0.00445   2.12369
    A7        2.23119  -0.00001  -0.00036   0.00213   0.00178   2.23296
    A8        2.19738  -0.00175  -0.00061  -0.00457  -0.00519   2.19219
    A9        1.94599   0.00331   0.00094   0.00913   0.01009   1.95608
   A10        2.13982  -0.00156  -0.00033  -0.00456  -0.00490   2.13492
   A11        2.21280   0.00076   0.00018   0.00159   0.00176   2.21456
   A12        2.19585   0.00165   0.00033   0.00608   0.00640   2.20224
   A13        1.87454  -0.00241  -0.00050  -0.00767  -0.00816   1.86638
    D1        0.00000   0.00000   0.00000   0.00000   0.00000   0.00000
    D2        3.14159   0.00000   0.00000   0.00000   0.00000   3.14159
    D3        3.14159   0.00000   0.00000   0.00000   0.00000   3.14159
    D4        0.00000   0.00000   0.00000   0.00000   0.00000   0.00000
    D5        3.14159   0.00000   0.00000   0.00000   0.00000   3.14159
    D6        0.00000   0.00000   0.00000   0.00000   0.00000   0.00000
    D7        0.00000   0.00000   0.00000   0.00000   0.00000   0.00000
    D8        3.14159   0.00000   0.00000   0.00000   0.00000   3.14159
    D9        0.00000   0.00000   0.00000   0.00000   0.00000   0.00000
   D10        3.14159   0.00000   0.00000   0.00000   0.00000   3.14159
   D11        3.14159   0.00000   0.00000   0.00000   0.00000   3.14159
   D12        0.00000   0.00000   0.00000   0.00000   0.00000   0.00000
   D13        3.14159   0.00000   0.00000   0.00000   0.00000   3.14159
   D14        0.00000   0.00000   0.00000   0.00000   0.00000   0.00000
   D15        0.00000   0.00000   0.00000   0.00000   0.00000   0.00000
   D16        3.14159   0.00000   0.00000   0.00000   0.00000   3.14159
         Item               Value     Threshold  Converged?
 Maximum Force            0.003311     0.000450     NO 
 RMS     Force            0.001277     0.000300     NO 
 Maximum Displacement     0.009242     0.001800     NO 
 RMS     Displacement     0.003050     0.001200     NO 
 Predicted change in Energy=-8.213158D-05
 GradGradGradGradGradGradGradGradGradGradGradGradGradGradGradGradGradGrad

                          Input orientation:                          
 ---------------------------------------------------------------------
 Center     Atomic     Atomic              Coordinates (Angstroms)
 Number     Number      Type              X           Y           Z
 ---------------------------------------------------------------------
    1          7             0        0.499811    0.000000    1.112788
    2          1             0        0.497448    0.000000   -2.031280
    3          6             0       -1.015911    0.000000   -0.538382
    4          1             0       -1.899257    0.000000   -1.150492
    5          6             0       -0.839289    0.000000    0.806136
    6          1             0       -1.594651    0.000000    1.572739
    7          1             0        2.182268    0.000000   -0.161450
    8          6             0        1.114000    0.000000   -0.025490
    9          7             0        0.252752    0.000000   -1.067492
 ---------------------------------------------------------------------
                    Distance matrix (angstroms):
                    1          2          3          4          5
     1  N    0.000000
     2  H    3.144069   0.000000
     3  C    2.241378   2.125794   0.000000
     4  H    3.298177   2.553426   1.074700   0.000000
     5  C    1.373763   3.136526   1.356070   2.225293   0.000000
     6  H    2.144371   4.167233   2.189011   2.740214   1.076221
     7  H    2.110532   2.516919   3.220315   4.199650   3.172701
     8  C    1.293408   2.098410   2.190794   3.216418   2.122955
     9  N    2.194233   0.994366   1.374577   2.153609   2.168648
                    6          7          8          9
     6  H    0.000000
     7  H    4.156023   0.000000
     8  C    3.145016   1.076886   0.000000
     9  N    3.222377   2.131653   1.351856   0.000000
 Stoichiometry    C3H4N2
 Framework group  CS[SG(C3H4N2)]
 Deg. of freedom   15
 Full point group                 CS      NOp   2
 Largest Abelian subgroup         CS      NOp   2
 Largest concise Abelian subgroup C1      NOp   1
                         Standard orientation:                         
 ---------------------------------------------------------------------
 Center     Atomic     Atomic              Coordinates (Angstroms)
 Number     Number      Type              X           Y           Z
 ---------------------------------------------------------------------
    1          7             0       -0.742417   -0.967850    0.000000
    2          1             0       -0.016217    2.091202    0.000000
    3          6             0        1.112753    0.289974    0.000000
    4          1             0        2.113302    0.682254    0.000000
    5          6             0        0.631310   -0.977756    0.000000
    6          1             0        1.189873   -1.897679    0.000000
    7          1             0       -2.086286    0.659528    0.000000
    8          6             0       -1.078023    0.281259    0.000000
    9          7             0        0.000000    1.096969    0.000000
 ---------------------------------------------------------------------
 Rotational constants (GHZ):      9.8627874      9.5959135      4.8637602
 Isotopes: N-14,H-1,C-12,H-1,C-12,H-1,H-1,C-12,N-14
 Standard basis: Aug-CC-pVDZ (5D, 7F)
 There are   108 symmetry adapted basis functions of A'  symmetry.
 There are    43 symmetry adapted basis functions of A"  symmetry.
 Crude estimate of integral set expansion from redundant integrals=1.000.
 Integral buffers will be    262144 words long.
 Raffenetti 1 integral format.
 Two-electron integral symmetry is turned on.
   151 basis functions      269 primitive gaussians
    18 alpha electrons       18 beta electrons
       nuclear repulsion energy       164.5106882132 Hartrees.
 One-electron integrals computed using PRISM.
 NBasis=   151 RedAO= T  NBF=   108    43
 NBsUse=   151 1.00D-04 NBFU=   108    43
 Initial guess read from the read-write file:
 Initial guess orbital symmetries:
       Occupied  (A') (A') (A') (A') (A') (A') (A') (A') (A') (A')
                 (A') (A') (A') (A") (A') (A') (A") (A")
       Virtual   (A') (A') (A') (A') (A") (A') (A') (A") (A') (A')
                 (A") (A') (A') (A') (A") (A') (A") (A') (A') (A")
                 (A') (A') (A") (A') (A') (A') (A') (A") (A') (A')
                 (A') (A') (A') (A") (A") (A') (A") (A') (A') (A')
                 (A') (A') (A") (A') (A") (A') (A') (A') (A") (A')
                 (A') (A") (A') (A') (A") (A') (A') (A") (A') (A')
                 (A') (A') (A") (A") (A') (A') (A") (A") (A') (A')
                 (A") (A') (A') (A") (A') (A") (A') (A') (A') (A')
                 (A') (A') (A") (A") (A') (A') (A") (A') (A') (A")
                 (A") (A') (A") (A') (A') (A") (A') (A') (A") (A')
                 (A') (A") (A') (A") (A') (A') (A') (A") (A') (A")
                 (A') (A') (A') (A') (A') (A') (A") (A') (A") (A')
                 (A') (A") (A') (A") (A') (A') (A') (A') (A') (A')
                 (A') (A') (A')
 Requested convergence on RMS density matrix=1.00D-08 within  64 cycles.
 Requested convergence on MAX density matrix=1.00D-06.
 SCF Done:  E(RHF) =  -224.848922615     A.U. after   11 cycles
             Convg  =    0.5857D-08             -V/T =  2.0006
             S**2   =   0.0000
 ***** Axes restored to original set *****
 -------------------------------------------------------------------
 Center     Atomic                   Forces (Hartrees/Bohr)
 Number     Number              X              Y              Z
 -------------------------------------------------------------------
    1          7           0.000709177    0.000000000   -0.000034622
    2          1          -0.000196140    0.000000000    0.000548514
    3          6           0.000241928    0.000000000   -0.000155265
    4          1           0.000625685    0.000000000    0.000587751
    5          6          -0.001467384    0.000000000   -0.000001554
    6          1           0.000663304    0.000000000   -0.000594835
    7          1          -0.000784125    0.000000000    0.000118084
    8          6          -0.000116867    0.000000000   -0.000470487
    9          7           0.000324422    0.000000000    0.000002414
 -------------------------------------------------------------------
 Cartesian Forces:  Max     0.001467384 RMS     0.000454570

 GradGradGradGradGradGradGradGradGradGradGradGradGradGradGradGradGradGrad
 Berny optimization.
 Internal  Forces:  Max     0.000889257 RMS     0.000327635
 Search for a local minimum.
 Step number   5 out of a maximum of  48
 All quantities printed in internal units (Hartrees-Bohrs-Radians)
 Update second derivatives using information from points  1  2  3  4  5

 Trust test= 1.10D+00 RLast= 2.27D-02 DXMaxT set to 5.22D-01
     Eigenvalues ---    0.03205   0.03262   0.03287   0.03304   0.03349
     Eigenvalues ---    0.03405   0.15239   0.15919   0.16001   0.16036
     Eigenvalues ---    0.21763   0.29390   0.45961   0.49153   0.49626
     Eigenvalues ---    0.50507   0.56122   0.60187   0.64467   0.71746
     Eigenvalues ---    0.754741000.000001000.000001000.000001000.00000
     Eigenvalues --- 1000.000001000.000001000.000001000.000001000.00000
     Eigenvalues --- 1000.000001000.000001000.000001000.000001000.00000
     Eigenvalues --- 1000.000001000.000001000.00000
 RFO step:  Lambda=-6.91073653D-06.
 Quartic linear search produced a step of  0.11580.
 Iteration  1 RMS(Cart)=  0.00082537 RMS(Int)=  0.00000060
 Iteration  2 RMS(Cart)=  0.00000028 RMS(Int)=  0.00000054
 Variable       Old X    -DE/DX   Delta X   Delta X   Delta X     New X
                                 (Linear)    (Quad)   (Total)
    R1        2.59604   0.00039   0.00076   0.00031   0.00107   2.59711
    R2        2.44419  -0.00025  -0.00054   0.00008  -0.00047   2.44372
    R3        1.87908  -0.00058  -0.00024  -0.00086  -0.00110   1.87798
    R4        2.03089  -0.00085  -0.00028  -0.00161  -0.00189   2.02900
    R5        2.56260  -0.00058  -0.00067  -0.00049  -0.00116   2.56144
    R6        2.59757  -0.00045   0.00060  -0.00100  -0.00040   2.59717
    R7        2.03376  -0.00089  -0.00037  -0.00167  -0.00203   2.03173
    R8        2.03502  -0.00079  -0.00023  -0.00151  -0.00174   2.03328
    R9        2.55464  -0.00072   0.00011  -0.00119  -0.00107   2.55356
    A1        1.84048  -0.00023  -0.00084   0.00045  -0.00039   1.84009
    A2        2.30739  -0.00025   0.00008  -0.00154  -0.00146   2.30592
    A3        2.14049   0.00000  -0.00039   0.00087   0.00048   2.14097
    A4        1.83531   0.00025   0.00031   0.00068   0.00099   1.83630
    A5        1.92653  -0.00022   0.00031  -0.00104  -0.00073   1.92580
    A6        2.12369   0.00006  -0.00052   0.00051   0.00000   2.12369
    A7        2.23296   0.00017   0.00021   0.00052   0.00073   2.23369
    A8        2.19219  -0.00013  -0.00060   0.00004  -0.00057   2.19163
    A9        1.95608   0.00022   0.00117  -0.00042   0.00075   1.95683
   A10        2.13492  -0.00009  -0.00057   0.00038  -0.00019   2.13473
   A11        2.21456  -0.00004   0.00020  -0.00030  -0.00010   2.21446
   A12        2.20224   0.00006   0.00074  -0.00002   0.00072   2.20296
   A13        1.86638  -0.00002  -0.00095   0.00032  -0.00062   1.86576
    D1        0.00000   0.00000   0.00000   0.00000   0.00000   0.00000
    D2        3.14159   0.00000   0.00000   0.00000   0.00000   3.14159
    D3        3.14159   0.00000   0.00000   0.00000   0.00000   3.14159
    D4        0.00000   0.00000   0.00000   0.00000   0.00000   0.00000
    D5        3.14159   0.00000   0.00000   0.00000   0.00000   3.14159
    D6        0.00000   0.00000   0.00000   0.00000   0.00000   0.00000
    D7        0.00000   0.00000   0.00000   0.00000   0.00000   0.00000
    D8        3.14159   0.00000   0.00000   0.00000   0.00000   3.14159
    D9        0.00000   0.00000   0.00000   0.00000   0.00000   0.00000
   D10        3.14159   0.00000   0.00000   0.00000   0.00000   3.14159
   D11        3.14159   0.00000   0.00000   0.00000   0.00000   3.14159
   D12        0.00000   0.00000   0.00000   0.00000   0.00000   0.00000
   D13        3.14159   0.00000   0.00000   0.00000   0.00000   3.14159
   D14        0.00000   0.00000   0.00000   0.00000   0.00000   0.00000
   D15        0.00000   0.00000   0.00000   0.00000   0.00000   0.00000
   D16        3.14159   0.00000   0.00000   0.00000   0.00000   3.14159
         Item               Value     Threshold  Converged?
 Maximum Force            0.000889     0.000450     NO 
 RMS     Force            0.000328     0.000300     NO 
 Maximum Displacement     0.002601     0.001800     NO 
 RMS     Displacement     0.000825     0.001200     YES
 Predicted change in Energy=-4.442684D-06
 GradGradGradGradGradGradGradGradGradGradGradGradGradGradGradGradGradGrad

                          Input orientation:                          
 ---------------------------------------------------------------------
 Center     Atomic     Atomic              Coordinates (Angstroms)
 Number     Number      Type              X           Y           Z
 ---------------------------------------------------------------------
    1          7             0        0.499760    0.000000    1.112575
    2          1             0        0.497068    0.000000   -2.030913
    3          6             0       -1.015464    0.000000   -0.538235
    4          1             0       -1.898440    0.000000   -1.149121
    5          6             0       -0.839893    0.000000    0.805803
    6          1             0       -1.594494    0.000000    1.571646
    7          1             0        2.180756    0.000000   -0.161394
    8          6             0        1.113378    0.000000   -0.025729
    9          7             0        0.252862    0.000000   -1.067599
 ---------------------------------------------------------------------
                    Distance matrix (angstroms):
                    1          2          3          4          5
     1  N    0.000000
     2  H    3.143490   0.000000
     3  C    2.240776   2.125051   0.000000
     4  H    3.296458   2.552649   1.073699   0.000000
     5  C    1.374329   3.135989   1.355457   2.223117   0.000000
     6  H    2.143979   4.165701   2.187892   2.737691   1.075145
     7  H    2.109205   2.515931   3.218358   4.197076   3.171718
     8  C    1.293161   2.097761   2.189664   3.214507   2.122902
     9  N    2.194110   0.993786   1.374364   2.152846   2.168813
                    6          7          8          9
     6  H    0.000000
     7  H    4.154027   0.000000
     8  C    3.143911   1.075965   0.000000
     9  N    3.221542   2.130254   1.351288   0.000000
 Stoichiometry    C3H4N2
 Framework group  CS[SG(C3H4N2)]
 Deg. of freedom   15
 Full point group                 CS      NOp   2
 Largest Abelian subgroup         CS      NOp   2
 Largest concise Abelian subgroup C1      NOp   1
                         Standard orientation:                         
 ---------------------------------------------------------------------
 Center     Atomic     Atomic              Coordinates (Angstroms)
 Number     Number      Type              X           Y           Z
 ---------------------------------------------------------------------
    1          7             0       -0.742704   -0.967564    0.000000
    2          1             0       -0.015623    2.090685    0.000000
    3          6             0        1.112184    0.289603    0.000000
    4          1             0        2.112179    0.680551    0.000000
    5          6             0        0.631587   -0.977791    0.000000
    6          1             0        1.189376   -1.896926    0.000000
    7          1             0       -2.084845    0.659521    0.000000
    8          6             0       -1.077465    0.281516    0.000000
    9          7             0        0.000000    1.097021    0.000000
 ---------------------------------------------------------------------
 Rotational constants (GHZ):      9.8661304      9.6009568      4.8658688
 Isotopes: N-14,H-1,C-12,H-1,C-12,H-1,H-1,C-12,N-14
 Standard basis: Aug-CC-pVDZ (5D, 7F)
 There are   108 symmetry adapted basis functions of A'  symmetry.
 There are    43 symmetry adapted basis functions of A"  symmetry.
 Crude estimate of integral set expansion from redundant integrals=1.000.
 Integral buffers will be    262144 words long.
 Raffenetti 1 integral format.
 Two-electron integral symmetry is turned on.
   151 basis functions      269 primitive gaussians
    18 alpha electrons       18 beta electrons
       nuclear repulsion energy       164.5506670787 Hartrees.
 One-electron integrals computed using PRISM.
 NBasis=   151 RedAO= T  NBF=   108    43
 NBsUse=   151 1.00D-04 NBFU=   108    43
 Initial guess read from the read-write file:
 Initial guess orbital symmetries:
       Occupied  (A') (A') (A') (A') (A') (A') (A') (A') (A') (A')
                 (A') (A') (A') (A") (A') (A') (A") (A")
       Virtual   (A') (A') (A') (A') (A") (A') (A') (A") (A') (A')
                 (A") (A') (A') (A') (A") (A') (A") (A') (A') (A")
                 (A') (A') (A") (A') (A') (A') (A') (A") (A') (A')
                 (A') (A') (A') (A") (A") (A') (A") (A') (A') (A')
                 (A') (A') (A") (A') (A") (A') (A') (A') (A") (A')
                 (A') (A") (A') (A') (A') (A") (A') (A") (A') (A')
                 (A') (A') (A") (A") (A') (A') (A") (A") (A') (A')
                 (A") (A') (A') (A") (A') (A") (A') (A') (A') (A')
                 (A') (A') (A") (A") (A') (A') (A") (A') (A') (A")
                 (A") (A') (A") (A') (A') (A") (A') (A') (A") (A')
                 (A') (A") (A') (A") (A') (A') (A') (A") (A') (A")
                 (A') (A') (A') (A') (A') (A") (A') (A') (A") (A')
                 (A') (A") (A') (A") (A') (A') (A') (A') (A') (A')
                 (A') (A') (A')
 Requested convergence on RMS density matrix=1.00D-08 within  64 cycles.
 Requested convergence on MAX density matrix=1.00D-06.
 SCF Done:  E(RHF) =  -224.848927424     A.U. after    8 cycles
             Convg  =    0.8932D-08             -V/T =  2.0006
             S**2   =   0.0000
 ***** Axes restored to original set *****
 -------------------------------------------------------------------
 Center     Atomic                   Forces (Hartrees/Bohr)
 Number     Number              X              Y              Z
 -------------------------------------------------------------------
    1          7           0.000234636    0.000000000    0.000122852
    2          1          -0.000011412    0.000000000    0.000000959
    3          6           0.000156131    0.000000000   -0.000240502
    4          1           0.000023076    0.000000000    0.000046017
    5          6          -0.000263845    0.000000000   -0.000052524
    6          1           0.000075978    0.000000000   -0.000033990
    7          1          -0.000056306    0.000000000    0.000020710
    8          6           0.000001144    0.000000000   -0.000159197
    9          7          -0.000159403    0.000000000    0.000295675
 -------------------------------------------------------------------
 Cartesian Forces:  Max     0.000295675 RMS     0.000118043

 GradGradGradGradGradGradGradGradGradGradGradGradGradGradGradGradGradGrad
 Berny optimization.
 Internal  Forces:  Max     0.000231357 RMS     0.000063764
 Search for a local minimum.
 Step number   6 out of a maximum of  48
 All quantities printed in internal units (Hartrees-Bohrs-Radians)
 Update second derivatives using information from points  1  2  3  4  5
                                                        6
 Trust test= 1.08D+00 RLast= 4.73D-03 DXMaxT set to 5.22D-01
     Eigenvalues ---    0.03205   0.03262   0.03287   0.03305   0.03349
     Eigenvalues ---    0.03405   0.15150   0.15586   0.16007   0.16040
     Eigenvalues ---    0.23122   0.29329   0.42073   0.49002   0.49637
     Eigenvalues ---    0.50271   0.56475   0.59453   0.63235   0.73725
     Eigenvalues ---    0.760251000.000001000.000001000.000001000.00000
     Eigenvalues --- 1000.000001000.000001000.000001000.000001000.00000
     Eigenvalues --- 1000.000001000.000001000.000001000.000001000.00000
     Eigenvalues --- 1000.000001000.000001000.00000
 RFO step:  Lambda=-2.85475853D-07.
 Quartic linear search produced a step of  0.08850.
 Iteration  1 RMS(Cart)=  0.00015416 RMS(Int)=  0.00000002
 Iteration  2 RMS(Cart)=  0.00000002 RMS(Int)=  0.00000001
 Variable       Old X    -DE/DX   Delta X   Delta X   Delta X     New X
                                 (Linear)    (Quad)   (Total)
    R1        2.59711   0.00020   0.00009   0.00025   0.00034   2.59745
    R2        2.44372   0.00000  -0.00004   0.00004  -0.00001   2.44371
    R3        1.87798   0.00000  -0.00010   0.00004  -0.00005   1.87793
    R4        2.02900  -0.00005  -0.00017  -0.00001  -0.00018   2.02882
    R5        2.56144   0.00001  -0.00010   0.00009  -0.00001   2.56143
    R6        2.59717  -0.00023  -0.00004  -0.00036  -0.00040   2.59677
    R7        2.03173  -0.00008  -0.00018  -0.00008  -0.00026   2.03147
    R8        2.03328  -0.00006  -0.00015  -0.00005  -0.00020   2.03308
    R9        2.55356  -0.00009  -0.00009  -0.00012  -0.00021   2.55335
    A1        1.84009  -0.00011  -0.00003  -0.00024  -0.00028   1.83982
    A2        2.30592  -0.00001  -0.00013   0.00002  -0.00011   2.30581
    A3        2.14097   0.00004   0.00004   0.00027   0.00031   2.14128
    A4        1.83630  -0.00003   0.00009  -0.00029  -0.00020   1.83609
    A5        1.92580   0.00000  -0.00006   0.00020   0.00014   1.92594
    A6        2.12369  -0.00003   0.00000  -0.00028  -0.00028   2.12341
    A7        2.23369   0.00003   0.00006   0.00008   0.00014   2.23383
    A8        2.19163  -0.00002  -0.00005  -0.00006  -0.00011   2.19152
    A9        1.95683   0.00001   0.00007  -0.00006   0.00001   1.95684
   A10        2.13473   0.00001  -0.00002   0.00012   0.00010   2.13483
   A11        2.21446  -0.00007  -0.00001  -0.00024  -0.00025   2.21421
   A12        2.20296  -0.00005   0.00006  -0.00014  -0.00008   2.20288
   A13        1.86576   0.00013  -0.00005   0.00039   0.00033   1.86609
    D1        0.00000   0.00000   0.00000   0.00000   0.00000   0.00000
    D2        3.14159   0.00000   0.00000   0.00000   0.00000   3.14159
    D3        3.14159   0.00000   0.00000   0.00000   0.00000   3.14159
    D4        0.00000   0.00000   0.00000   0.00000   0.00000   0.00000
    D5        3.14159   0.00000   0.00000   0.00000   0.00000   3.14159
    D6        0.00000   0.00000   0.00000   0.00000   0.00000   0.00000
    D7        0.00000   0.00000   0.00000   0.00000   0.00000   0.00000
    D8        3.14159   0.00000   0.00000   0.00000   0.00000   3.14159
    D9        0.00000   0.00000   0.00000   0.00000   0.00000   0.00000
   D10        3.14159   0.00000   0.00000   0.00000   0.00000   3.14159
   D11        3.14159   0.00000   0.00000   0.00000   0.00000   3.14159
   D12        0.00000   0.00000   0.00000   0.00000   0.00000   0.00000
   D13        3.14159   0.00000   0.00000   0.00000   0.00000   3.14159
   D14        0.00000   0.00000   0.00000   0.00000   0.00000   0.00000
   D15        0.00000   0.00000   0.00000   0.00000   0.00000   0.00000
   D16        3.14159   0.00000   0.00000   0.00000   0.00000   3.14159
[...]
 Red. masses --     1.0942                 1.1085                 1.0829
 Frc consts  --     7.5036                 7.7384                 9.7522
 IR Inten    --     2.1563                 1.7504                94.6823
 Raman Activ --    77.4751                96.3960                82.4605
 Depolar     --     0.4630                 0.1531                 0.2198
 Atom AN      X      Y      Z        X      Y      Z        X      Y      Z
   1   7     0.00   0.00   0.00     0.00   0.00   0.00     0.00   0.00   0.00
   2   1    -0.01   0.00   0.00    -0.01  -0.01   0.00    -0.02   1.00   0.00
   3   6    -0.03  -0.01   0.00    -0.08  -0.03   0.00     0.00   0.00   0.00
   4   1     0.39   0.15   0.00     0.84   0.33   0.00     0.01   0.00   0.00
   5   6     0.04  -0.07   0.00    -0.02   0.04   0.00     0.00   0.00   0.00
   6   1    -0.44   0.73   0.00     0.21  -0.36   0.00     0.00   0.00   0.00
   7   1     0.29  -0.11   0.00    -0.06   0.02   0.00    -0.01   0.00   0.00
   8   6    -0.03   0.01   0.00     0.01   0.00   0.00     0.00   0.00   0.00
   9   7     0.00   0.00   0.00     0.00   0.00   0.00     0.00  -0.08   0.00

 -------------------
 - Thermochemistry -
 -------------------
 Temperature   298.150 Kelvin.  Pressure   1.00000 Atm.
 Atom  1 has atomic number  7 and mass  14.00307
 Atom  2 has atomic number  1 and mass   1.00783
 Atom  3 has atomic number  6 and mass  12.00000
 Atom  4 has atomic number  1 and mass   1.00783
 Atom  5 has atomic number  6 and mass  12.00000
 Atom  6 has atomic number  1 and mass   1.00783
 Atom  7 has atomic number  1 and mass   1.00783
 Atom  8 has atomic number  6 and mass  12.00000
 Atom  9 has atomic number  7 and mass  14.00307
 Molecular mass:    68.03745 amu.
 Principal axes and moments of inertia in atomic units:
                           1         2         3
     EIGENVALUES --   182.92290 187.97514 370.89804
           X            0.49296   0.87005   0.00000
           Y            0.87005  -0.49296   0.00000
           Z            0.00000   0.00000   1.00000
 THIS MOLECULE IS AN ASYMMETRIC TOP.
 ROTATIONAL SYMMETRY NUMBER  1.
 ROTATIONAL TEMPERATURES (KELVIN)      0.47350     0.46077     0.23352
 ROTATIONAL CONSTANTS (GHZ)            9.86613     9.60096     4.86587
 Zero-point vibrational energy     200179.8 (Joules/Mol)
                                   47.84413 (Kcal/Mol)
 WARNING-- EXPLICIT CONSIDERATION OF   1 DEGREES OF FREEDOM AS
           VIBRATIONS MAY CAUSE SIGNIFICANT ERROR
 VIBRATIONAL TEMPERATURES:    779.71   986.72  1043.15  1196.21  1389.12
          (KELVIN)           1405.61  1427.61  1458.74  1642.13  1682.57
                             1753.55  1780.33  1998.23  2131.29  2258.26
                             2359.32  2468.78  4904.42  4908.53  4952.52
                             5625.12
 
 Zero-point correction=                           0.076244 (Hartree/Particle)
 Thermal correction to Energy=                    0.079810
 Thermal correction to Enthalpy=                  0.080754
 Thermal correction to Gibbs Free Energy=         0.050063
 Sum of electronic and zero-point Energies=           -224.772683
 Sum of electronic and thermal Energies=              -224.769117
 Sum of electronic and thermal Enthalpies=            -224.768173
 Sum of electronic and thermal Free Energies=         -224.798865
 
                     E (Thermal)             CV                S
                      KCAL/MOL        CAL/MOL-KELVIN    CAL/MOL-KELVIN
 TOTAL                   50.082             12.101             64.595
 ELECTRONIC               0.000              0.000              0.000
 TRANSLATIONAL            0.889              2.981             38.570
 ROTATIONAL               0.889              2.981             24.060
 VIBRATIONAL             48.304              6.140              1.965
 VIBRATION  1             0.897              1.157              0.561
                       Q            LOG10(Q)             LN(Q)
 TOTAL BOT       0.939337D-23        -23.027178        -53.022038
 TOTAL V=0       0.110308D+13         12.042608         27.729130
 VIB (BOT)       0.105336D-34        -34.977422        -80.538490
 VIB (BOT)  1    0.291821D+00         -0.534884         -1.231615
 VIB (V=0)       0.123699D+01          0.092365          0.212677
 VIB (V=0)  1    0.107893D+01          0.032993          0.075969
 ELECTRONIC      0.100000D+01          0.000000          0.000000
 TRANSLATIONAL   0.220588D+08          7.343582         16.909224
 ROTATIONAL      0.404260D+05          4.606661         10.607229
 ***** Axes restored to original set *****
 -------------------------------------------------------------------
 Center     Atomic                   Forces (Hartrees/Bohr)
 Number     Number              X              Y              Z
 -------------------------------------------------------------------
    1          7           0.000234692    0.000000000    0.000122876
    2          1          -0.000011418    0.000000000    0.000000969
    3          6           0.000156061    0.000000000   -0.000240532
    4          1           0.000023059    0.000000000    0.000046018
    5          6          -0.000263861    0.000000000   -0.000052499
    6          1           0.000075964    0.000000000   -0.000033984
    7          1          -0.000056335    0.000000000    0.000020713
    8          6           0.000001151    0.000000000   -0.000159224
    9          7          -0.000159314    0.000000000    0.000295662
 -------------------------------------------------------------------
 Cartesian Forces:  Max     0.000295662 RMS     0.000118044

 GradGradGradGradGradGradGradGradGradGradGradGradGradGradGradGradGradGrad
 Berny optimization.
 Internal  Forces:  Max     0.000231290 RMS     0.000063763
 Search for a local minimum.
 Step number   1 out of a maximum of  48
 All quantities printed in internal units (Hartrees-Bohrs-Radians)
 Second derivative matrix not updated -- analytic derivatives used.
     Eigenvalues ---    0.00551   0.01447   0.02670   0.03346   0.06791
     Eigenvalues ---    0.07095   0.11195   0.12001   0.12434   0.13583
     Eigenvalues ---    0.26162   0.27558   0.39524   0.40845   0.41126
     Eigenvalues ---    0.41417   0.46889   0.49322   0.54334   0.55170
     Eigenvalues ---    0.681071000.000001000.000001000.000001000.00000
     Eigenvalues --- 1000.000001000.000001000.000001000.000001000.00000
     Eigenvalues --- 1000.000001000.000001000.000001000.000001000.00000
     Eigenvalues --- 1000.000001000.000001000.00000
 Angle between quadratic step and forces=  23.97 degrees.
 Linear search not attempted -- first point.
 Iteration  1 RMS(Cart)=  0.00014249 RMS(Int)=  0.00000002
 Iteration  2 RMS(Cart)=  0.00000002 RMS(Int)=  0.00000001
 Variable       Old X    -DE/DX   Delta X   Delta X   Delta X     New X
                                 (Linear)    (Quad)   (Total)
    R1        2.59711   0.00020   0.00000   0.00053   0.00053   2.59764
    R2        2.44372   0.00000   0.00000   0.00006   0.00006   2.44377
    R3        1.87798   0.00000   0.00000   0.00000   0.00000   1.87799
    R4        2.02900  -0.00005   0.00000  -0.00011  -0.00011   2.02888
    R5        2.56144   0.00001   0.00000   0.00005   0.00005   2.56149
    R6        2.59717  -0.00023   0.00000  -0.00057  -0.00057   2.59660
    R7        2.03173  -0.00008   0.00000  -0.00020  -0.00020   2.03153
    R8        2.03328  -0.00006   0.00000  -0.00014  -0.00014   2.03314
    R9        2.55356  -0.00009   0.00000  -0.00023  -0.00023   2.55333
    A1        1.84009  -0.00011   0.00000  -0.00025  -0.00025   1.83984
    A2        2.30592  -0.00001   0.00000  -0.00025  -0.00025   2.30567
    A3        2.14097   0.00004   0.00000   0.00029   0.00029   2.14126
    A4        1.83630  -0.00003   0.00000  -0.00004  -0.00004   1.83626
    A5        1.92580   0.00000   0.00000  -0.00005  -0.00005   1.92575
    A6        2.12369  -0.00003   0.00000  -0.00030  -0.00030   2.12339
    A7        2.23369   0.00003   0.00000   0.00035   0.00035   2.23404
    A8        2.19163  -0.00002   0.00000  -0.00009  -0.00009   2.19154
    A9        1.95683   0.00001   0.00000   0.00000   0.00000   1.95683
   A10        2.13473   0.00001   0.00000   0.00009   0.00009   2.13482
   A11        2.21446  -0.00007   0.00000  -0.00022  -0.00022   2.21424
   A12        2.20296  -0.00005   0.00000  -0.00011  -0.00011   2.20285
   A13        1.86576   0.00013   0.00000   0.00033   0.00033   1.86609
    D1        0.00000   0.00000   0.00000   0.00000   0.00000   0.00000
    D2        3.14159   0.00000   0.00000   0.00000   0.00000   3.14159
    D3        3.14159   0.00000   0.00000   0.00000   0.00000   3.14159
    D4        0.00000   0.00000   0.00000   0.00000   0.00000   0.00000
    D5        3.14159   0.00000   0.00000   0.00000   0.00000   3.14159
    D6        0.00000   0.00000   0.00000   0.00000   0.00000   0.00000
    D7        0.00000   0.00000   0.00000   0.00000   0.00000   0.00000
    D8        3.14159   0.00000   0.00000   0.00000   0.00000   3.14159
    D9        0.00000   0.00000   0.00000   0.00000   0.00000   0.00000
   D10        3.14159   0.00000   0.00000   0.00000   0.00000   3.14159
   D11        3.14159   0.00000   0.00000   0.00000   0.00000   3.14159
   D12        0.00000   0.00000   0.00000   0.00000   0.00000   0.00000
   D13        3.14159   0.00000   0.00000   0.00000   0.00000   3.14159
   D14        0.00000   0.00000   0.00000   0.00000   0.00000   0.00000
   D15        0.00000   0.00000   0.00000   0.00000   0.00000   0.00000
   D16        3.14159   0.00000   0.00000   0.00000   0.00000   3.14159
         Item               Value     Threshold  Converged?
 Maximum Force            0.000231     0.000450     YES
 RMS     Force            0.000064     0.000300     YES
 Maximum Displacement     0.000363     0.001800     YES
 RMS     Displacement     0.000143     0.001200     YES
 Predicted change in Energy=-2.091606D-07
 Optimization completed.
    -- Stationary point found.
                         ----------------------------
                         !   Optimized Parameters   !
                         ! (Angstroms and Degrees)  !
 ------------------------                            -------------------------
 ! Name  Definition              Value          Derivative Info.             !
 -----------------------------------------------------------------------------
 ! R1    R(1,5)                  1.3743         -DE/DX =    0.0002           !
 ! R2    R(1,8)                  1.2932         -DE/DX =    0.               !
 ! R3    R(2,9)                  0.9938         -DE/DX =    0.               !
 ! R4    R(3,4)                  1.0737         -DE/DX =    0.               !
 ! R5    R(3,5)                  1.3555         -DE/DX =    0.               !
 ! R6    R(3,9)                  1.3744         -DE/DX =   -0.0002           !
 ! R7    R(5,6)                  1.0751         -DE/DX =   -0.0001           !
 ! R8    R(7,8)                  1.076          -DE/DX =   -0.0001           !
 ! R9    R(8,9)                  1.3513         -DE/DX =   -0.0001           !
 ! A1    A(5,1,8)              105.4295         -DE/DX =   -0.0001           !
 ! A2    A(4,3,5)              132.1197         -DE/DX =    0.               !
 ! A3    A(4,3,9)              122.6683         -DE/DX =    0.               !
 ! A4    A(5,3,9)              105.212          -DE/DX =    0.               !
 ! A5    A(1,5,3)              110.3404         -DE/DX =    0.               !
 ! A6    A(1,5,6)              121.6784         -DE/DX =    0.               !
 ! A7    A(3,5,6)              127.9813         -DE/DX =    0.               !
 ! A8    A(1,8,7)              125.571          -DE/DX =    0.               !
 ! A9    A(1,8,9)              112.1181         -DE/DX =    0.               !
 ! A10   A(7,8,9)              122.311          -DE/DX =    0.               !
 ! A11   A(2,9,3)              126.8795         -DE/DX =   -0.0001           !
 ! A12   A(2,9,8)              126.2204         -DE/DX =   -0.0001           !
 ! A13   A(3,9,8)              106.9002         -DE/DX =    0.0001           !
 ! D1    D(8,1,5,3)              0.             -DE/DX =    0.               !
 ! D2    D(8,1,5,6)            180.             -DE/DX =    0.               !
 ! D3    D(5,1,8,7)            180.             -DE/DX =    0.               !
 ! D4    D(5,1,8,9)              0.             -DE/DX =    0.               !
 ! D5    D(4,3,5,1)            180.             -DE/DX =    0.               !
 ! D6    D(4,3,5,6)              0.             -DE/DX =    0.               !
 ! D7    D(9,3,5,1)              0.             -DE/DX =    0.               !
 ! D8    D(9,3,5,6)            180.             -DE/DX =    0.               !
 ! D9    D(4,3,9,2)              0.             -DE/DX =    0.               !
 ! D10   D(4,3,9,8)            180.             -DE/DX =    0.               !
 ! D11   D(5,3,9,2)            180.             -DE/DX =    0.               !
 ! D12   D(5,3,9,8)              0.             -DE/DX =    0.               !
 ! D13   D(1,8,9,2)            180.             -DE/DX =    0.               !
 ! D14   D(1,8,9,3)              0.             -DE/DX =    0.               !
 ! D15   D(7,8,9,2)              0.             -DE/DX =    0.               !
 ! D16   D(7,8,9,3)            180.             -DE/DX =    0.               !
 -----------------------------------------------------------------------------
 GradGradGradGradGradGradGradGradGradGradGradGradGradGradGradGradGradGrad

 1\1\GINC-PLUMBUM\Freq\RHF\Aug-CC-pVDZ\C3H4N2\RDJ3\27-Jul-2001\0\\#N GE
 OM=ALLCHECK GUESS=TCHECK RHF/AUG-CC-PVDZ FREQ\\1H imidazole C3H4N2 cas
 no=288324\\0,1\N,0.4997221006,0.,1.1126840702\H,0.4970295768,0.,-2.030
 8048114\C,-1.0155018229,0.,-0.5381258945\H,-1.8984784512,0.,-1.1490120
 287\C,-0.8399312324,0.,0.8059119258\H,-1.5945320349,0.,1.5717542393\H,
 2.1807182154,0.,-0.1612854173\C,1.1133399645,0.,-0.0256207509\N,0.2528
 237907,0.,-1.0674903078\\Version=IBM-RS6000-G98RevA.6\State=1-A'\HF=-2
 24.8489274\RMSD=2.777e-09\RMSF=1.180e-04\Dipole=-0.0827154,0.,-1.49665
 35\DipoleDeriv=-0.4906674,0.,-0.0325343,0.,-0.3430204,0.,0.0739599,0.,
 -0.6373265,0.1824958,0.,-0.0071508,0.,0.3389477,0.,-0.0128984,0.,0.263
 2104,-0.0040268,0.,-0.3235762,0.,-0.1738395,0.,-0.0759843,0.,0.1944049
 ,0.015022,0.,-0.0379737,0.,0.2152954,0.,-0.0487643,0.,0.0471903,0.2577
 178,0.,0.0244611,0.,-0.154578,0.,-0.069986,0.,0.136497,-0.0107063,0.,0
 .0611611,0.,0.1792823,0.,0.0735239,0.,0.0378993,-0.0200049,0.,0.035199
 5,0.,0.1619613,0.,0.0279458,0.,0.0701777,0.2090253,0.,0.0851344,0.,0.0
 591101,0.,-0.0158286,0.,0.6703852,-0.1388557,0.,0.1952789,0.,-0.283158
 9,0.,0.0480319,0.,-0.7824384\Polar=53.3515738,0.,32.9982199,-0.1063607
 ,0.,51.6754935\PolarDeriv=-11.8565708,0.,-0.5579591,-1.8951313,0.,4.56
 86909,0.,0.4537826,0.,0.,2.1962899,0.,7.7373293,0.,3.5345547,2.1837332
 ,0.,6.4175943,0.7680432,0.,0.133854,-1.5231491,0.,1.6021409,0.,0.07787
 71,0.,0.,-0.5296091,0.,-1.4844333,0.,-0.8467756,1.6134213,0.,-8.685441
 1,1.8459315,0.,-1.3225289,-1.418559,0.,-1.5633657,0.,-4.3234428,0.,0.,
 -4.2399401,0.,-10.0491152,0.,-7.2105905,-1.5067998,0.,-5.6207145,-6.60
 84014,0.,-0.6632076,-3.1522758,0.,-2.4256773,0.,0.4658438,0.,0.,0.5313
 282,0.,-2.8116404,0.,-0.1651808,-2.5822219,0.,-3.2444187,9.1051582,0.,
 -0.2414082,2.4525236,0.,-2.6578622,0.,-1.7147297,0.,0.,4.4653822,0.,10
 .7351142,0.,7.2915686,3.7186847,0.,5.4970191,-4.5206523,0.,-0.5688551,
 3.3723357,0.,-2.8541563,0.,-0.1829841,0.,0.,-0.3438788,0.,2.8858936,0.
 ,0.3551611,-2.8932991,0.,4.8837642,9.6749627,0.,0.9030585,-0.904299,0.
 ,1.0387881,0.,-0.1914618,0.,0.,0.0200735,0.,-0.8976981,0.,-0.0667461,1
 .527781,0.,-0.4028212,6.8521243,0.,2.9617819,0.1222281,0.,2.5038173,0.
 ,5.0149137,0.,0.,-0.5789287,0.,-6.3648329,0.,-1.6906262,-2.4343146,0.,
 1.0995354,-5.2605954,0.,-0.6447355,2.9463268,0.,-0.2123756,0.,0.400201
 2,0.,0.,-1.520717,0.,0.2493828,0.,-1.2013651,0.3730151,0.,0.0554824\Hy
 perPolar=51.6785557,0.,-40.2837229,0.,-17.9256941,0.,5.2535404,-33.589
 6948,0.,18.1142599\PG=CS [SG(C3H4N2)]\NImag=0\\0.55708100,0.,0.1215195
 9,-0.07310632,0.,0.69946762,-0.00281752,0.,-0.01021516,0.09651365,0.,0
 .00765291,0.,0.,0.01204928,-0.00433137,0.,-0.00229131,-0.11284526,0.,0
 .51410691,-0.03483349,0.,-0.01284016,0.01087641,0.,-0.00168496,0.82602
 296,0.,0.01997574,0.,0.,-0.00847341,0.,0.,0.13811889,-0.10315475,0.,-0
 .02142057,0.03065382,0.,-0.00035326,0.18986830,0.,0.85890233,0.0028912
 9,0.,0.00069280,0.00029612,0.,0.00017123,-0.28606386,0.,-0.15046231,0.
 29980978,0.,0.00834344,0.,0.,-0.00116415,0.,0.,-0.02973953,0.,0.,0.023
 50103,-0.00453569,0.,-0.00614642,-0.00133540,0.,0.00018235,-0.16097820
 ,0.,-0.18299614,0.16574550,0.,0.17234483,-0.28237396,0.,-0.04781756,-0
 .01002594,0.,0.00016697,-0.12346030,0.,-0.02480785,0.00614251,0.,-0.02
 500753,0.74256992,0.,-0.08335700,0.,0.,0.00225864,0.,0.,-0.08161669,0.
 ,0.,0.00074845,0.,0.,0.16436316,-0.04788590,0.,-0.13812067,0.00393414,
 0.,0.00190100,-0.04898468,0.,-0.46713957,0.00184914,0.,0.00352747,-0.1
 6967503,0.,0.92051187,-0.01844004,0.,0.02497492,0.00086352,0.,-0.00001
 261,0.01040338,0.,-0.00628566,-0.00041803,0.,0.00091618,-0.21832536,0.
 ,0.15890870,0.23193276,0.,-0.00388237,0.,0.,0.00236786,0.,0.,0.0015223
 5,0.,0.,-0.00302648,0.,0.,-0.03825257,0.,0.,0.02837979,-0.00845785,0.,
 0.01370142,0.00136747,0.,0.00026426,0.02369709,0.,-0.00674530,-0.00067
 828,0.,-0.00004184,0.16317219,0.,-0.24111704,-0.17375953,0.,0.23931004
 ,-0.00892399,0.,0.00228914,-0.00057467,0.,-0.00057005,0.00139084,0.,-0
 .00425252,-0.00041704,0.,0.00043940,0.00179298,0.,0.00344514,-0.000374
 64,0.,-0.00023735,0.40282261,0.,-0.00293268,0.,0.,-0.00170502,0.,0.,0.
 00331583,0.,0.,0.00188510,0.,0.,0.00889098,0.,0.,0.00088315,0.,0.,0.02
 871581,0.03394614,0.,0.00246813,0.00083789,0.,0.00054071,-0.00086652,0
 .,-0.00685902,-0.00118457,0.,0.00108921,0.00329595,0.,-0.00499519,0.00
 154293,0.,0.00073299,-0.04125155,0.,0.07120911,-0.21443661,0.,0.153310
 34,0.02273613,0.,0.01494833,-0.10416369,0.,0.00261875,-0.00353006,0.,0
 .00470896,-0.09078092,0.,0.02097766,-0.00716982,0.,-0.00414191,-0.3818
 8822,0.,0.03774533,1.02574951,0.,-0.09449913,0.,0.,-0.00923622,0.,0.,0
 .01799894,0.,0.,0.00307156,0.,0.,0.01169538,0.,0.,0.00544359,0.,0.,-0.
 04018825,0.,0.,0.18051733,0.15640287,0.,-0.41985557,-0.01792224,0.,-0.
 01140626,-0.05468283,0.,-0.01692629,0.00591490,0.,-0.00540552,0.100268
 17,0.,0.01302970,-0.00312720,0.,0.00054463,0.03415609,0.,-0.07370760,-
 0.11186312,0.,0.75943966,0.00185332,0.,-0.03728799,-0.11786768,0.,0.10
 415772,-0.30017225,0.,0.06582221,-0.01871071,0.,0.02004678,-0.02553893
 ,0.,0.07743084,0.00152824,0.,-0.00096184,-0.01382787,0.,-0.03406561,-0
 .24651632,0.,-0.10914665,0.71925220,0.,0.02717949,0.,0.,-0.00374989,0.
 ,0.,-0.06110210,0.,0.,-0.00361942,0.,0.,0.01526965,0.,0.,0.00656467,0.
 ,0.,0.00113509,0.,0.,-0.07480322,0.,0.,0.09312572,0.05112287,0.,-0.127
 80264,0.10552474,0.,-0.50294439,0.06647197,0.,-0.15646217,-0.02204843,
 0.,0.01744606,0.00040468,0.,-0.08759756,-0.00315773,0.,-0.00664915,0.0
 0598170,0.,0.00952166,-0.11830434,0.,-0.24571275,-0.08599546,0.,1.1002
 0093\\-0.00023469,0.,-0.00012288,0.00001142,0.,-0.00000097,-0.00015606
 ,0.,0.00024053,-0.00002306,0.,-0.00004602,0.00026386,0.,0.00005250,-0.
 00007596,0.,0.00003398,0.00005634,0.,-0.00002071,-0.00000115,0.,0.0001
 5922,0.00015931,0.,-0.00029566\\\@


 THE CHYMISTS ARE A STRANGE CLASS OF MORTALS IMPELLED
 BY AN ALMOST INSANE IMPULSE TO SEEK THEIR PLEASURE
 AMONG SMOKE AND VAPOR, SOOT AND FLAME, POISONS AND
 POVERTY; YET AMONG ALL THESE EVILS I SEEM TO LIVE
 SO SWEETLY, THAT I MAY DIE IF I WOULD CHANGE PLACES
 WITH THE PERSIAN KING.
   --  JOHANN JOACHIM BECHER, 1635-1682
 ACTA LABORATORII CHYMICA MONACENSIS, 1669
 Job cpu time:  0 days  1 hours 13 minutes 59.2 seconds.
 File lengths (MBytes):  RWF=   35 Int=    0 D2E=    0 Chk=    4 Scr=    1
 Normal termination of Gaussian 98.
