 Entering Link 1 = C:\G03W\l1.exe PID=    281840.
  
 Copyright (c) 1988,1990,1992,1993,1995,1998,2003, Gaussian, Inc.
                  All Rights Reserved.
  
 This is the Gaussian(R) 03 program.  It is based on the
 the Gaussian(R) 98 system (copyright 1998, Gaussian, Inc.),
 the Gaussian(R) 94 system (copyright 1995, Gaussian, Inc.),
 the Gaussian 92(TM) system (copyright 1992, Gaussian, Inc.),
 the Gaussian 90(TM) system (copyright 1990, Gaussian, Inc.),
 the Gaussian 88(TM) system (copyright 1988, Gaussian, Inc.),
 the Gaussian 86(TM) system (copyright 1986, Carnegie Mellon
 University), and the Gaussian 82(TM) system (copyright 1983,
 Carnegie Mellon University). Gaussian is a federally registered
 trademark of Gaussian, Inc.
  
 This software contains proprietary and confidential information,
 including trade secrets, belonging to Gaussian, Inc.
  
 This software is provided under written license and may be
 used, copied, transmitted, or stored only in accord with that
 written license.
  
 The following legend is applicable only to US Government
 contracts under DFARS:
  
                    RESTRICTED RIGHTS LEGEND
  
 Use, duplication or disclosure by the US Government is subject
 to restrictions as set forth in subparagraph (c)(1)(ii) of the
 Rights in Technical Data and Computer Software clause at DFARS
 252.227-7013.
  
 Gaussian, Inc.
 Carnegie Office Park, Building 6, Pittsburgh, PA 15106 USA
  
 The following legend is applicable only to US Government
 contracts under FAR:
  
                    RESTRICTED RIGHTS LEGEND
  
 Use, reproduction and disclosure by the US Government is subject
 to restrictions as set forth in subparagraph (c) of the
 Commercial Computer Software - Restricted Rights clause at FAR
 52.227-19.
  
 Gaussian, Inc.
 Carnegie Office Park, Building 6, Pittsburgh, PA 15106 USA
  
  
 ---------------------------------------------------------------
 Warning -- This program may not be used in any manner that
 competes with the business of Gaussian, Inc. or will provide
 assistance to any competitor of Gaussian, Inc.  The licensee
 of this program is prohibited from giving any competitor of
 Gaussian, Inc. access to this program.  By using this program,
 the user acknowledges that Gaussian, Inc. is engaged in the
 business of creating and licensing software in the field of
 computational chemistry and represents and warrants to the
 licensee that it is not a competitor of Gaussian, Inc. and that
 it will not use this program in any manner prohibited above.
 ---------------------------------------------------------------
  

 Cite this work as:
 Gaussian 03, Revision B.05,
 M. J. Frisch, G. W. Trucks, H. B. Schlegel, G. E. Scuseria, 
 M. A. Robb, J. R. Cheeseman, J. A. Montgomery, Jr., T. Vreven, 
 K. N. Kudin, J. C. Burant, J. M. Millam, S. S. Iyengar, J. Tomasi, 
 V. Barone, B. Mennucci, M. Cossi, G. Scalmani, N. Rega, 
 G. A. Petersson, H. Nakatsuji, M. Hada, M. Ehara, K. Toyota, 
 R. Fukuda, J. Hasegawa, M. Ishida, T. Nakajima, Y. Honda, O. Kitao, 
 H. Nakai, M. Klene, X. Li, J. E. Knox, H. P. Hratchian, J. B. Cross, 
 C. Adamo, J. Jaramillo, R. Gomperts, R. E. Stratmann, O. Yazyev, 
 A. J. Austin, R. Cammi, C. Pomelli, J. W. Ochterski, P. Y. Ayala, 
 K. Morokuma, G. A. Voth, P. Salvador, J. J. Dannenberg, 
 V. G. Zakrzewski, S. Dapprich, A. D. Daniels, M. C. Strain, 
 O. Farkas, D. K. Malick, A. D. Rabuck, K. Raghavachari, 
 J. B. Foresman, J. V. Ortiz, Q. Cui, A. G. Baboul, S. Clifford, 
 J. Cioslowski, B. B. Stefanov, G. Liu, A. Liashenko, P. Piskorz, 
 I. Komaromi, R. L. Martin, D. J. Fox, T. Keith, M. A. Al-Laham, 
 C. Y. Peng, A. Nanayakkara, M. Challacombe, P. M. W. Gill, 
 B. Johnson, W. Chen, M. W. Wong, C. Gonzalez, and J. A. Pople, 
 Gaussian, Inc., Pittsburgh PA, 2003.
 
 **********************************************
 Gaussian 03:  x86-Win32-G03RevB.05  8-Nov-2003
                  23-Jul-2004 
 **********************************************
 %mem=56000000
 Default route:  MaxDisk=6000MB MP2=InCore
 -------------------
 #HF/STO-3G opt freq
 -------------------
 1/18=20,38=1/1,3;
 2/9=110,17=6,18=5,40=1/2;
 3/6=3,11=9,16=1,25=1,30=1/1,2,3;
 4//1;
 5/5=2,38=5/2;
 6/7=2,8=2,9=2,10=2,28=1/1;
 7//1,2,3,16;
 1/18=20/3(1);
 99//99;
 2/9=110/2;
 3/6=3,11=9,16=1,25=1,30=1/1,2,3;
 4/5=5,16=3/1;
 5/5=2,38=5/2;
 7//1,2,3,16;
 1/18=20/3(-5);
 2/9=110/2;
 6/7=2,8=2,9=2,10=2,19=2,28=1/1;
 99/9=1/99;
 ----------------------------------------------------
 1himidaz 1H-Imidazole casno=288324 method=1 basis=20
 ----------------------------------------------------
 Symbolic Z-matrix:
 Charge =  0 Multiplicity = 1
 N                    -0.74624  -0.96754   0. 
 H                    -0.00102   2.09728   0. 
 C                     1.11782   0.28524   0. 
 H                     2.10821   0.67107   0. 
 C                     0.6474   -0.98273   0. 
 H                     1.19398  -1.89369   0. 
 H                    -2.09203   0.65661   0. 
 C                    -1.09612   0.28423   0. 
 N                     0.        1.10301   0. 
 

 GradGradGradGradGradGradGradGradGradGradGradGradGradGradGradGradGradGrad
 Berny optimization.
 Initialization pass.
                           ----------------------------
                           !    Initial Parameters    !
                           ! (Angstroms and Degrees)  !
 --------------------------                            --------------------------
 ! Name  Definition              Value          Derivative Info.                !
 --------------------------------------------------------------------------------
 ! R1    R(1,5)                  1.3937         estimate D2E/DX2                !
 ! R2    R(1,8)                  1.2998         estimate D2E/DX2                !
 ! R3    R(2,9)                  0.9943         estimate D2E/DX2                !
 ! R4    R(3,4)                  1.0629         estimate D2E/DX2                !
 ! R5    R(3,5)                  1.3524         estimate D2E/DX2                !
 ! R6    R(3,9)                  1.385          estimate D2E/DX2                !
 ! R7    R(5,6)                  1.0624         estimate D2E/DX2                !
 ! R8    R(7,8)                  1.0632         estimate D2E/DX2                !
 ! R9    R(8,9)                  1.3682         estimate D2E/DX2                !
 ! A1    A(5,1,8)              106.2404         estimate D2E/DX2                !
 ! A2    A(4,3,5)              131.6391         estimate D2E/DX2                !
 ! A3    A(4,3,9)              122.5274         estimate D2E/DX2                !
 ! A4    A(5,3,9)              105.8335         estimate D2E/DX2                !
 ! A5    A(1,5,3)              109.7304         estimate D2E/DX2                !
 ! A6    A(1,5,6)              121.5885         estimate D2E/DX2                !
 ! A7    A(3,5,6)              128.6811         estimate D2E/DX2                !
 ! A8    A(1,8,7)              126.1173         estimate D2E/DX2                !
 ! A9    A(1,8,9)              111.1428         estimate D2E/DX2                !
 ! A10   A(7,8,9)              122.7399         estimate D2E/DX2                !
 ! A11   A(2,9,3)              126.2473         estimate D2E/DX2                !
 ! A12   A(2,9,8)              126.6998         estimate D2E/DX2                !
 ! A13   A(3,9,8)              107.0529         estimate D2E/DX2                !
 ! D1    D(8,1,5,3)              0.0            estimate D2E/DX2                !
 ! D2    D(8,1,5,6)            180.0            estimate D2E/DX2                !
 ! D3    D(5,1,8,7)            180.0            estimate D2E/DX2                !
 ! D4    D(5,1,8,9)              0.0            estimate D2E/DX2                !
 ! D5    D(4,3,5,1)            180.0            estimate D2E/DX2                !
 ! D6    D(4,3,5,6)              0.0            estimate D2E/DX2                !
 ! D7    D(9,3,5,1)              0.0            estimate D2E/DX2                !
 ! D8    D(9,3,5,6)            180.0            estimate D2E/DX2                !
 ! D9    D(4,3,9,2)              0.0            estimate D2E/DX2                !
 ! D10   D(4,3,9,8)            180.0            estimate D2E/DX2                !
 ! D11   D(5,3,9,2)            180.0            estimate D2E/DX2                !
 ! D12   D(5,3,9,8)              0.0            estimate D2E/DX2                !
 ! D13   D(1,8,9,2)            180.0            estimate D2E/DX2                !
 ! D14   D(1,8,9,3)              0.0            estimate D2E/DX2                !
 ! D15   D(7,8,9,2)              0.0            estimate D2E/DX2                !
 ! D16   D(7,8,9,3)            180.0            estimate D2E/DX2                !
 --------------------------------------------------------------------------------
 Trust Radius=3.00D-01 FncErr=1.00D-07 GrdErr=1.00D-07
 Number of steps in this run=  48 maximum allowed number of steps= 100.
 GradGradGradGradGradGradGradGradGradGradGradGradGradGradGradGradGradGrad

                          Input orientation:                          
 ---------------------------------------------------------------------
 Center     Atomic     Atomic              Coordinates (Angstroms)
 Number     Number      Type              X           Y           Z
 ---------------------------------------------------------------------
    1          7             0       -0.746242   -0.967544    0.000000
    2          1             0       -0.001024    2.097278    0.000000
    3          6             0        1.117815    0.285244    0.000000
    4          1             0        2.108213    0.671072    0.000000
    5          6             0        0.647399   -0.982731    0.000000
    6          1             0        1.193984   -1.893692    0.000000
    7          1             0       -2.092028    0.656612    0.000000
    8          6             0       -1.096122    0.284233    0.000000
    9          7             0        0.000000    1.103009    0.000000
 ---------------------------------------------------------------------
                    Distance matrix (angstroms):
                    1          2          3          4          5
     1  N    0.000000
     2  H    3.154122   0.000000
     3  C    2.245927   2.129617   0.000000
     4  H    3.291349   2.546163   1.062898   0.000000
     5  C    1.393724   3.147524   1.352424   2.206591   0.000000
     6  H    2.149937   4.166040   2.180267   2.722835   1.062358
     7  H    2.109271   2.539255   3.231255   4.200266   3.192476
     8  C    1.299754   2.118106   2.213937   3.227601   2.155241
     9  N    2.200924   0.994270   1.385009   2.152006   2.183904
                    6          7          8          9
     6  H    0.000000
     7  H    4.159558   0.000000
     8  C    3.160371   1.063247   0.000000
     9  N    3.225805   2.139124   1.368166   0.000000
 Stoichiometry    C3H4N2
 Framework group  CS[SG(C3H4N2)]
 Deg. of freedom    15
 Full point group                 CS      NOp   2
 Largest Abelian subgroup         CS      NOp   2
 Largest concise Abelian subgroup C1      NOp   1
                         Standard orientation:                         
 ---------------------------------------------------------------------
 Center     Atomic     Atomic              Coordinates (Angstroms)
 Number     Number      Type              X           Y           Z
 ---------------------------------------------------------------------
    1          7             0       -0.746242   -0.967544    0.000000
    2          1             0       -0.001024    2.097278    0.000000
    3          6             0        1.117815    0.285244    0.000000
    4          1             0        2.108213    0.671072    0.000000
    5          6             0        0.647399   -0.982731    0.000000
    6          1             0        1.193984   -1.893692    0.000000
    7          1             0       -2.092028    0.656612    0.000000
    8          6             0       -1.096122    0.284233    0.000000
    9          7             0        0.000000    1.103009    0.000000
 ---------------------------------------------------------------------
 Rotational constants (GHZ):      9.6694010      9.5604807      4.8073162
 Standard basis: STO-3G (5D, 7F)
 There are    24 symmetry adapted basis functions of A'  symmetry.
 There are     5 symmetry adapted basis functions of A"  symmetry.
 Integral buffers will be    262144 words long.
 Raffenetti 1 integral format.
 Two-electron integral symmetry is turned on.
    29 basis functions,    87 primitive gaussians,    29 cartesian basis functions
    18 alpha electrons       18 beta electrons
       nuclear repulsion energy       163.6405015755 Hartrees.
 NAtoms=    9 NActive=    9 NUniq=    9 SFac= 1.00D+00 NAtFMM=   60 Big=F
 One-electron integrals computed using PRISM.
 NBasis=    29 RedAO= T  NBF=    24     5
 NBsUse=    29 1.00D-06 NBFU=    24     5
 Harris functional with IExCor=  205 diagonalized for initial guess.
 ExpMin= 1.69D-01 ExpMax= 9.91D+01 ExpMxC= 9.91D+01 IAcc=1 IRadAn=         1 AccDes= 1.00D-06
 HarFok:  IExCor= 205 AccDes= 1.00D-06 IRadAn=         1 IDoV=1
 ScaDFX=  1.000000  1.000000  1.000000  1.000000
 Initial guess orbital symmetries:
       Occupied  (A') (A') (A') (A') (A') (A') (A') (A') (A') (A')
                 (A') (A') (A') (A') (A") (A') (A") (A")
       Virtual   (A") (A") (A') (A') (A') (A') (A') (A') (A') (A')
                 (A')
 The electronic state of the initial guess is 1-A'.
 Requested convergence on RMS density matrix=1.00D-08 within 128 cycles.
 Requested convergence on MAX density matrix=1.00D-06.
 Requested convergence on             energy=1.00D-06.
 No special actions if energy rises.
 Keep R1 integrals in memory in canonical form, NReq=      528061.
 SCF Done:  E(RHF) =  -221.984917720     A.U. after   13 cycles
             Convg  =    0.6127D-08             -V/T =  2.0093
             S**2   =   0.0000

 **********************************************************************

            Population analysis using the SCF density.

 **********************************************************************

 Orbital symmetries:
       Occupied  (A') (A') (A') (A') (A') (A') (A') (A') (A') (A')
                 (A') (A") (A') (A') (A') (A') (A") (A")
       Virtual   (A") (A") (A') (A') (A') (A') (A') (A') (A') (A')
                 (A')
 The electronic state is 1-A'.
 Alpha  occ. eigenvalues --  -15.42348 -15.30359 -11.09357 -11.06289 -11.02837
 Alpha  occ. eigenvalues --   -1.28104  -1.10273  -0.95602  -0.76935  -0.74178
 Alpha  occ. eigenvalues --   -0.71240  -0.55028  -0.54981  -0.54803  -0.50998
 Alpha  occ. eigenvalues --   -0.34249  -0.32294  -0.27464
 Alpha virt. eigenvalues --    0.30576   0.38430   0.57682   0.63373   0.63683
 Alpha virt. eigenvalues --    0.69505   0.74641   0.79081   0.94593   1.00853
 Alpha virt. eigenvalues --    1.08898
          Condensed to atoms (all electrons):
              1          2          3          4          5          6
     1  N    6.516540   0.001662  -0.044047   0.001081   0.396941  -0.020557
     2  H    0.001662   0.462285  -0.025704  -0.001583   0.002503  -0.000041
     3  C   -0.044047  -0.025704   4.779801   0.397876   0.563128  -0.023742
     4  H    0.001081  -0.001583   0.397876   0.556757  -0.018372  -0.001044
     5  C    0.396941   0.002503   0.563128  -0.018372   4.812266   0.399592
     6  H   -0.020557  -0.000041  -0.023742  -0.001044   0.399592   0.567878
     7  H   -0.021522  -0.001146   0.001744  -0.000027   0.002817  -0.000035
     8  C    0.490860  -0.025648  -0.074196   0.001991  -0.072929   0.002698
     9  N   -0.047103   0.356485   0.410594  -0.018928  -0.063144   0.001173
              7          8          9
     1  N   -0.021522   0.490860  -0.047103
     2  H   -0.001146  -0.025648   0.356485
     3  C    0.001744  -0.074196   0.410594
     4  H   -0.000027   0.001991  -0.018928
     5  C    0.002817  -0.072929  -0.063144
     6  H   -0.000035   0.002698   0.001173
     7  H    0.555130   0.398254  -0.023096
     8  C    0.398254   4.744015   0.409562
     9  N   -0.023096   0.409562   6.293131
 Mulliken atomic charges:
              1
     1  N   -0.273854
     2  H    0.231186
     3  C    0.014545
     4  H    0.082249
     5  C   -0.022802
     6  H    0.074078
     7  H    0.087881
     8  C    0.125392
     9  N   -0.318675
 Sum of Mulliken charges=   0.00000
 Atomic charges with hydrogens summed into heavy atoms:
              1
     1  N   -0.273854
     2  H    0.000000
     3  C    0.096794
     4  H    0.000000
     5  C    0.051277
     6  H    0.000000
     7  H    0.000000
     8  C    0.213273
     9  N   -0.087489
 Sum of Mulliken charges=   0.00000
 Electronic spatial extent (au):  <R**2>=   280.2144
 Charge=     0.0000 electrons
 Dipole moment (field-independent basis, Debye):
    X=     1.0790    Y=     3.3216    Z=     0.0000  Tot=     3.4925
 Quadrupole moment (field-independent basis, Debye-Ang):
   XX=   -25.5551   YY=   -24.9970   ZZ=   -28.2177
   XY=    -2.7124   XZ=     0.0000   YZ=     0.0000
 Traceless Quadrupole moment (field-independent basis, Debye-Ang):
   XX=     0.7015   YY=     1.2596   ZZ=    -1.9611
   XY=    -2.7124   XZ=     0.0000   YZ=     0.0000
 Octapole moment (field-independent basis, Debye-Ang**2):
  XXX=    -0.3775  YYY=    13.3677  ZZZ=     0.0000  XYY=     4.0347
  XXY=     5.1053  XXZ=     0.0000  XZZ=    -0.9195  YZZ=     0.3582
  YYZ=     0.0000  XYZ=     0.0000
 Hexadecapole moment (field-independent basis, Debye-Ang**3):
 XXXX=  -150.5831 YYYY=  -130.3495 ZZZZ=   -21.0270 XXXY=     0.0212
 XXXZ=     0.0000 YYYX=    -4.3502 YYYZ=     0.0000 ZZZX=     0.0000
 ZZZY=     0.0000 XXYY=   -52.8017 XXZZ=   -32.5889 YYZZ=   -30.0730
 XXYZ=     0.0000 YYXZ=     0.0000 ZZXY=     1.3844
 N-N= 1.636405015755D+02 E-N=-8.460526362630D+02  KE= 2.199485657209D+02
 Symmetry A'   KE= 2.109589697888D+02
 Symmetry A"   KE= 8.989595932059D+00
 ***** Axes restored to original set *****
 -------------------------------------------------------------------
 Center     Atomic                   Forces (Hartrees/Bohr)
 Number     Number              X              Y              Z
 -------------------------------------------------------------------
    1          7          -0.014938077   -0.035019171    0.000000000
    2          1           0.000233772    0.033023342    0.000000000
    3          6          -0.008359672   -0.014546788    0.000000000
    4          1           0.014118679    0.007648231    0.000000000
    5          6           0.000011448    0.026200030    0.000000000
    6          1           0.008717662   -0.013459783    0.000000000
    7          1          -0.017299562    0.008010991    0.000000000
    8          6           0.004892595    0.000570672    0.000000000
    9          7           0.012623155   -0.012427524    0.000000000
 -------------------------------------------------------------------
 Cartesian Forces:  Max     0.035019171 RMS     0.013228080

 GradGradGradGradGradGradGradGradGradGradGradGradGradGradGradGradGradGrad
 Berny optimization.
 Internal  Forces:  Max     0.033023084 RMS     0.009609688
 Search for a local minimum.
 Step number   1 out of a maximum of  48
 All quantities printed in internal units (Hartrees-Bohrs-Radians)
 Second derivative matrix not updated -- first step.
     Eigenvalues ---    0.01997   0.02158   0.02222   0.02406   0.02463
     Eigenvalues ---    0.02551   0.16000   0.16000   0.16000   0.16000
     Eigenvalues ---    0.22000   0.22912   0.38097   0.38142   0.38213
     Eigenvalues ---    0.42443   0.46026   0.48397   0.48710   0.52859
     Eigenvalues ---    0.643341000.000001000.000001000.000001000.00000
     Eigenvalues --- 1000.000001000.000001000.000001000.000001000.00000
     Eigenvalues --- 1000.000001000.000001000.000001000.000001000.00000
     Eigenvalues --- 1000.000001000.000001000.00000
 RFO step:  Lambda=-8.02871190D-03.
 Linear search not attempted -- first point.
 Iteration  1 RMS(Cart)=  0.02324488 RMS(Int)=  0.00025150
 Iteration  2 RMS(Cart)=  0.00027814 RMS(Int)=  0.00008562
 Iteration  3 RMS(Cart)=  0.00000003 RMS(Int)=  0.00008562
 Variable       Old X    -DE/DX   Delta X   Delta X   Delta X     New X
                                 (Linear)    (Quad)   (Total)
    R1        2.63376   0.01411   0.00000   0.02917   0.02931   2.66306
    R2        2.45618   0.02287   0.00000   0.03619   0.03628   2.49246
    R3        1.87890   0.03302   0.00000   0.06670   0.06670   1.94559
    R4        2.00859   0.01593   0.00000   0.04091   0.04091   2.04949
    R5        2.55571   0.00036   0.00000  -0.00277  -0.00278   2.55294
    R6        2.61729   0.00330   0.00000   0.00490   0.00475   2.62204
    R7        2.00757   0.01603   0.00000   0.04108   0.04108   2.04864
    R8        2.00925   0.01901   0.00000   0.04887   0.04887   2.05811
    R9        2.58546   0.01970   0.00000   0.04041   0.04033   2.62579
    A1        1.85424  -0.01387   0.00000  -0.04767  -0.04736   1.80688
    A2        2.29754   0.00062   0.00000   0.01243   0.01251   2.31005
    A3        2.13851  -0.00340   0.00000  -0.01149  -0.01141   2.12710
    A4        1.84714   0.00278   0.00000  -0.00094  -0.00110   1.84604
    A5        1.91516   0.01085   0.00000   0.03743   0.03752   1.95267
    A6        2.12212  -0.00487   0.00000  -0.01543  -0.01547   2.10665
    A7        2.24591  -0.00598   0.00000  -0.02200  -0.02205   2.22386
    A8        2.20116  -0.00024   0.00000  -0.00391  -0.00391   2.19726
    A9        1.93981   0.00339   0.00000   0.02509   0.02509   1.96490
   A10        2.14222  -0.00315   0.00000  -0.02118  -0.02118   2.12103
   A11        2.20343   0.00133   0.00000   0.00546   0.00557   2.20900
   A12        2.21133   0.00183   0.00000   0.00845   0.00857   2.21990
   A13        1.86843  -0.00316   0.00000  -0.01391  -0.01414   1.85428
    D1        0.00000   0.00000   0.00000   0.00000   0.00000   0.00000
    D2        3.14159   0.00000   0.00000   0.00000   0.00000   3.14159
    D3        3.14159   0.00000   0.00000   0.00000   0.00000   3.14159
    D4        0.00000   0.00000   0.00000   0.00000   0.00000   0.00000
    D5        3.14159   0.00000   0.00000   0.00000   0.00000   3.14159
    D6        0.00000   0.00000   0.00000   0.00000   0.00000   0.00000
    D7        0.00000   0.00000   0.00000   0.00000   0.00000   0.00000
    D8        3.14159   0.00000   0.00000   0.00000   0.00000   3.14159
    D9        0.00000   0.00000   0.00000   0.00000   0.00000   0.00000
   D10        3.14159   0.00000   0.00000   0.00000   0.00000   3.14159
   D11        3.14159   0.00000   0.00000   0.00000   0.00000   3.14159
   D12        0.00000   0.00000   0.00000   0.00000   0.00000   0.00000
   D13        3.14159   0.00000   0.00000   0.00000   0.00000   3.14159
   D14        0.00000   0.00000   0.00000   0.00000   0.00000   0.00000
   D15        0.00000   0.00000   0.00000   0.00000   0.00000   0.00000
   D16        3.14159   0.00000   0.00000   0.00000   0.00000   3.14159
         Item               Value     Threshold  Converged?
 Maximum Force            0.033023     0.000450     NO 
 RMS     Force            0.009610     0.000300     NO 
 Maximum Displacement     0.078025     0.001800     NO 
 RMS     Displacement     0.023179     0.001200     NO 
 Predicted change in Energy=-4.093896D-03
 GradGradGradGradGradGradGradGradGradGradGradGradGradGradGradGradGradGrad

                          Input orientation:                          
 ---------------------------------------------------------------------
 Center     Atomic     Atomic              Coordinates (Angstroms)
 Number     Number      Type              X           Y           Z
 ---------------------------------------------------------------------
    1          7             0       -0.769021   -1.006460    0.000000
    2          1             0        0.008262    2.138567    0.000000
    3          6             0        1.120864    0.281295    0.000000
    4          1             0        2.129916    0.678854    0.000000
    5          6             0        0.639984   -0.981177    0.000000
    6          1             0        1.210129   -1.903239    0.000000
    7          1             0       -2.114921    0.666472    0.000000
    8          6             0       -1.100478    0.270165    0.000000
    9          7             0        0.007260    1.109004    0.000000
 ---------------------------------------------------------------------
                    Distance matrix (angstroms):
                    1          2          3          4          5
     1  N    0.000000
     2  H    3.239655   0.000000
     3  C    2.286915   2.165028   0.000000
     4  H    3.353226   2.575302   1.084546   0.000000
     5  C    1.409232   3.183061   1.350956   2.230605   0.000000
     6  H    2.172843   4.216715   2.186357   2.741024   1.084096
     7  H    2.147126   2.583596   3.258630   4.244855   3.210024
     8  C    1.318952   2.172609   2.221370   3.256144   2.143610
     9  N    2.253398   1.029563   1.387522   2.165802   2.183849
                    6          7          8          9
     6  H    0.000000
     7  H    4.202306   0.000000
     8  C    3.172158   1.089107   0.000000
     9  N    3.243533   2.167830   1.389509   0.000000
 Stoichiometry    C3H4N2
 Framework group  CS[SG(C3H4N2)]
 Deg. of freedom    15
 Full point group                 CS      NOp   2
 Largest Abelian subgroup         CS      NOp   2
 Largest concise Abelian subgroup C1      NOp   1
                         Standard orientation:                         
 ---------------------------------------------------------------------
 Center     Atomic     Atomic              Coordinates (Angstroms)
 Number     Number      Type              X           Y           Z
 ---------------------------------------------------------------------
    1          7             0       -0.755298   -1.006214    0.000000
    2          1             0       -0.009192    2.146355    0.000000
    3          6             0        1.121745    0.300189    0.000000
    4          1             0        2.126811    0.707720    0.000000
    5          6             0        0.653388   -0.966982    0.000000
    6          1             0        1.232634   -1.883354    0.000000
    7          1             0       -2.117696    0.653310    0.000000
    8          6             0       -1.099378    0.267066    0.000000
    9          7             0        0.000000    1.116832    0.000000
 ---------------------------------------------------------------------
 Rotational constants (GHZ):      9.6701273      9.1959251      4.7135333
 Standard basis: STO-3G (5D, 7F)
 There are    24 symmetry adapted basis functions of A'  symmetry.
 There are     5 symmetry adapted basis functions of A"  symmetry.
 Integral buffers will be    262144 words long.
 Raffenetti 1 integral format.
 Two-electron integral symmetry is turned on.
    29 basis functions,    87 primitive gaussians,    29 cartesian basis functions
    18 alpha electrons       18 beta electrons
       nuclear repulsion energy       161.9311104064 Hartrees.
 NAtoms=    9 NActive=    9 NUniq=    9 SFac= 1.00D+00 NAtFMM=   60 Big=F
 One-electron integrals computed using PRISM.
 NBasis=    29 RedAO= T  NBF=    24     5
 NBsUse=    29 1.00D-06 NBFU=    24     5
 Initial guess read from the read-write file:
 Initial guess orbital symmetries:
       Occupied  (A') (A') (A') (A') (A') (A') (A') (A') (A') (A')
                 (A') (A") (A') (A') (A') (A') (A") (A")
       Virtual   (A") (A") (A') (A') (A') (A') (A') (A') (A') (A')
                 (A')
 Harris functional with IExCor=  205 diagonalized for initial guess.
 ExpMin= 1.69D-01 ExpMax= 9.91D+01 ExpMxC= 9.91D+01 IAcc=1 IRadAn=         1 AccDes= 1.00D-06
 HarFok:  IExCor= 205 AccDes= 1.00D-06 IRadAn=         1 IDoV=1
 ScaDFX=  1.000000  1.000000  1.000000  1.000000
 Requested convergence on RMS density matrix=1.00D-08 within 128 cycles.
 Requested convergence on MAX density matrix=1.00D-06.
 Requested convergence on             energy=1.00D-06.
 No special actions if energy rises.
 Keep R1 integrals in memory in canonical form, NReq=      528061.
 SCF Done:  E(RHF) =  -221.987612684     A.U. after   12 cycles
             Convg  =    0.4151D-08             -V/T =  2.0100
             S**2   =   0.0000
 ***** Axes restored to original set *****
 -------------------------------------------------------------------
 Center     Atomic                   Forces (Hartrees/Bohr)
 Number     Number              X              Y              Z
 -------------------------------------------------------------------
    1          7           0.003034824    0.009677286    0.000000000
    2          1          -0.001123132   -0.009694153    0.000000000
    3          6           0.004377027   -0.004439628    0.000000000
    4          1          -0.004625319   -0.002367019    0.000000000
    5          6           0.008903148   -0.005312511    0.000000000
    6          1          -0.002021715    0.003919490    0.000000000
    7          1           0.004985996   -0.001432140    0.000000000
    8          6          -0.006495874    0.004864567    0.000000000
    9          7          -0.007034956    0.004784108    0.000000000
 -------------------------------------------------------------------
 Cartesian Forces:  Max     0.009694153 RMS     0.004538116

 GradGradGradGradGradGradGradGradGradGradGradGradGradGradGradGradGradGrad
 Berny optimization.
 Internal  Forces:  Max     0.009695241 RMS     0.003321010
 Search for a local minimum.
 Step number   2 out of a maximum of  48
 All quantities printed in internal units (Hartrees-Bohrs-Radians)
 Update second derivatives using D2CorX and points  1  2
 Trust test= 6.58D-01 RLast= 1.42D-01 DXMaxT set to 3.00D-01
     Eigenvalues ---    0.01997   0.02160   0.02231   0.02411   0.02465
     Eigenvalues ---    0.02546   0.15924   0.16000   0.16000   0.16039
     Eigenvalues ---    0.22001   0.25042   0.38102   0.38184   0.40000
     Eigenvalues ---    0.42417   0.45665   0.47132   0.50626   0.59462
     Eigenvalues ---    0.663551000.000001000.000001000.000001000.00000
     Eigenvalues --- 1000.000001000.000001000.000001000.000001000.00000
     Eigenvalues --- 1000.000001000.000001000.000001000.000001000.00000
     Eigenvalues --- 1000.000001000.000001000.00000
 RFO step:  Lambda=-2.53033485D-04.
 Quartic linear search produced a step of -0.24320.
 Iteration  1 RMS(Cart)=  0.00779501 RMS(Int)=  0.00003714
 Iteration  2 RMS(Cart)=  0.00003325 RMS(Int)=  0.00001680
 Iteration  3 RMS(Cart)=  0.00000000 RMS(Int)=  0.00001680
 Variable       Old X    -DE/DX   Delta X   Delta X   Delta X     New X
                                 (Linear)    (Quad)   (Total)
    R1        2.66306   0.00154  -0.00713   0.01054   0.00339   2.66645
    R2        2.49246  -0.00288  -0.00882   0.00633  -0.00252   2.48994
    R3        1.94559  -0.00970  -0.01622   0.00278  -0.01344   1.93215
    R4        2.04949  -0.00517  -0.00995   0.00059  -0.00936   2.04014
    R5        2.55294  -0.00569   0.00068  -0.00827  -0.00759   2.54535
    R6        2.62204   0.00563  -0.00115   0.01012   0.00900   2.63103
    R7        2.04864  -0.00440  -0.00999   0.00219  -0.00780   2.04084
    R8        2.05811  -0.00517  -0.01188   0.00270  -0.00918   2.04893
    R9        2.62579  -0.00712  -0.00981  -0.00007  -0.00987   2.61592
    A1        1.80688   0.00664   0.01152   0.00841   0.01987   1.82675
    A2        2.31005  -0.00083  -0.00304  -0.00106  -0.00412   2.30593
    A3        2.12710   0.00021   0.00278  -0.00216   0.00060   2.12769
    A4        1.84604   0.00061   0.00027   0.00322   0.00352   1.84957
    A5        1.95267  -0.00514  -0.00912  -0.00614  -0.01528   1.93739
    A6        2.10665   0.00292   0.00376   0.00555   0.00932   2.11597
    A7        2.22386   0.00222   0.00536   0.00059   0.00596   2.22983
    A8        2.19726   0.00275   0.00095   0.00940   0.01035   2.20761
    A9        1.96490  -0.00451  -0.00610  -0.00979  -0.01590   1.94900
   A10        2.12103   0.00176   0.00515   0.00040   0.00555   2.12658
   A11        2.20900  -0.00011  -0.00136   0.00259   0.00121   2.21022
   A12        2.21990  -0.00228  -0.00208  -0.00689  -0.00900   2.21090
   A13        1.85428   0.00240   0.00344   0.00430   0.00778   1.86207
    D1        0.00000   0.00000   0.00000   0.00000   0.00000   0.00000
    D2        3.14159   0.00000   0.00000   0.00000   0.00000   3.14159
    D3        3.14159   0.00000   0.00000   0.00000   0.00000   3.14159
    D4        0.00000   0.00000   0.00000   0.00000   0.00000   0.00000
    D5        3.14159   0.00000   0.00000   0.00000   0.00000   3.14159
    D6        0.00000   0.00000   0.00000   0.00000   0.00000   0.00000
    D7        0.00000   0.00000   0.00000   0.00000   0.00000   0.00000
    D8        3.14159   0.00000   0.00000   0.00000   0.00000   3.14159
    D9        0.00000   0.00000   0.00000   0.00000   0.00000   0.00000
   D10        3.14159   0.00000   0.00000   0.00000   0.00000   3.14159
   D11        3.14159   0.00000   0.00000   0.00000   0.00000   3.14159
   D12        0.00000   0.00000   0.00000   0.00000   0.00000   0.00000
   D13        3.14159   0.00000   0.00000   0.00000   0.00000   3.14159
   D14        0.00000   0.00000   0.00000   0.00000   0.00000   0.00000
   D15        0.00000   0.00000   0.00000   0.00000   0.00000   0.00000
   D16        3.14159   0.00000   0.00000   0.00000   0.00000   3.14159
         Item               Value     Threshold  Converged?
 Maximum Force            0.009695     0.000450     NO 
 RMS     Force            0.003321     0.000300     NO 
 Maximum Displacement     0.022215     0.001800     NO 
 RMS     Displacement     0.007794     0.001200     NO 
 Predicted change in Energy=-4.068548D-04
 GradGradGradGradGradGradGradGradGradGradGradGradGradGradGradGradGradGrad

                          Input orientation:                          
 ---------------------------------------------------------------------
 Center     Atomic     Atomic              Coordinates (Angstroms)
 Number     Number      Type              X           Y           Z
 ---------------------------------------------------------------------
    1          7             0       -0.762585   -0.994704    0.000000
    2          1             0        0.001427    2.128485    0.000000
    3          6             0        1.121664    0.277035    0.000000
    4          1             0        2.125798    0.673569    0.000000
    5          6             0        0.648399   -0.984023    0.000000
    6          1             0        1.215405   -1.903172    0.000000
    7          1             0       -2.115392    0.672824    0.000000
    8          6             0       -1.105810    0.277429    0.000000
    9          7             0        0.003089    1.106037    0.000000
 ---------------------------------------------------------------------
                    Distance matrix (angstroms):
                    1          2          3          4          5
     1  N    0.000000
     2  H    3.215280   0.000000
     3  C    2.273261   2.163977   0.000000
     4  H    3.335550   2.574827   1.079595   0.000000
     5  C    1.411025   3.179038   1.346940   2.220432   0.000000
     6  H    2.176640   4.210463   2.182222   2.732839   1.079968
     7  H    2.147263   2.569022   3.261162   4.241190   3.222372
     8  C    1.317621   2.156939   2.227474   3.255797   2.160673
     9  N    2.235927   1.022450   1.392283   2.166315   2.187413
                    6          7          8          9
     6  H    0.000000
     7  H    4.210696   0.000000
     8  C    3.184817   1.084248   0.000000
     9  N    3.244233   2.162321   1.384286   0.000000
 Stoichiometry    C3H4N2
 Framework group  CS[SG(C3H4N2)]
 Deg. of freedom    15
 Full point group                 CS      NOp   2
 Largest Abelian subgroup         CS      NOp   2
 Largest concise Abelian subgroup C1      NOp   1
                         Standard orientation:                         
 ---------------------------------------------------------------------
 Center     Atomic     Atomic              Coordinates (Angstroms)
 Number     Number      Type              X           Y           Z
 ---------------------------------------------------------------------
    1          7             0       -0.754388   -0.992481    0.000000
    2          1             0       -0.007149    2.134764    0.000000
    3          6             0        1.123008    0.289353    0.000000
    4          1             0        2.125000    0.691271    0.000000
    5          6             0        0.656518   -0.974227    0.000000
    6          1             0        1.228450   -1.890319    0.000000
    7          1             0       -2.116125    0.667763    0.000000
    8          6             0       -1.104436    0.277792    0.000000
    9          7             0        0.000000    1.112339    0.000000
 ---------------------------------------------------------------------
 Rotational constants (GHZ):      9.5712049      9.3242050      4.7230453
 Standard basis: STO-3G (5D, 7F)
 There are    24 symmetry adapted basis functions of A'  symmetry.
 There are     5 symmetry adapted basis functions of A"  symmetry.
 Integral buffers will be    262144 words long.
 Raffenetti 1 integral format.
 Two-electron integral symmetry is turned on.
    29 basis functions,    87 primitive gaussians,    29 cartesian basis functions
    18 alpha electrons       18 beta electrons
       nuclear repulsion energy       162.1068493262 Hartrees.
 NAtoms=    9 NActive=    9 NUniq=    9 SFac= 1.00D+00 NAtFMM=   60 Big=F
 One-electron integrals computed using PRISM.
 NBasis=    29 RedAO= T  NBF=    24     5
 NBsUse=    29 1.00D-06 NBFU=    24     5
 Initial guess read from the read-write file:
 Initial guess orbital symmetries:
       Occupied  (A') (A') (A') (A') (A') (A') (A') (A') (A') (A')
                 (A') (A') (A") (A') (A') (A') (A") (A")
       Virtual   (A") (A") (A') (A') (A') (A') (A') (A') (A') (A')
                 (A')
 Harris functional with IExCor=  205 diagonalized for initial guess.
 ExpMin= 1.69D-01 ExpMax= 9.91D+01 ExpMxC= 9.91D+01 IAcc=1 IRadAn=         1 AccDes= 1.00D-06
 HarFok:  IExCor= 205 AccDes= 1.00D-06 IRadAn=         1 IDoV=1
 ScaDFX=  1.000000  1.000000  1.000000  1.000000
 Requested convergence on RMS density matrix=1.00D-08 within 128 cycles.
 Requested convergence on MAX density matrix=1.00D-06.
 Requested convergence on             energy=1.00D-06.
 No special actions if energy rises.
 Keep R1 integrals in memory in canonical form, NReq=      528061.
 SCF Done:  E(RHF) =  -221.987954238     A.U. after   11 cycles
             Convg  =    0.4817D-08             -V/T =  2.0099
             S**2   =   0.0000
 ***** Axes restored to original set *****
 -------------------------------------------------------------------
 Center     Atomic                   Forces (Hartrees/Bohr)
 Number     Number              X              Y              Z
 -------------------------------------------------------------------
    1          7          -0.002397203   -0.000558344    0.000000000
    2          1           0.000208678   -0.001632137    0.000000000
    3          6          -0.000133591    0.001202178    0.000000000
    4          1          -0.000555360    0.000209614    0.000000000
    5          6          -0.001534099    0.001237566    0.000000000
    6          1          -0.000826063    0.000497589    0.000000000
    7          1           0.000905094   -0.000546067    0.000000000
    8          6           0.003607957   -0.002824503    0.000000000
    9          7           0.000724588    0.002414105    0.000000000
 -------------------------------------------------------------------
 Cartesian Forces:  Max     0.003607957 RMS     0.001274561

 GradGradGradGradGradGradGradGradGradGradGradGradGradGradGradGradGradGrad
 Berny optimization.
 Internal  Forces:  Max     0.002771905 RMS     0.001057985
 Search for a local minimum.
 Step number   3 out of a maximum of  48
 All quantities printed in internal units (Hartrees-Bohrs-Radians)
 Update second derivatives using D2CorX and points  1  2  3
 Trust test= 8.39D-01 RLast= 4.45D-02 DXMaxT set to 3.00D-01
     Eigenvalues ---    0.01996   0.02158   0.02227   0.02411   0.02465
     Eigenvalues ---    0.02547   0.15904   0.16000   0.16002   0.16128
     Eigenvalues ---    0.22002   0.31917   0.38097   0.38194   0.38899
     Eigenvalues ---    0.42286   0.47049   0.48650   0.49694   0.60977
     Eigenvalues ---    0.658851000.000001000.000001000.000001000.00000
     Eigenvalues --- 1000.000001000.000001000.000001000.000001000.00000
     Eigenvalues --- 1000.000001000.000001000.000001000.000001000.00000
     Eigenvalues --- 1000.000001000.000001000.00000
 RFO step:  Lambda=-7.01808451D-05.
 Quartic linear search produced a step of -0.15987.
 Iteration  1 RMS(Cart)=  0.00322089 RMS(Int)=  0.00000482
 Iteration  2 RMS(Cart)=  0.00000441 RMS(Int)=  0.00000172
 Iteration  3 RMS(Cart)=  0.00000000 RMS(Int)=  0.00000172
 Variable       Old X    -DE/DX   Delta X   Delta X   Delta X     New X
                                 (Linear)    (Quad)   (Total)
    R1        2.66645  -0.00087  -0.00054  -0.00057  -0.00111   2.66534
    R2        2.48994  -0.00227   0.00040  -0.00358  -0.00318   2.48676
    R3        1.93215  -0.00163   0.00215  -0.00643  -0.00428   1.92787
    R4        2.04014  -0.00044   0.00150  -0.00352  -0.00202   2.03811
    R5        2.54535   0.00079   0.00121  -0.00076   0.00045   2.54579
    R6        2.63103  -0.00241  -0.00144  -0.00126  -0.00270   2.62833
    R7        2.04084  -0.00086   0.00125  -0.00394  -0.00269   2.03815
    R8        2.04893  -0.00104   0.00147  -0.00471  -0.00325   2.04569
    R9        2.61592   0.00015   0.00158  -0.00269  -0.00111   2.61482
    A1        1.82675  -0.00259  -0.00318  -0.00361  -0.00678   1.81997
    A2        2.30593   0.00071   0.00066   0.00167   0.00234   2.30826
    A3        2.12769  -0.00010  -0.00010  -0.00108  -0.00118   2.12652
    A4        1.84957  -0.00061  -0.00056  -0.00059  -0.00116   1.84841
    A5        1.93739   0.00159   0.00244   0.00169   0.00412   1.94152
    A6        2.11597  -0.00125  -0.00149  -0.00257  -0.00405   2.11191
    A7        2.22983  -0.00034  -0.00095   0.00088  -0.00007   2.22975
    A8        2.20761  -0.00157  -0.00165  -0.00249  -0.00414   2.20346
    A9        1.94900   0.00277   0.00254   0.00459   0.00714   1.95614
   A10        2.12658  -0.00120  -0.00089  -0.00211  -0.00300   2.12359
   A11        2.21022   0.00038  -0.00019   0.00148   0.00129   2.21151
   A12        2.21090   0.00078   0.00144   0.00060   0.00203   2.21293
   A13        1.86207  -0.00116  -0.00124  -0.00208  -0.00332   1.85875
    D1        0.00000   0.00000   0.00000   0.00000   0.00000   0.00000
    D2        3.14159   0.00000   0.00000   0.00000   0.00000   3.14159
    D3        3.14159   0.00000   0.00000   0.00000   0.00000   3.14159
    D4        0.00000   0.00000   0.00000   0.00000   0.00000   0.00000
    D5        3.14159   0.00000   0.00000   0.00000   0.00000   3.14159
    D6        0.00000   0.00000   0.00000   0.00000   0.00000   0.00000
    D7        0.00000   0.00000   0.00000   0.00000   0.00000   0.00000
    D8        3.14159   0.00000   0.00000   0.00000   0.00000   3.14159
    D9        0.00000   0.00000   0.00000   0.00000   0.00000   0.00000
   D10        3.14159   0.00000   0.00000   0.00000   0.00000   3.14159
   D11        3.14159   0.00000   0.00000   0.00000   0.00000   3.14159
   D12        0.00000   0.00000   0.00000   0.00000   0.00000   0.00000
   D13        3.14159   0.00000   0.00000   0.00000   0.00000   3.14159
   D14        0.00000   0.00000   0.00000   0.00000   0.00000   0.00000
   D15        0.00000   0.00000   0.00000   0.00000   0.00000   0.00000
   D16        3.14159   0.00000   0.00000   0.00000   0.00000   3.14159
         Item               Value     Threshold  Converged?
 Maximum Force            0.002772     0.000450     NO 
 RMS     Force            0.001058     0.000300     NO 
 Maximum Displacement     0.010596     0.001800     NO 
 RMS     Displacement     0.003222     0.001200     NO 
 Predicted change in Energy=-4.806014D-05
 GradGradGradGradGradGradGradGradGradGradGradGradGradGradGradGradGradGrad

                          Input orientation:                          
 ---------------------------------------------------------------------
 Center     Atomic     Atomic              Coordinates (Angstroms)
 Number     Number      Type              X           Y           Z
 ---------------------------------------------------------------------
    1          7             0       -0.764388   -0.996534    0.000000
    2          1             0        0.001593    2.127090    0.000000
    3          6             0        1.121274    0.278326    0.000000
    4          1             0        2.124100    0.675257    0.000000
    5          6             0        0.645977   -0.982221    0.000000
    6          1             0        1.210881   -1.900990    0.000000
    7          1             0       -2.109785    0.670238    0.000000
    8          6             0       -1.101827    0.275405    0.000000
    9          7             0        0.004169    1.106910    0.000000
 ---------------------------------------------------------------------
                    Distance matrix (angstroms):
                    1          2          3          4          5
     1  N    0.000000
     2  H    3.216171   0.000000
     3  C    2.276179   2.161392   0.000000
     4  H    3.337402   2.571547   1.078524   0.000000
     5  C    1.410438   3.175381   1.347177   2.220829   0.000000
     6  H    2.172493   4.205687   2.181157   2.733316   1.078542
     7  H    2.142014   2.565216   3.254741   4.233888   3.213230
     8  C    1.315939   2.155522   2.223103   3.250613   2.153240
     9  N    2.239455   1.020183   1.390854   2.163430   2.185494
                    6          7          8          9
     6  H    0.000000
     7  H    4.199766   0.000000
     8  C    3.175738   1.082531   0.000000
     9  N    3.240928   2.158584   1.383701   0.000000
 Stoichiometry    C3H4N2
 Framework group  CS[SG(C3H4N2)]
 Deg. of freedom    15
 Full point group                 CS      NOp   2
 Largest Abelian subgroup         CS      NOp   2
 Largest concise Abelian subgroup C1      NOp   1
                         Standard orientation:                         
 ---------------------------------------------------------------------
 Center     Atomic     Atomic              Coordinates (Angstroms)
 Number     Number      Type              X           Y           Z
 ---------------------------------------------------------------------
    1          7             0       -0.755300   -0.995011    0.000000
    2          1             0       -0.008998    2.133373    0.000000
    3          6             0        1.122299    0.291694    0.000000
    4          1             0        2.122606    0.694931    0.000000
    5          6             0        0.654947   -0.971819    0.000000
    6          1             0        1.225623   -1.887014    0.000000
    7          1             0       -2.111163    0.663259    0.000000
    8          6             0       -1.100740    0.274779    0.000000
    9          7             0        0.000000    1.113230    0.000000
 ---------------------------------------------------------------------
 Rotational constants (GHZ):      9.6186662      9.3038352      4.7293158
 Standard basis: STO-3G (5D, 7F)
 There are    24 symmetry adapted basis functions of A'  symmetry.
 There are     5 symmetry adapted basis functions of A"  symmetry.
 Integral buffers will be    262144 words long.
 Raffenetti 1 integral format.
 Two-electron integral symmetry is turned on.
    29 basis functions,    87 primitive gaussians,    29 cartesian basis functions
    18 alpha electrons       18 beta electrons
       nuclear repulsion energy       162.2281714660 Hartrees.
 NAtoms=    9 NActive=    9 NUniq=    9 SFac= 1.00D+00 NAtFMM=   60 Big=F
 One-electron integrals computed using PRISM.
 NBasis=    29 RedAO= T  NBF=    24     5
 NBsUse=    29 1.00D-06 NBFU=    24     5
 Initial guess read from the read-write file:
 Initial guess orbital symmetries:
       Occupied  (A') (A') (A') (A') (A') (A') (A') (A') (A') (A')
                 (A') (A') (A") (A') (A') (A') (A") (A")
       Virtual   (A") (A") (A') (A') (A') (A') (A') (A') (A') (A')
                 (A')
 Requested convergence on RMS density matrix=1.00D-08 within 128 cycles.
 Requested convergence on MAX density matrix=1.00D-06.
 Requested convergence on             energy=1.00D-06.
 No special actions if energy rises.
 Keep R1 integrals in memory in canonical form, NReq=      528061.
 SCF Done:  E(RHF) =  -221.987992380     A.U. after   10 cycles
             Convg  =    0.3634D-08             -V/T =  2.0098
             S**2   =   0.0000
 ***** Axes restored to original set *****
 -------------------------------------------------------------------
 Center     Atomic                   Forces (Hartrees/Bohr)
 Number     Number              X              Y              Z
 -------------------------------------------------------------------
    1          7          -0.000022152    0.000101335    0.000000000
    2          1          -0.000026820    0.000837917    0.000000000
    3          6          -0.000193956   -0.000220406    0.000000000
    4          1           0.000491976    0.000184104    0.000000000
    5          6           0.000231089    0.000051748    0.000000000
    6          1           0.000299674   -0.000477742    0.000000000
    7          1          -0.000666554    0.000242125    0.000000000
    8          6          -0.000126106    0.000026733    0.000000000
    9          7           0.000012848   -0.000745814    0.000000000
 -------------------------------------------------------------------
 Cartesian Forces:  Max     0.000837917 RMS     0.000305855

 GradGradGradGradGradGradGradGradGradGradGradGradGradGradGradGradGradGrad
 Berny optimization.
 Internal  Forces:  Max     0.000837982 RMS     0.000269503
 Search for a local minimum.
 Step number   4 out of a maximum of  48
 All quantities printed in internal units (Hartrees-Bohrs-Radians)
 Update second derivatives using D2CorX and points  1  2  3  4
 Trust test= 7.94D-01 RLast= 1.56D-02 DXMaxT set to 3.00D-01
     Eigenvalues ---    0.01996   0.02159   0.02228   0.02411   0.02466
     Eigenvalues ---    0.02547   0.15770   0.15989   0.16001   0.16091
     Eigenvalues ---    0.22011   0.33103   0.38163   0.38241   0.40798
     Eigenvalues ---    0.41969   0.46684   0.49607   0.55732   0.60656
     Eigenvalues ---    0.666081000.000001000.000001000.000001000.00000
     Eigenvalues --- 1000.000001000.000001000.000001000.000001000.00000
     Eigenvalues --- 1000.000001000.000001000.000001000.000001000.00000
     Eigenvalues --- 1000.000001000.000001000.00000
 RFO step:  Lambda=-1.77036724D-06.
 Quartic linear search produced a step of -0.17062.
 Iteration  1 RMS(Cart)=  0.00067132 RMS(Int)=  0.00000024
 Iteration  2 RMS(Cart)=  0.00000009 RMS(Int)=  0.00000022
 Variable       Old X    -DE/DX   Delta X   Delta X   Delta X     New X
                                 (Linear)    (Quad)   (Total)
    R1        2.66534   0.00042   0.00019   0.00044   0.00063   2.66597
    R2        2.48676   0.00026   0.00054  -0.00031   0.00023   2.48699
    R3        1.92787   0.00084   0.00073   0.00064   0.00137   1.92924
    R4        2.03811   0.00053   0.00035   0.00078   0.00113   2.03924
    R5        2.54579   0.00012  -0.00008   0.00036   0.00028   2.54607
    R6        2.62833   0.00045   0.00046   0.00005   0.00051   2.62885
    R7        2.03815   0.00056   0.00046   0.00070   0.00116   2.03931
    R8        2.04569   0.00071   0.00055   0.00091   0.00146   2.04715
    R9        2.61482   0.00025   0.00019   0.00026   0.00045   2.61527
    A1        1.81997   0.00036   0.00116  -0.00035   0.00081   1.82078
    A2        2.30826  -0.00003  -0.00040   0.00041   0.00001   2.30827
    A3        2.12652  -0.00001   0.00020  -0.00023  -0.00003   2.12648
    A4        1.84841   0.00004   0.00020  -0.00017   0.00002   1.84843
    A5        1.94152  -0.00023  -0.00070   0.00019  -0.00051   1.94101
    A6        2.11191   0.00012   0.00069  -0.00050   0.00019   2.11211
    A7        2.22975   0.00011   0.00001   0.00031   0.00032   2.23007
    A8        2.20346   0.00016   0.00071  -0.00046   0.00025   2.20371
    A9        1.95614  -0.00035  -0.00122   0.00042  -0.00079   1.95534
   A10        2.12359   0.00019   0.00051   0.00004   0.00055   2.12414
   A11        2.21151  -0.00007  -0.00022   0.00002  -0.00020   2.21131
   A12        2.21293  -0.00012  -0.00035   0.00007  -0.00027   2.21266
   A13        1.85875   0.00018   0.00057  -0.00009   0.00047   1.85922
    D1        0.00000   0.00000   0.00000   0.00000   0.00000   0.00000
    D2        3.14159   0.00000   0.00000   0.00000   0.00000   3.14159
    D3        3.14159   0.00000   0.00000   0.00000   0.00000   3.14159
    D4        0.00000   0.00000   0.00000   0.00000   0.00000   0.00000
    D5        3.14159   0.00000   0.00000   0.00000   0.00000   3.14159
    D6        0.00000   0.00000   0.00000   0.00000   0.00000   0.00000
    D7        0.00000   0.00000   0.00000   0.00000   0.00000   0.00000
    D8        3.14159   0.00000   0.00000   0.00000   0.00000   3.14159
    D9        0.00000   0.00000   0.00000   0.00000   0.00000   0.00000
   D10        3.14159   0.00000   0.00000   0.00000   0.00000   3.14159
   D11        3.14159   0.00000   0.00000   0.00000   0.00000   3.14159
   D12        0.00000   0.00000   0.00000   0.00000   0.00000   0.00000
   D13        3.14159   0.00000   0.00000   0.00000   0.00000   3.14159
   D14        0.00000   0.00000   0.00000   0.00000   0.00000   0.00000
   D15        0.00000   0.00000   0.00000   0.00000   0.00000   0.00000
   D16        3.14159   0.00000   0.00000   0.00000   0.00000   3.14159
         Item               Value     Threshold  Converged?
 Maximum Force            0.000838     0.000450     NO 
 RMS     Force            0.000270     0.000300     YES
 Maximum Displacement     0.002544     0.001800     NO 
 RMS     Displacement     0.000671     0.001200     YES
 Predicted change in Energy=-2.577929D-06
 GradGradGradGradGradGradGradGradGradGradGradGradGradGradGradGradGradGrad

                          Input orientation:                          
 ---------------------------------------------------------------------
 Center     Atomic     Atomic              Coordinates (Angstroms)
 Number     Number      Type              X           Y           Z
 ---------------------------------------------------------------------
    1          7             0       -0.764355   -0.996339    0.000000
    2          1             0        0.001621    2.127727    0.000000
    3          6             0        1.121525    0.278200    0.000000
    4          1             0        2.124848    0.675496    0.000000
    5          6             0        0.646347   -0.982549    0.000000
    6          1             0        1.211406   -1.901946    0.000000
    7          1             0       -2.111131    0.670497    0.000000
    8          6             0       -1.102377    0.275572    0.000000
    9          7             0        0.004111    1.106822    0.000000
 ---------------------------------------------------------------------
                    Distance matrix (angstroms):
                    1          2          3          4          5
     1  N    0.000000
     2  H    3.216599   0.000000
     3  C    2.276180   2.162160   0.000000
     4  H    3.338042   2.572366   1.079120   0.000000
     5  C    1.410769   3.176396   1.347325   2.221504   0.000000
     6  H    2.173420   4.207356   2.181998   2.734517   1.079158
     7  H    2.142930   2.566562   3.256373   4.235982   3.215004
     8  C    1.316061   2.156222   2.223904   3.251910   2.154276
     9  N    2.239157   1.020908   1.391125   2.164155   2.185850
                    6          7          8          9
     6  H    0.000000
     7  H    4.201989   0.000000
     8  C    3.177290   1.083306   0.000000
     9  N    3.241950   2.159775   1.383941   0.000000
 Stoichiometry    C3H4N2
 Framework group  CS[SG(C3H4N2)]
 Deg. of freedom    15
 Full point group                 CS      NOp   2
 Largest Abelian subgroup         CS      NOp   2
 Largest concise Abelian subgroup C1      NOp   1
                         Standard orientation:                         
 ---------------------------------------------------------------------
 Center     Atomic     Atomic              Coordinates (Angstroms)
 Number     Number      Type              X           Y           Z
 ---------------------------------------------------------------------
    1          7             0       -0.755331   -0.994750    0.000000
    2          1             0       -0.008858    2.134033    0.000000
    3          6             0        1.122562    0.291528    0.000000
    4          1             0        2.123386    0.695075    0.000000
    5          6             0        0.655257   -0.972161    0.000000
    6          1             0        1.226040   -1.888015    0.000000
    7          1             0       -2.112479    0.663653    0.000000
    8          6             0       -1.101281    0.275027    0.000000
    9          7             0        0.000000    1.113163    0.000000
 ---------------------------------------------------------------------
 Rotational constants (GHZ):      9.6111615      9.3034403      4.7273989
 Standard basis: STO-3G (5D, 7F)
 There are    24 symmetry adapted basis functions of A'  symmetry.
 There are     5 symmetry adapted basis functions of A"  symmetry.
 Integral buffers will be    262144 words long.
 Raffenetti 1 integral format.
 Two-electron integral symmetry is turned on.
    29 basis functions,    87 primitive gaussians,    29 cartesian basis functions
    18 alpha electrons       18 beta electrons
       nuclear repulsion energy       162.1916478900 Hartrees.
 NAtoms=    9 NActive=    9 NUniq=    9 SFac= 1.00D+00 NAtFMM=   60 Big=F
 One-electron integrals computed using PRISM.
 NBasis=    29 RedAO= T  NBF=    24     5
 NBsUse=    29 1.00D-06 NBFU=    24     5
 Initial guess read from the read-write file:
 Initial guess orbital symmetries:
       Occupied  (A') (A') (A') (A') (A') (A') (A') (A') (A') (A')
                 (A') (A') (A") (A') (A') (A') (A") (A")
       Virtual   (A") (A") (A') (A') (A') (A') (A') (A') (A') (A')
                 (A')
 Requested convergence on RMS density matrix=1.00D-08 within 128 cycles.
 Requested convergence on MAX density matrix=1.00D-06.
 Requested convergence on             energy=1.00D-06.
 No special actions if energy rises.
 Keep R1 integrals in memory in canonical form, NReq=      528061.
 SCF Done:  E(RHF) =  -221.987994927     A.U. after    8 cycles
             Convg  =    0.6428D-08             -V/T =  2.0099
             S**2   =   0.0000
 ***** Axes restored to original set *****
 -------------------------------------------------------------------
 Center     Atomic                   Forces (Hartrees/Bohr)
 Number     Number              X              Y              Z
 -------------------------------------------------------------------
    1          7          -0.000033582   -0.000019978    0.000000000
    2          1           0.000001696    0.000020456    0.000000000
    3          6          -0.000012887   -0.000096693    0.000000000
    4          1          -0.000031503   -0.000000804    0.000000000
    5          6           0.000105557    0.000042703    0.000000000
    6          1          -0.000022449    0.000015554    0.000000000
    7          1           0.000028304   -0.000008320    0.000000000
    8          6          -0.000051244   -0.000004085    0.000000000
    9          7           0.000016108    0.000051168    0.000000000
 -------------------------------------------------------------------
 Cartesian Forces:  Max     0.000105557 RMS     0.000034726

 GradGradGradGradGradGradGradGradGradGradGradGradGradGradGradGradGradGrad
 Berny optimization.
 Internal  Forces:  Max     0.000065628 RMS     0.000018872
 Search for a local minimum.
 Step number   5 out of a maximum of  48
 All quantities printed in internal units (Hartrees-Bohrs-Radians)
 Update second derivatives using D2CorX and points  1  2  3  4  5

 Trust test= 9.88D-01 RLast= 3.16D-03 DXMaxT set to 3.00D-01
     Eigenvalues ---    0.01996   0.02159   0.02228   0.02411   0.02466
     Eigenvalues ---    0.02547   0.15631   0.16003   0.16012   0.16063
     Eigenvalues ---    0.22037   0.32824   0.38163   0.38225   0.41533
     Eigenvalues ---    0.42407   0.46739   0.49565   0.54477   0.60865
     Eigenvalues ---    0.665081000.000001000.000001000.000001000.00000
     Eigenvalues --- 1000.000001000.000001000.000001000.000001000.00000
     Eigenvalues --- 1000.000001000.000001000.000001000.000001000.00000
     Eigenvalues --- 1000.000001000.000001000.00000
 RFO step:  Lambda=-3.52209034D-08.
 Quartic linear search produced a step of -0.00970.
 Iteration  1 RMS(Cart)=  0.00004797 RMS(Int)=  0.00000000
 Iteration  2 RMS(Cart)=  0.00000000 RMS(Int)=  0.00000000
 Variable       Old X    -DE/DX   Delta X   Delta X   Delta X     New X
                                 (Linear)    (Quad)   (Total)
    R1        2.66597   0.00004  -0.00001   0.00011   0.00010   2.66607
    R2        2.48699   0.00002   0.00000   0.00003   0.00003   2.48703
    R3        1.92924   0.00002  -0.00001   0.00007   0.00005   1.92929
    R4        2.03924  -0.00003  -0.00001  -0.00005  -0.00007   2.03918
    R5        2.54607  -0.00007   0.00000  -0.00013  -0.00013   2.54594
    R6        2.62885   0.00002   0.00000   0.00006   0.00006   2.62890
    R7        2.03931  -0.00003  -0.00001  -0.00004  -0.00005   2.03926
    R8        2.04715  -0.00003  -0.00001  -0.00005  -0.00006   2.04709
    R9        2.61527   0.00003   0.00000   0.00008   0.00007   2.61534
    A1        1.82078   0.00000  -0.00001   0.00000  -0.00001   1.82077
    A2        2.30827  -0.00001   0.00000   0.00002   0.00002   2.30829
    A3        2.12648  -0.00003   0.00000  -0.00014  -0.00014   2.12635
    A4        1.84843   0.00003   0.00000   0.00012   0.00012   1.84855
    A5        1.94101   0.00000   0.00000  -0.00004  -0.00004   1.94097
    A6        2.11211  -0.00001   0.00000  -0.00005  -0.00006   2.11205
    A7        2.23007   0.00001   0.00000   0.00010   0.00010   2.23017
    A8        2.20371   0.00000   0.00000   0.00001   0.00000   2.20371
    A9        1.95534   0.00000   0.00001   0.00002   0.00002   1.95537
   A10        2.12414   0.00000  -0.00001  -0.00002  -0.00003   2.12411
   A11        2.21131   0.00001   0.00000   0.00004   0.00004   2.21135
   A12        2.21266   0.00001   0.00000   0.00005   0.00005   2.21271
   A13        1.85922  -0.00002   0.00000  -0.00009  -0.00010   1.85912
    D1        0.00000   0.00000   0.00000   0.00000   0.00000   0.00000
    D2        3.14159   0.00000   0.00000   0.00000   0.00000   3.14159
    D3        3.14159   0.00000   0.00000   0.00000   0.00000   3.14159
    D4        0.00000   0.00000   0.00000   0.00000   0.00000   0.00000
    D5        3.14159   0.00000   0.00000   0.00000   0.00000   3.14159
    D6        0.00000   0.00000   0.00000   0.00000   0.00000   0.00000
    D7        0.00000   0.00000   0.00000   0.00000   0.00000   0.00000
    D8        3.14159   0.00000   0.00000   0.00000   0.00000   3.14159
    D9        0.00000   0.00000   0.00000   0.00000   0.00000   0.00000
   D10        3.14159   0.00000   0.00000   0.00000   0.00000   3.14159
   D11        3.14159   0.00000   0.00000   0.00000   0.00000   3.14159
   D12        0.00000   0.00000   0.00000   0.00000   0.00000   0.00000
   D13        3.14159   0.00000   0.00000   0.00000   0.00000   3.14159
   D14        0.00000   0.00000   0.00000   0.00000   0.00000   0.00000
   D15        0.00000   0.00000   0.00000   0.00000   0.00000   0.00000
   D16        3.14159   0.00000   0.00000   0.00000   0.00000   3.14159
         Item               Value     Threshold  Converged?
 Maximum Force            0.000066     0.000450     YES
 RMS     Force            0.000019     0.000300     YES
 Maximum Displacement     0.000166     0.001800     YES
 RMS     Displacement     0.000048     0.001200     YES
 Predicted change in Energy=-1.785436D-08
 Optimization completed.
    -- Stationary point found.
                           ----------------------------
                           !   Optimized Parameters   !
                           ! (Angstroms and Degrees)  !
 --------------------------                            --------------------------
 ! Name  Definition              Value          Derivative Info.                !
 --------------------------------------------------------------------------------
 ! R1    R(1,5)                  1.4108         -DE/DX =    0.0                 !
 ! R2    R(1,8)                  1.3161         -DE/DX =    0.0                 !
 ! R3    R(2,9)                  1.0209         -DE/DX =    0.0                 !
 ! R4    R(3,4)                  1.0791         -DE/DX =    0.0                 !
 ! R5    R(3,5)                  1.3473         -DE/DX =   -0.0001              !
 ! R6    R(3,9)                  1.3911         -DE/DX =    0.0                 !
 ! R7    R(5,6)                  1.0792         -DE/DX =    0.0                 !
 ! R8    R(7,8)                  1.0833         -DE/DX =    0.0                 !
 ! R9    R(8,9)                  1.3839         -DE/DX =    0.0                 !
 ! A1    A(5,1,8)              104.3228         -DE/DX =    0.0                 !
 ! A2    A(4,3,5)              132.2541         -DE/DX =    0.0                 !
 ! A3    A(4,3,9)              121.8385         -DE/DX =    0.0                 !
 ! A4    A(5,3,9)              105.9074         -DE/DX =    0.0                 !
 ! A5    A(1,5,3)              111.2116         -DE/DX =    0.0                 !
 ! A6    A(1,5,6)              121.0147         -DE/DX =    0.0                 !
 ! A7    A(3,5,6)              127.7737         -DE/DX =    0.0                 !
 ! A8    A(1,8,7)              126.2631         -DE/DX =    0.0                 !
 ! A9    A(1,8,9)              112.0329         -DE/DX =    0.0                 !
 ! A10   A(7,8,9)              121.704          -DE/DX =    0.0                 !
 ! A11   A(2,9,3)              126.6986         -DE/DX =    0.0                 !
 ! A12   A(2,9,8)              126.776          -DE/DX =    0.0                 !
 ! A13   A(3,9,8)              106.5254         -DE/DX =    0.0                 !
 ! D1    D(8,1,5,3)              0.0            -DE/DX =    0.0                 !
 ! D2    D(8,1,5,6)            180.0            -DE/DX =    0.0                 !
 ! D3    D(5,1,8,7)            180.0            -DE/DX =    0.0                 !
 ! D4    D(5,1,8,9)              0.0            -DE/DX =    0.0                 !
 ! D5    D(4,3,5,1)            180.0            -DE/DX =    0.0                 !
 ! D6    D(4,3,5,6)              0.0            -DE/DX =    0.0                 !
 ! D7    D(9,3,5,1)              0.0            -DE/DX =    0.0                 !
 ! D8    D(9,3,5,6)            180.0            -DE/DX =    0.0                 !
 ! D9    D(4,3,9,2)              0.0            -DE/DX =    0.0                 !
 ! D10   D(4,3,9,8)            180.0            -DE/DX =    0.0                 !
 ! D11   D(5,3,9,2)            180.0            -DE/DX =    0.0                 !
 ! D12   D(5,3,9,8)              0.0            -DE/DX =    0.0                 !
 ! D13   D(1,8,9,2)            180.0            -DE/DX =    0.0                 !
 ! D14   D(1,8,9,3)              0.0            -DE/DX =    0.0                 !
 ! D15   D(7,8,9,2)              0.0            -DE/DX =    0.0                 !
 ! D16   D(7,8,9,3)            180.0            -DE/DX =    0.0                 !
 --------------------------------------------------------------------------------
 GradGradGradGradGradGradGradGradGradGradGradGradGradGradGradGradGradGrad

                          Input orientation:                          
 ---------------------------------------------------------------------
 Center     Atomic     Atomic              Coordinates (Angstroms)
 Number     Number      Type              X           Y           Z
 ---------------------------------------------------------------------
    1          7             0       -0.764355   -0.996339    0.000000
    2          1             0        0.001621    2.127727    0.000000
    3          6             0        1.121525    0.278200    0.000000
    4          1             0        2.124848    0.675496    0.000000
    5          6             0        0.646347   -0.982549    0.000000
    6          1             0        1.211406   -1.901946    0.000000
    7          1             0       -2.111131    0.670497    0.000000
    8          6             0       -1.102377    0.275572    0.000000
    9          7             0        0.004111    1.106822    0.000000
 ---------------------------------------------------------------------
                    Distance matrix (angstroms):
                    1          2          3          4          5
     1  N    0.000000
     2  H    3.216599   0.000000
     3  C    2.276180   2.162160   0.000000
     4  H    3.338042   2.572366   1.079120   0.000000
     5  C    1.410769   3.176396   1.347325   2.221504   0.000000
     6  H    2.173420   4.207356   2.181998   2.734517   1.079158
     7  H    2.142930   2.566562   3.256373   4.235982   3.215004
     8  C    1.316061   2.156222   2.223904   3.251910   2.154276
     9  N    2.239157   1.020908   1.391125   2.164155   2.185850
                    6          7          8          9
     6  H    0.000000
     7  H    4.201989   0.000000
     8  C    3.177290   1.083306   0.000000
     9  N    3.241950   2.159775   1.383941   0.000000
 Stoichiometry    C3H4N2
 Framework group  CS[SG(C3H4N2)]
 Deg. of freedom    15
 Full point group                 CS      NOp   2
 Largest Abelian subgroup         CS      NOp   2
 Largest concise Abelian subgroup C1      NOp   1
                         Standard orientation:                         
 ---------------------------------------------------------------------
 Center     Atomic     Atomic              Coordinates (Angstroms)
 Number     Number      Type              X           Y           Z
 ---------------------------------------------------------------------
    1          7             0       -0.755331   -0.994750    0.000000
    2          1             0       -0.008858    2.134033    0.000000
    3          6             0        1.122562    0.291528    0.000000
    4          1             0        2.123386    0.695075    0.000000
    5          6             0        0.655257   -0.972161    0.000000
    6          1             0        1.226040   -1.888015    0.000000
    7          1             0       -2.112479    0.663653    0.000000
    8          6             0       -1.101281    0.275027    0.000000
    9          7             0        0.000000    1.113163    0.000000
 ---------------------------------------------------------------------
 Rotational constants (GHZ):      9.6111615      9.3034403      4.7273989

 **********************************************************************

            Population analysis using the SCF density.

 **********************************************************************

 Orbital symmetries:
       Occupied  (A') (A') (A') (A') (A') (A') (A') (A') (A') (A')
                 (A') (A') (A") (A') (A') (A') (A") (A")
       Virtual   (A") (A") (A') (A') (A') (A') (A') (A') (A') (A')
                 (A')
 The electronic state is 1-A'.
 Alpha  occ. eigenvalues --  -15.41878 -15.30638 -11.09305 -11.06261 -11.02757
 Alpha  occ. eigenvalues --   -1.26953  -1.09510  -0.95097  -0.76042  -0.73516
 Alpha  occ. eigenvalues --   -0.70235  -0.54417  -0.54265  -0.53994  -0.49934
 Alpha  occ. eigenvalues --   -0.34747  -0.31872  -0.27351
 Alpha virt. eigenvalues --    0.30369   0.37906   0.54972   0.61809   0.62090
 Alpha virt. eigenvalues --    0.67988   0.73219   0.77990   0.92515   0.97743
 Alpha virt. eigenvalues --    1.08163
          Condensed to atoms (all electrons):
              1          2          3          4          5          6
     1  N    6.519685   0.001400  -0.039962   0.000957   0.386553  -0.019856
     2  H    0.001400   0.470868  -0.024661  -0.001470   0.002384  -0.000040
     3  C   -0.039962  -0.024661   4.779753   0.394706   0.566255  -0.023988
     4  H    0.000957  -0.001470   0.394706   0.560504  -0.017800  -0.001089
     5  C    0.386553   0.002384   0.566255  -0.017800   4.821844   0.395532
     6  H   -0.019856  -0.000040  -0.023988  -0.001089   0.395532   0.574948
     7  H   -0.020357  -0.000995   0.001680  -0.000026   0.002701  -0.000035
     8  C    0.480217  -0.024390  -0.072718   0.001904  -0.071390   0.002590
     9  N   -0.041824   0.351580   0.404543  -0.018741  -0.063072   0.001186
              7          8          9
     1  N   -0.020357   0.480217  -0.041824
     2  H   -0.000995  -0.024390   0.351580
     3  C    0.001680  -0.072718   0.404543
     4  H   -0.000026   0.001904  -0.018741
     5  C    0.002701  -0.071390  -0.063072
     6  H   -0.000035   0.002590   0.001186
     7  H    0.562275   0.392990  -0.022656
     8  C    0.392990   4.758699   0.405689
     9  N   -0.022656   0.405689   6.295832
 Mulliken atomic charges:
              1
     1  N   -0.266814
     2  H    0.225325
     3  C    0.014393
     4  H    0.081054
     5  C   -0.023006
     6  H    0.070753
     7  H    0.084424
     8  C    0.126409
     9  N   -0.312538
 Sum of Mulliken charges=   0.00000
 Atomic charges with hydrogens summed into heavy atoms:
              1
     1  N   -0.266814
     2  H    0.000000
     3  C    0.095447
     4  H    0.000000
     5  C    0.047747
     6  H    0.000000
     7  H    0.000000
     8  C    0.210833
     9  N   -0.087213
 Sum of Mulliken charges=   0.00000
 Electronic spatial extent (au):  <R**2>=   284.0829
 Charge=     0.0000 electrons
 Dipole moment (field-independent basis, Debye):
    X=     1.0597    Y=     3.3725    Z=     0.0000  Tot=     3.5351
 Quadrupole moment (field-independent basis, Debye-Ang):
   XX=   -25.4656   YY=   -24.9997   ZZ=   -28.2681
   XY=    -2.7330   XZ=     0.0000   YZ=     0.0000
 Traceless Quadrupole moment (field-independent basis, Debye-Ang):
   XX=     0.7789   YY=     1.2448   ZZ=    -2.0236
   XY=    -2.7330   XZ=     0.0000   YZ=     0.0000
 Octapole moment (field-independent basis, Debye-Ang**2):
  XXX=    -0.3223  YYY=    14.1615  ZZZ=     0.0000  XYY=     4.1339
  XXY=     5.2294  XXZ=     0.0000  XZZ=    -0.9284  YZZ=     0.3386
  YYZ=     0.0000  XYZ=     0.0000
 Hexadecapole moment (field-independent basis, Debye-Ang**3):
 XXXX=  -152.1734 YYYY=  -131.6567 ZZZZ=   -21.0802 XXXY=    -0.6075
 XXXZ=     0.0000 YYYX=    -5.2351 YYYZ=     0.0000 ZZZX=     0.0000
 ZZZY=     0.0000 XXYY=   -53.4465 XXZZ=   -33.0421 YYZZ=   -30.5351
 XXYZ=     0.0000 YYXZ=     0.0000 ZZXY=     1.1848
 N-N= 1.621916478900D+02 E-N=-8.432055520177D+02  KE= 2.198216764114D+02
 Symmetry A'   KE= 2.108200754754D+02
 Symmetry A"   KE= 9.001600936031D+00
 1|1|UNPC-UNK|FOpt|RHF|STO-3G|C3H4N2|PCUSER|23-Jul-2004|0||#HF/STO-3G O
 PT FREQ||1himidaz 1H-Imidazole casno=288324 method=1 basis=20||0,1|N,-
 0.761521539,-0.9900191497,0.|H,0.0044542577,2.1340466768,0.|C,1.124358
 5921,0.2845199912,0.|H,2.1276807463,0.681815963,0.|C,0.6491802186,-0.9
 762294832,0.|H,1.2142389231,-1.8956259756,0.|H,-2.1082980616,0.6768168
 501,0.|C,-1.099543943,0.2818912847,0.|N,0.0069436716,1.1131413968,0.||
 Version=x86-Win32-G03RevB.05|State=1-A'|HF=-221.9879949|RMSD=6.428e-00
 9|RMSF=3.473e-005|Dipole=0.4251754,1.3242174,0.|PG=CS [SG(C3H4N2)]||@


 Life may have no meaning.  Or even worse, it may have a
 meaning of which I disapprove.
                                 -- Ashleigh Brilliant
 Job cpu time:  0 days  0 hours  1 minutes 13.0 seconds.
 File lengths (MBytes):  RWF=     11 Int=      0 D2E=      0 Chk=      4 Scr=      1
 Normal termination of Gaussian 03 at Fri Jul 23 17:05:54 2004.
 Link1:  Proceeding to internal job step number  2.
 -------------------------------------------------------------
 #N Geom=AllCheck Guess=Read SCRF=Check GenChk RHF/STO-3G Freq
 -------------------------------------------------------------
 1/10=4,29=7,30=1,38=1,40=1,46=1/1,3;
 2/40=1/2;
 3/6=3,11=1,16=1,25=1,30=1,70=2,71=2/1,2,3;
 4/5=1,7=1/1;
 5/5=2,38=6/2;
 8/6=4,10=90,11=11,27=786432000/1;
 10/13=10/2;
 11/6=2,8=1,9=11,15=111,16=1/1,2,10;
 10/6=1/2;
 6/7=2,8=2,9=2,10=2,18=1,28=1/1;
 7/8=1,10=1,25=1/1,2,3,16;
 1/10=4,30=1,46=1/3;
 99//99;
 ----------------------------------------------------
 1himidaz 1H-Imidazole casno=288324 method=1 basis=20
 ----------------------------------------------------
 Redundant internal coordinates taken from checkpoint file:
 gxx.chk
 Charge =  0 Multiplicity = 1
 N,0,-0.761521539,-0.9900191497,0.
 H,0,0.0044542577,2.1340466768,0.
 C,0,1.1243585921,0.2845199912,0.
 H,0,2.1276807463,0.681815963,0.
 C,0,0.6491802186,-0.9762294832,0.
 H,0,1.2142389231,-1.8956259756,0.
 H,0,-2.1082980616,0.6768168501,0.
 C,0,-1.099543943,0.2818912847,0.
 N,0,0.0069436716,1.1131413968,0.
 Recover connectivity data from disk.

 GradGradGradGradGradGradGradGradGradGradGradGradGradGradGradGradGradGrad
 Berny optimization.
 Initialization pass.
                           ----------------------------
                           !    Initial Parameters    !
                           ! (Angstroms and Degrees)  !
 --------------------------                            --------------------------
 ! Name  Definition              Value          Derivative Info.                !
 --------------------------------------------------------------------------------
 ! R1    R(1,5)                  1.4108         calculate D2E/DX2 analytically  !
 ! R2    R(1,8)                  1.3161         calculate D2E/DX2 analytically  !
 ! R3    R(2,9)                  1.0209         calculate D2E/DX2 analytically  !
 ! R4    R(3,4)                  1.0791         calculate D2E/DX2 analytically  !
 ! R5    R(3,5)                  1.3473         calculate D2E/DX2 analytically  !
 ! R6    R(3,9)                  1.3911         calculate D2E/DX2 analytically  !
 ! R7    R(5,6)                  1.0792         calculate D2E/DX2 analytically  !
 ! R8    R(7,8)                  1.0833         calculate D2E/DX2 analytically  !
 ! R9    R(8,9)                  1.3839         calculate D2E/DX2 analytically  !
 ! A1    A(5,1,8)              104.3228         calculate D2E/DX2 analytically  !
 ! A2    A(4,3,5)              132.2541         calculate D2E/DX2 analytically  !
 ! A3    A(4,3,9)              121.8385         calculate D2E/DX2 analytically  !
 ! A4    A(5,3,9)              105.9074         calculate D2E/DX2 analytically  !
 ! A5    A(1,5,3)              111.2116         calculate D2E/DX2 analytically  !
 ! A6    A(1,5,6)              121.0147         calculate D2E/DX2 analytically  !
 ! A7    A(3,5,6)              127.7737         calculate D2E/DX2 analytically  !
 ! A8    A(1,8,7)              126.2631         calculate D2E/DX2 analytically  !
 ! A9    A(1,8,9)              112.0329         calculate D2E/DX2 analytically  !
 ! A10   A(7,8,9)              121.704          calculate D2E/DX2 analytically  !
 ! A11   A(2,9,3)              126.6986         calculate D2E/DX2 analytically  !
[...]
 Red. masses --     1.0945                 1.1155                 1.0853
 Frc consts  --     9.1021                 9.4577                10.9228
 IR Inten    --    24.8099                10.4414                95.9746
 Raman Activ --    39.6684                54.9839                63.3623
 Depolar (P) --     0.7351                 0.1370                 0.2882
 Depolar (U) --     0.8473                 0.2409                 0.4475
 Atom AN      X      Y      Z        X      Y      Z        X      Y      Z
   1   7     0.00   0.00   0.00     0.00   0.00   0.00     0.00   0.00   0.00
   2   1     0.00  -0.02   0.00     0.00  -0.03   0.00    -0.01   1.00   0.00
   3   6    -0.04  -0.01   0.00    -0.07  -0.03   0.00    -0.01   0.00   0.00
   4   1     0.50   0.20   0.00     0.71   0.29   0.00     0.02   0.01   0.00
   5   6     0.03  -0.05   0.00    -0.03   0.06   0.00     0.00   0.00   0.00
   6   1    -0.38   0.61   0.00     0.33  -0.53   0.00     0.00  -0.01   0.00
   7   1    -0.41   0.16   0.00    -0.08   0.03   0.00    -0.02   0.01   0.00
   8   6     0.04  -0.01   0.00     0.01   0.00   0.00     0.01   0.00   0.00
   9   7     0.00   0.00   0.00     0.00   0.00   0.00     0.00  -0.08   0.00

 -------------------
 - Thermochemistry -
 -------------------
 Temperature   298.150 Kelvin.  Pressure   1.00000 Atm.
 Atom  1 has atomic number  7 and mass  14.00307
 Atom  2 has atomic number  1 and mass   1.00783
 Atom  3 has atomic number  6 and mass  12.00000
 Atom  4 has atomic number  1 and mass   1.00783
 Atom  5 has atomic number  6 and mass  12.00000
 Atom  6 has atomic number  1 and mass   1.00783
 Atom  7 has atomic number  1 and mass   1.00783
 Atom  8 has atomic number  6 and mass  12.00000
 Atom  9 has atomic number  7 and mass  14.00307
 Molecular mass:    68.03745 amu.
 Principal axes and moments of inertia in atomic units:
                           1         2         3
     EIGENVALUES --   187.77556 193.98643 381.76199
           X            0.66502   0.74683   0.00000
           Y            0.74683  -0.66502   0.00000
           Z            0.00000   0.00000   1.00000
 This molecule is an asymmetric top.
 Rotational symmetry number  1.
 Rotational temperatures (Kelvin)      0.46126     0.44649     0.22688
 Rotational constants (GHZ):           9.61116     9.30344     4.72740
 Zero-point vibrational energy     213750.8 (Joules/Mol)
                                   51.08766 (Kcal/Mol)
 Warning -- explicit consideration of   1 degrees of freedom as
           vibrations may cause significant error
 Vibrational temperatures:    698.92  1007.82  1053.21  1321.78  1403.44
          (Kelvin)           1458.61  1501.98  1541.67  1739.21  1775.52
                             1833.91  1882.01  2068.18  2284.92  2433.02
                             2552.91  2651.74  5397.75  5405.44  5457.92
                             5946.59
 
 Zero-point correction=                           0.081413 (Hartree/Particle)
 Thermal correction to Energy=                    0.084947
 Thermal correction to Enthalpy=                  0.085891
 Thermal correction to Gibbs Free Energy=         0.055187
 Sum of electronic and zero-point Energies=           -221.906582
 Sum of electronic and thermal Energies=              -221.903048
 Sum of electronic and thermal Enthalpies=            -221.902104
 Sum of electronic and thermal Free Energies=         -221.932808
 
                     E (Thermal)             CV                S
                      KCal/Mol        Cal/Mol-Kelvin    Cal/Mol-Kelvin
 Total                   53.305             11.643             64.623
 Electronic               0.000              0.000              0.000
 Translational            0.889              2.981             38.570
 Rotational               0.889              2.981             24.146
 Vibrational             51.528              5.681              1.908
 Vibration  1             0.842              1.282              0.695
                       Q            Log10(Q)             Ln(Q)
 Total Bot       0.413033D-25        -25.384016        -58.448856
 Total V=0       0.115733D+13         12.063455         27.777133
 Vib (Bot)       0.443567D-37        -37.353041        -86.008555
 Vib (Bot)  1    0.342579D+00         -0.465239         -1.071252
 Vib (V=0)       0.124288D+01          0.094430          0.217434
 Vib (V=0)  1    0.110610D+01          0.043795          0.100843
 Electronic      0.100000D+01          0.000000          0.000000
 Translational   0.220586D+08          7.343577         16.909211
 Rotational      0.422132D+05          4.625448         10.650487
 ***** Axes restored to original set *****
 -------------------------------------------------------------------
 Center     Atomic                   Forces (Hartrees/Bohr)
 Number     Number              X              Y              Z
 -------------------------------------------------------------------
    1          7          -0.000033573   -0.000019982    0.000000000
    2          1           0.000001696    0.000020457    0.000000000
    3          6          -0.000012894   -0.000096682    0.000000000
    4          1          -0.000031503   -0.000000803    0.000000000
    5          6           0.000105550    0.000042692    0.000000000
    6          1          -0.000022451    0.000015556    0.000000000
    7          1           0.000028302   -0.000008319    0.000000000
    8          6          -0.000051250   -0.000004084    0.000000000
    9          7           0.000016122    0.000051166    0.000000000
 -------------------------------------------------------------------
 Cartesian Forces:  Max     0.000105550 RMS     0.000034724

 GradGradGradGradGradGradGradGradGradGradGradGradGradGradGradGradGradGrad
 Berny optimization.
 Internal  Forces:  Max     0.000065620 RMS     0.000018872
 Search for a local minimum.
 Step number   1 out of a maximum of   2
 All quantities printed in internal units (Hartrees-Bohrs-Radians)
 Second derivative matrix not updated -- analytic derivatives used.
     Eigenvalues ---    0.00478   0.01831   0.03008   0.03760   0.06807
     Eigenvalues ---    0.07388   0.12588   0.13408   0.13883   0.14996
     Eigenvalues ---    0.29036   0.32178   0.45993   0.49394   0.49771
     Eigenvalues ---    0.49938   0.51938   0.56647   0.60581   0.65921
     Eigenvalues ---    0.765141000.000001000.000001000.000001000.00000
     Eigenvalues --- 1000.000001000.000001000.000001000.000001000.00000
     Eigenvalues --- 1000.000001000.000001000.000001000.000001000.00000
     Eigenvalues --- 1000.000001000.000001000.00000
 Angle between quadratic step and forces=  28.36 degrees.
 Linear search not attempted -- first point.
 Iteration  1 RMS(Cart)=  0.00004325 RMS(Int)=  0.00000000
 Iteration  2 RMS(Cart)=  0.00000000 RMS(Int)=  0.00000000
 Variable       Old X    -DE/DX   Delta X   Delta X   Delta X     New X
                                 (Linear)    (Quad)   (Total)
    R1        2.66597   0.00004   0.00000   0.00013   0.00013   2.66610
    R2        2.48699   0.00002   0.00000   0.00000   0.00000   2.48699
    R3        1.92924   0.00002   0.00000   0.00003   0.00003   1.92927
    R4        2.03924  -0.00003   0.00000  -0.00005  -0.00005   2.03919
    R5        2.54607  -0.00007   0.00000  -0.00014  -0.00014   2.54594
    R6        2.62885   0.00002   0.00000   0.00006   0.00006   2.62890
    R7        2.03931  -0.00003   0.00000  -0.00005  -0.00005   2.03926
    R8        2.04715  -0.00003   0.00000  -0.00006  -0.00006   2.04710
    R9        2.61527   0.00003   0.00000   0.00008   0.00008   2.61535
    A1        1.82078   0.00000   0.00000  -0.00001  -0.00001   1.82077
    A2        2.30827  -0.00001   0.00000   0.00003   0.00003   2.30830
    A3        2.12648  -0.00003   0.00000  -0.00013  -0.00013   2.12635
    A4        1.84843   0.00003   0.00000   0.00010   0.00010   1.84853
    A5        1.94101   0.00000   0.00000  -0.00003  -0.00003   1.94098
    A6        2.11211  -0.00001   0.00000  -0.00009  -0.00009   2.11202
    A7        2.23007   0.00001   0.00000   0.00012   0.00012   2.23019
    A8        2.20371   0.00000   0.00000   0.00000   0.00000   2.20371
    A9        1.95534   0.00000   0.00000   0.00002   0.00002   1.95536
   A10        2.12414   0.00000   0.00000  -0.00003  -0.00003   2.12411
   A11        2.21131   0.00001   0.00000   0.00001   0.00001   2.21132
   A12        2.21266   0.00001   0.00000   0.00006   0.00006   2.21272
   A13        1.85922  -0.00002   0.00000  -0.00008  -0.00008   1.85914
    D1        0.00000   0.00000   0.00000   0.00000   0.00000   0.00000
    D2        3.14159   0.00000   0.00000   0.00000   0.00000   3.14159
    D3        3.14159   0.00000   0.00000   0.00000   0.00000   3.14159
    D4        0.00000   0.00000   0.00000   0.00000   0.00000   0.00000
    D5        3.14159   0.00000   0.00000   0.00000   0.00000   3.14159
    D6        0.00000   0.00000   0.00000   0.00000   0.00000   0.00000
    D7        0.00000   0.00000   0.00000   0.00000   0.00000   0.00000
    D8        3.14159   0.00000   0.00000   0.00000   0.00000   3.14159
    D9        0.00000   0.00000   0.00000   0.00000   0.00000   0.00000
   D10        3.14159   0.00000   0.00000   0.00000   0.00000   3.14159
   D11        3.14159   0.00000   0.00000   0.00000   0.00000   3.14159
   D12        0.00000   0.00000   0.00000   0.00000   0.00000   0.00000
   D13        3.14159   0.00000   0.00000   0.00000   0.00000   3.14159
   D14        0.00000   0.00000   0.00000   0.00000   0.00000   0.00000
   D15        0.00000   0.00000   0.00000   0.00000   0.00000   0.00000
   D16        3.14159   0.00000   0.00000   0.00000   0.00000   3.14159
         Item               Value     Threshold  Converged?
 Maximum Force            0.000066     0.000450     YES
 RMS     Force            0.000019     0.000300     YES
 Maximum Displacement     0.000139     0.001800     YES
 RMS     Displacement     0.000043     0.001200     YES
 Predicted change in Energy=-1.738640D-08
 Optimization completed.
    -- Stationary point found.
                           ----------------------------
                           !   Optimized Parameters   !
                           ! (Angstroms and Degrees)  !
 --------------------------                            --------------------------
 ! Name  Definition              Value          Derivative Info.                !
 --------------------------------------------------------------------------------
 ! R1    R(1,5)                  1.4108         -DE/DX =    0.0                 !
 ! R2    R(1,8)                  1.3161         -DE/DX =    0.0                 !
 ! R3    R(2,9)                  1.0209         -DE/DX =    0.0                 !
 ! R4    R(3,4)                  1.0791         -DE/DX =    0.0                 !
 ! R5    R(3,5)                  1.3473         -DE/DX =   -0.0001              !
 ! R6    R(3,9)                  1.3911         -DE/DX =    0.0                 !
 ! R7    R(5,6)                  1.0792         -DE/DX =    0.0                 !
 ! R8    R(7,8)                  1.0833         -DE/DX =    0.0                 !
 ! R9    R(8,9)                  1.3839         -DE/DX =    0.0                 !
 ! A1    A(5,1,8)              104.3228         -DE/DX =    0.0                 !
 ! A2    A(4,3,5)              132.2541         -DE/DX =    0.0                 !
 ! A3    A(4,3,9)              121.8385         -DE/DX =    0.0                 !
 ! A4    A(5,3,9)              105.9074         -DE/DX =    0.0                 !
 ! A5    A(1,5,3)              111.2116         -DE/DX =    0.0                 !
 ! A6    A(1,5,6)              121.0147         -DE/DX =    0.0                 !
 ! A7    A(3,5,6)              127.7737         -DE/DX =    0.0                 !
 ! A8    A(1,8,7)              126.2631         -DE/DX =    0.0                 !
 ! A9    A(1,8,9)              112.0329         -DE/DX =    0.0                 !
 ! A10   A(7,8,9)              121.704          -DE/DX =    0.0                 !
 ! A11   A(2,9,3)              126.6986         -DE/DX =    0.0                 !
 ! A12   A(2,9,8)              126.776          -DE/DX =    0.0                 !
 ! A13   A(3,9,8)              106.5254         -DE/DX =    0.0                 !
 ! D1    D(8,1,5,3)              0.0            -DE/DX =    0.0                 !
 ! D2    D(8,1,5,6)            180.0            -DE/DX =    0.0                 !
 ! D3    D(5,1,8,7)            180.0            -DE/DX =    0.0                 !
 ! D4    D(5,1,8,9)              0.0            -DE/DX =    0.0                 !
 ! D5    D(4,3,5,1)            180.0            -DE/DX =    0.0                 !
 ! D6    D(4,3,5,6)              0.0            -DE/DX =    0.0                 !
 ! D7    D(9,3,5,1)              0.0            -DE/DX =    0.0                 !
 ! D8    D(9,3,5,6)            180.0            -DE/DX =    0.0                 !
 ! D9    D(4,3,9,2)              0.0            -DE/DX =    0.0                 !
 ! D10   D(4,3,9,8)            180.0            -DE/DX =    0.0                 !
 ! D11   D(5,3,9,2)            180.0            -DE/DX =    0.0                 !
 ! D12   D(5,3,9,8)              0.0            -DE/DX =    0.0                 !
 ! D13   D(1,8,9,2)            180.0            -DE/DX =    0.0                 !
 ! D14   D(1,8,9,3)              0.0            -DE/DX =    0.0                 !
 ! D15   D(7,8,9,2)              0.0            -DE/DX =    0.0                 !
 ! D16   D(7,8,9,3)            180.0            -DE/DX =    0.0                 !
 --------------------------------------------------------------------------------
 GradGradGradGradGradGradGradGradGradGradGradGradGradGradGradGradGradGrad

 1|1|UNPC-UNK|Freq|RHF|STO-3G|C3H4N2|PCUSER|23-Jul-2004|0||#N GEOM=ALLC
 HECK GUESS=READ SCRF=CHECK GENCHK RHF/STO-3G FREQ||1himidaz 1H-Imidazo
 le casno=288324 method=1 basis=20||0,1|N,-0.761521539,-0.9900191497,0.
 |H,0.0044542577,2.1340466768,0.|C,1.1243585921,0.2845199912,0.|H,2.127
 6807463,0.681815963,0.|C,0.6491802186,-0.9762294832,0.|H,1.2142389231,
 -1.8956259756,0.|H,-2.1082980616,0.6768168501,0.|C,-1.099543943,0.2818
 912847,0.|N,0.0069436716,1.1131413968,0.||Version=x86-Win32-G03RevB.05
 |State=1-A'|HF=-221.9879949|RMSD=2.520e-009|RMSF=3.472e-005|Dipole=0.4
 251755,1.3242174,0.|DipoleDeriv=-0.2948775,0.1554063,0.,0.1303752,-0.4
 732135,0.,0.,0.,-0.2901609,0.1646806,0.0067896,0.,0.0044523,0.2658858,
 0.,0.,0.,0.3347065,-0.142346,-0.2674795,0.,0.0600515,0.3208987,0.,0.,0
 .,0.0394361,0.1522296,0.0642949,0.,0.0134818,0.0717665,0.,0.,0.,0.0966
 577,-0.0213789,-0.2270706,0.,-0.1522602,-0.056959,0.,0.,0.,-0.0708653,
 0.0309266,-0.0247779,0.,-0.0010129,0.1273803,0.,0.,0.,0.0655002,0.1531
 897,-0.0504229,0.,-0.0151808,0.0536942,0.,0.,0.,0.0714327,0.0987811,0.
 3359578,0.,-0.0125741,0.4398427,0.,0.,0.,0.1162892,-0.1412052,0.007302
 4,0.,-0.0273327,-0.7492957,0.,0.,0.,-0.3629962|Polar=28.3844528,-1.927
 8114,29.7494911,0.,0.,4.9126312|PolarDeriv=4.5117118,-2.6676123,-5.605
 8203,0.,0.,-0.6028717,-7.2466334,-1.4803465,-4.4304782,0.,0.,-0.980264
 ,0.,0.,0.,-0.0363981,-2.0843326,0.,-0.0119207,1.9858823,-0.0016143,0.,
 0.,0.0582084,0.2898916,-0.0875676,8.4475477,0.,0.,0.1034328,0.,0.,0.,-
 0.0122427,1.4074973,0.,2.4379639,1.1347051,1.9639412,0.,0.,0.2642847,4
 .7162664,0.2452391,0.1088105,0.,0.,0.3412722,0.,0.,0.,3.109882,2.19259
 41,0.,6.7280597,1.6044812,0.1741463,0.,0.,0.1886876,1.2358846,2.223875
 9,1.55358,0.,0.,0.0153429,0.,0.,0.,1.0753835,0.2401293,0.,-7.0693189,-
 0.9986338,3.3630562,0.,0.,0.3064063,-4.4624815,-0.4160698,-0.5194286,0
 .,0.,-0.3114937,0.,0.,0.,-0.9609139,-3.3352891,0.,2.3047016,-2.7097792
 ,1.6844876,0.,0.,0.1248655,-0.8108668,2.077089,-6.166356,0.,0.,-0.0607
 006,0.,0.,0.,1.0294588,-1.1491409,0.,-7.1186419,1.5119885,-0.159958,0.
 ,0.,-0.1089977,1.1509809,-2.3350942,1.4173016,0.,0.,0.0267703,0.,0.,0.
 ,-1.2750509,0.3084055,0.,-2.2193001,1.0714028,-1.4684931,0.,0.,-0.4188
 133,6.1233844,-0.6006647,-1.1001174,0.,0.,0.3887688,0.,0.,0.,-2.995379
 7,1.2615836,0.,0.4367446,-0.9324344,0.0502544,0.,0.,0.1882302,-0.99642
 62,0.3735388,0.6891404,0.,0.,0.4768713,0.,0.,0.,0.0652609,1.1585528,0.
 |HyperPolar=-4.1198878,3.5036911,4.6757047,16.22008,0.,0.,0.,1.1849118
 ,6.3421234,0.|PG=CS [SG(C3H4N2)]|NImag=0||0.57403760,-0.04593473,0.784
 88069,0.,0.,0.11785935,-0.00633337,-0.00766551,0.,0.07226505,-0.008380
 79,0.00541280,0.,-0.00149636,0.60531397,0.,0.,0.00688087,0.,0.,0.01090
 457,-0.05629368,0.00056508,0.,0.01761083,-0.01121849,0.,1.10715571,-0.
 12611145,0.01055510,0.,0.02960576,-0.00851213,0.,0.20374318,0.95339503
 ,0.,0.,0.02017217,0.,0.,-0.01008068,0.,0.,0.15647833,0.00358272,-0.002
 91547,0.,0.00149205,0.00007604,0.,-0.42977509,-0.14078403,0.,0.4404094
 8,-0.00388932,-0.00447302,0.,-0.00072158,0.00122316,0.,-0.15115108,-0.
 13835698,0.,0.14743877,0.12257461,0.,0.,0.00948077,0.,0.,-0.00180833,0
 .,0.,-0.03914741,0.,0.,0.02967468,-0.32504033,-0.01516798,0.,-0.009560
 32,0.00766917,0.,-0.20184655,-0.10325790,0.,0.00107433,-0.02820680,0.,
 0.77816440,-0.00132066,-0.13194577,0.,0.00483579,0.00426409,0.,-0.1709
 0686,-0.54280389,0.,0.00815298,0.00869483,0.,-0.13436703,1.18320066,0.
 ,0.,-0.08206543,0.,0.,0.00359882,0.,0.,-0.08755719,0.,0.,0.00295563,0.
 ,0.,0.17600745,-0.00889404,0.03333583,0.,0.00159341,-0.00004279,0.,0.0
 1300966,-0.01698609,0.,0.00080195,0.00095917,0.,-0.18385943,0.17973052
 ,0.,0.18577968,-0.00520391,0.01070990,0.,0.00112067,-0.00040649,0.,0.0
 2663910,-0.01151353,0.,-0.00116416,0.00056259,0.,0.17952248,-0.3797385
 6,0.,-0.19080189,0.38010428,0.,0.,-0.00577674,0.,0.,0.00257025,0.,0.,0
 .00160978,0.,0.,-0.00422965,0.,0.,-0.04338861,0.,0.,0.03322251,0.00124
 900,-0.00205549,0.,0.00111363,-0.00020802,0.,0.00446821,-0.00959988,0.
 ,-0.00086141,0.00074699,0.,0.00340484,0.00244837,0.,0.00058254,0.00008
 140,0.,0.43692516,0.03434893,-0.00053502,0.,0.00042543,0.00106710,0.,-
 0.00287217,-0.00654995,0.,-0.00074937,0.00154456,0.,0.00095033,-0.0068
 8562,0.,0.00186236,0.00080341,0.,-0.14298330,0.12622208,0.,0.,-0.00697
 646,0.,0.,-0.00157903,0.,0.,0.00348617,0.,0.,0.00183830,0.,0.,0.011985
 66,0.,0.,0.00100950,0.,0.,0.03062303,-0.17188739,0.10571571,0.,0.01905
 602,0.01139557,0.,-0.10929897,0.02793419,0.,0.00348238,0.00405347,0.,-
 0.06170244,0.04084532,0.,-0.00980981,-0.00285893,0.,-0.42656009,0.1380
 3845,0.,1.10706812,0.11460440,-0.54726249,0.,-0.02685994,-0.01145722,0
 .,-0.03668846,-0.01808106,0.,0.00908128,-0.00875661,0.,0.13292581,-0.0
 1936135,0.,-0.00336668,0.00140605,0.,0.13222666,-0.13105633,0.,-0.1852
 6008,0.95936451,0.,0.,-0.08394270,0.,0.,-0.01053683,0.,0.,0.01327035,0
 .,0.,0.00433245,0.,0.,0.00618598,0.,0.,0.00664991,0.,0.,-0.03857666,0.
 ,0.,0.16459549,-0.01042050,-0.06587744,0.,-0.09723729,0.00220567,0.,-0
 .34503012,0.13545622,0.,-0.02020641,0.03077038,0.,-0.00063451,0.070581
 58,0.,0.00079602,-0.00733476,0.,-0.02032188,-0.02902066,0.,-0.35034783
 ,-0.13666300,0.,0.84340252,0.04188753,-0.12734218,0.,0.00075573,-0.596
 90529,0.,0.14188971,-0.23813257,0.,-0.01913604,0.01698686,0.,-0.040068
 08,-0.11542438,0.,-0.00469044,-0.00192765,0.,0.01934327,0.01538977,0.,
 -0.13986369,-0.22479551,0.,-0.00011800,1.27215097,0.,0.,0.02436818,0.,
 0.,0.00005038,0.,0.,-0.05823151,0.,0.,-0.00309643,0.,0.,0.01227770,0.,
 0.,0.00833307,0.,0.,-0.00181050,0.,0.,-0.06197799,0.,0.,0.08008711||0.
 00003357,0.00001998,0.,-0.00000170,-0.00002046,0.,0.00001289,0.0000966
 8,0.,0.00003150,0.00000080,0.,-0.00010555,-0.00004269,0.,0.00002245,-0
 .00001556,0.,-0.00002830,0.00000832,0.,0.00005125,0.00000408,0.,-0.000
 01612,-0.00005117,0.|||@


 Life may have no meaning.  Or even worse, it may have a
 meaning of which I disapprove.
                                 -- Ashleigh Brilliant
 Job cpu time:  0 days  0 hours  0 minutes 26.0 seconds.
 File lengths (MBytes):  RWF=     11 Int=      0 D2E=      0 Chk=      4 Scr=      1
 Normal termination of Gaussian 03 at Fri Jul 23 17:06:20 2004.
