 Entering Gaussian System, Link 0=g98
 Initial command:
 /usr/local/apps/g98/g98/l1.exe /wrk/rdj3/Gau-28036.inp -scrdir=/wrk/rdj3/
 Entering Link 1 = /usr/local/apps/g98/g98/l1.exe PID=     28037.
  
 Copyright (c) 1988,1990,1992,1993,1995,1998 Gaussian, Inc.
                  All Rights Reserved.
  
 This is part of the Gaussian(R) 98 program.  It is based on
 the Gaussian 94(TM) system (copyright 1995 Gaussian, Inc.),
 the Gaussian 92(TM) system (copyright 1992 Gaussian, Inc.),
 the Gaussian 90(TM) system (copyright 1990 Gaussian, Inc.),
 the Gaussian 88(TM) system (copyright 1988 Gaussian, Inc.),
 the Gaussian 86(TM) system (copyright 1986 Carnegie Mellon
 University), and the Gaussian 82(TM) system (copyright 1983
 Carnegie Mellon University). Gaussian is a federally registered
 trademark of Gaussian, Inc.
  
 This software contains proprietary and confidential information,
 including trade secrets, belonging to Gaussian, Inc.
  
 This software is provided under written license and may be
 used, copied, transmitted, or stored only in accord with that
 written license.
  
 The following legend is applicable only to US Government
 contracts under DFARS:
  
                    RESTRICTED RIGHTS LEGEND
  
 Use, duplication or disclosure by the US Government is subject
 to restrictions as set forth in subparagraph (c)(1)(ii) of the
 Rights in Technical Data and Computer Software clause at DFARS
 252.227-7013.
  
 Gaussian, Inc.
 Carnegie Office Park, Building 6, Pittsburgh, PA 15106 USA
  
 The following legend is applicable only to US Government
 contracts under FAR:
  
                    RESTRICTED RIGHTS LEGEND
  
 Use, reproduction and disclosure by the US Government is subject
 to restrictions as set forth in subparagraph (c) of the
 Commercial Computer Software - Restricted Rights clause at FAR
 52.227-19.
  
 Gaussian, Inc.
 Carnegie Office Park, Building 6, Pittsburgh, PA 15106 USA
  
  
 ---------------------------------------------------------------
 Warning -- This program may not be used in any manner that
 competes with the business of Gaussian, Inc. or will provide
 assistance to any competitor of Gaussian, Inc.  The licensee
 of this program is prohibited from giving any competitor of
 Gaussian, Inc. access to this program.  By using this program,
 the user acknowledges that Gaussian, Inc. is engaged in the
 business of creating and licensing software in the field of
 computational chemistry and represents and warrants to the
 licensee that it is not a competitor of Gaussian, Inc. and that
 it will not use this program in any manner prohibited above.
 ---------------------------------------------------------------
  

 Cite this work as:
 Gaussian 98, Revision A.4,
 M. J. Frisch, G. W. Trucks, H. B. Schlegel, G. E. Scuseria, 
 M. A. Robb, J. R. Cheeseman, V. G. Zakrzewski, J. A. Montgomery, Jr., 
 R. E. Stratmann, J. C. Burant, S. Dapprich, J. M. Millam, 
 A. D. Daniels, K. N. Kudin, M. C. Strain, O. Farkas, J. Tomasi, 
 V. Barone, M. Cossi, R. Cammi, B. Mennucci, C. Pomelli, C. Adamo, 
 S. Clifford, J. Ochterski, G. A. Petersson, P. Y. Ayala, Q. Cui, 
 K. Morokuma, D. K. Malick, A. D. Rabuck, K. Raghavachari, 
 J. B. Foresman, J. Cioslowski, J. V. Ortiz, B. B. Stefanov, G. Liu, 
 A. Liashenko, P. Piskorz, I. Komaromi, R. Gomperts, R. L. Martin, 
 D. J. Fox, T. Keith, M. A. Al-Laham, C. Y. Peng, A. Nanayakkara, 
 C. Gonzalez, M. Challacombe, P. M. W. Gill, B. Johnson, W. Chen, 
 M. W. Wong, J. L. Andres, C. Gonzalez, M. Head-Gordon, 
 E. S. Replogle, and J. A. Pople, 
 Gaussian, Inc., Pittsburgh PA, 1998.

 *********************************************
 Gaussian 98:  x86-Linux-G98RevA.4 11-Sep-1998
                   3-Apr-2000 
 *********************************************
 %mem=24000000
 --------------------
 #HF/6-31G** opt freq
 --------------------
 1/18=20,38=1/1,3;
 2/9=110,17=6,18=5/2;
 3/5=1,6=6,7=101,11=9,25=1,30=1/1,2,3;
 4//1;
 5/5=2,38=4/2;
 6/7=2,8=2,9=2,10=2,28=1/1;
 7//1,2,3,16;
 1/18=20/3(1);
 99//99;
 2/9=110/2;
 3/5=1,6=6,7=101,11=9,25=1,30=1/1,2,3;
 4/5=5,16=2/1;
 5/5=2,38=4/2;
 7//1,2,3,16;
 1/18=20/3(-5);
 2/9=110/2;
 6/7=2,8=2,9=2,10=2,19=2,28=1/1;
 99/9=1/99;
 --------------------------------
 1H imidazole C3H4N2 casno=288324
 --------------------------------
 Symbolic Z-matrix:
 Charge =  0 Multiplicity = 1
 N                     0.30938   0.        1.30938 
 H                     0.3125    0.       -1.6875 
 C                    -1.06875   0.       -0.28438 
 H                    -1.91875   0.       -0.79063 
 C                    -0.93438   0.        1.02812 
 H                    -1.675     0.        1.6875 
 H                     1.91875   0.        0.09063 
 C                     0.93438   0.        0.19063 
 N                     0.09688   0.       -0.775 

 GradGradGradGradGradGradGradGradGradGradGradGradGradGradGradGradGradGrad
 Berny optimization.
 Initialization pass.
                         ----------------------------
                         !    Initial Parameters    !
                         ! (Angstroms and Degrees)  !
 ------------------------                            -------------------------
 ! Name  Definition              Value          Derivative Info.             !
 -----------------------------------------------------------------------------
 ! R1    R(1,5)                  1.2752         estimate D2E/DX2             !
 ! R2    R(1,8)                  1.2815         estimate D2E/DX2             !
 ! R3    R(2,9)                  0.9376         estimate D2E/DX2             !
 ! R4    R(3,4)                  0.9893         estimate D2E/DX2             !
 ! R5    R(3,5)                  1.3194         estimate D2E/DX2             !
 ! R6    R(3,9)                  1.2647         estimate D2E/DX2             !
 ! R7    R(5,6)                  0.9916         estimate D2E/DX2             !
 ! R8    R(7,8)                  0.9894         estimate D2E/DX2             !
 ! R9    R(8,9)                  1.2782         estimate D2E/DX2             !
 ! A1    A(5,1,8)              106.4483         estimate D2E/DX2             !
 ! A2    A(4,3,5)              126.6232         estimate D2E/DX2             !
 ! A3    A(4,3,9)              126.3957         estimate D2E/DX2             !
 ! A4    A(5,3,9)              106.9812         estimate D2E/DX2             !
 ! A5    A(1,5,3)              108.5877         estimate D2E/DX2             !
 ! A6    A(1,5,6)              125.5794         estimate D2E/DX2             !
 ! A7    A(3,5,6)              125.8329         estimate D2E/DX2             !
 ! A8    A(1,8,7)              124.9909         estimate D2E/DX2             !
 ! A9    A(1,8,9)              109.8741         estimate D2E/DX2             !
 ! A10   A(7,8,9)              125.1349         estimate D2E/DX2             !
 ! A11   A(2,9,3)              126.122          estimate D2E/DX2             !
 ! A12   A(2,9,8)              125.7693         estimate D2E/DX2             !
 ! A13   A(3,9,8)              108.1088         estimate D2E/DX2             !
 ! D1    D(8,1,5,3)              0.             estimate D2E/DX2             !
 ! D2    D(8,1,5,6)            180.             estimate D2E/DX2             !
 ! D3    D(5,1,8,7)            180.             estimate D2E/DX2             !
 ! D4    D(5,1,8,9)              0.             estimate D2E/DX2             !
 ! D5    D(4,3,5,1)            180.             estimate D2E/DX2             !
 ! D6    D(4,3,5,6)              0.             estimate D2E/DX2             !
 ! D7    D(9,3,5,1)              0.             estimate D2E/DX2             !
 ! D8    D(9,3,5,6)            180.             estimate D2E/DX2             !
 ! D9    D(4,3,9,2)              0.             estimate D2E/DX2             !
 ! D10   D(4,3,9,8)            180.             estimate D2E/DX2             !
 ! D11   D(5,3,9,2)            180.             estimate D2E/DX2             !
 ! D12   D(5,3,9,8)              0.             estimate D2E/DX2             !
 ! D13   D(1,8,9,2)            180.             estimate D2E/DX2             !
 ! D14   D(1,8,9,3)              0.             estimate D2E/DX2             !
 ! D15   D(7,8,9,2)              0.             estimate D2E/DX2             !
 ! D16   D(7,8,9,3)            180.             estimate D2E/DX2             !
 -----------------------------------------------------------------------------
 Trust Radius=3.00D-01 FncErr=1.00D-07 GrdErr=1.00D-07
 Number of steps in this run=  48 maximum allowed number of steps= 100.
 GradGradGradGradGradGradGradGradGradGradGradGradGradGradGradGradGradGrad

                          Input orientation:                          
 ---------------------------------------------------------------------
 Center     Atomic     Atomic              Coordinates (Angstroms)
 Number     Number      Type              X           Y           Z
 ---------------------------------------------------------------------
    1          7             0        0.309375    0.000000    1.309375
    2          1             0        0.312500    0.000000   -1.687500
    3          6             0       -1.068750    0.000000   -0.284375
    4          1             0       -1.918750    0.000000   -0.790625
    5          6             0       -0.934375    0.000000    1.028125
    6          1             0       -1.675000    0.000000    1.687500
    7          1             0        1.918750    0.000000    0.090625
    8          6             0        0.934375    0.000000    0.190625
    9          7             0        0.096875    0.000000   -0.775000
 ---------------------------------------------------------------------
                    Distance matrix (angstroms):
                    1          2          3          4          5
     1  N    0.000000
     2  H    2.996877   0.000000
     3  C    2.106957   1.968911   0.000000
     4  H    3.061787   2.404758   0.989338   0.000000
     5  C    1.275153   2.988196   1.319361   2.068054   0.000000
     6  H    2.020080   3.916731   2.062966   2.490084   0.991615
     7  H    2.018772   2.396199   3.010944   3.937386   3.003203
     8  C    1.281494   1.978404   2.058673   3.017147   2.047836
     9  N    2.095179   0.937630   1.264672   2.015686   2.077194
                    6          7          8          9
     6  H    0.000000
     7  H    3.932563   0.000000
     8  C    3.008234   0.989441   0.000000
     9  N    3.033718   2.017061   1.278217   0.000000
 Stoichiometry    C3H4N2
 Framework group  CS[SG(C3H4N2)]
 Deg. of freedom   15
 Full point group                 CS      NOp   2
 Largest Abelian subgroup         CS      NOp   2
 Largest concise Abelian subgroup C1      NOp   1
                         Standard orientation:                         
 ---------------------------------------------------------------------
 Center     Atomic     Atomic              Coordinates (Angstroms)
 Number     Number      Type              X           Y           Z
 ---------------------------------------------------------------------
    1          7             0       -0.674969   -0.941702    0.000000
    2          1             0       -0.005288    1.979393    0.000000
    3          6             0        1.025744    0.302019    0.000000
    4          1             0        1.967693    0.604544    0.000000
    5          6             0        0.600174   -0.946822    0.000000
    6          1             0        1.173884   -1.755622    0.000000
    7          1             0       -1.969692    0.607211    0.000000
    8          6             0       -1.032886    0.288794    0.000000
    9          7             0        0.000000    1.041778    0.000000
 ---------------------------------------------------------------------
 Rotational constants (GHZ):     11.1543393     10.4769603      5.4025219
 Isotopes: N-14,H-1,C-12,H-1,C-12,H-1,H-1,C-12,N-14
 Standard basis: 6-31G(d,p) (6D, 7F)
 There are    71 symmetry adapted basis functions of A'  symmetry.
 There are    24 symmetry adapted basis functions of A"  symmetry.
 Crude estimate of integral set expansion from redundant integrals=1.000.
 Integral buffers will be    262144 words long.
 Raffenetti 1 integral format.
 Two-electron integral symmetry is turned on.
    95 basis functions      168 primitive gaussians
    18 alpha electrons       18 beta electrons
       nuclear repulsion energy       173.5664837334 Hartrees.
 One-electron integrals computed using PRISM.
 NBasis=    95 RedAO= T  NBF=    71    24
 NBsUse=    95 1.00D-04 NBFU=    71    24
 Projected INDO Guess.
 Initial guess orbital symmetries:
       Occupied  (A') (A') (A') (A') (A') (A') (A') (A') (A') (A')
                 (A') (A") (A') (A') (A') (A") (A') (A")
       Virtual   (A") (A') (A') (A") (A') (A') (A') (A') (A') (A')
                 (A') (A') (A') (A') (A') (A') (A') (A') (A') (A')
                 (A') (A') (A') (A') (A') (A') (A') (A') (A') (A')
                 (A') (A') (A') (A') (A') (A') (A') (A') (A') (A')
                 (A') (A') (A') (A') (A') (A') (A') (A') (A') (A')
                 (A') (A') (A') (A') (A') (A') (A') (A') (A") (A")
                 (A") (A") (A") (A") (A") (A") (A") (A") (A") (A")
                 (A") (A") (A") (A") (A") (A") (A")
 Requested convergence on RMS density matrix=1.00D-08 within  64 cycles.
 Requested convergence on MAX density matrix=1.00D-06.
 Keep R1 integrals in memory in canonical form, NReq=    10871354.
 SCF Done:  E(RHF) =  -224.773688403     A.U. after   13 cycles
             Convg  =    0.6830D-08             -V/T =  1.9943
             S**2   =   0.0000

 **********************************************************************

            Population analysis using the SCF density.

 **********************************************************************

 Orbital Symmetries:
       Occupied  (A') (A') (A') (A') (A') (A') (A') (A') (A') (A')
                 (A') (A') (A") (A') (A') (A') (A") (A")
       Virtual   (A") (A') (A") (A') (A') (A') (A') (A') (A') (A')
                 (A') (A') (A") (A") (A') (A") (A') (A') (A') (A')
                 (A") (A') (A') (A') (A") (A') (A') (A') (A') (A')
                 (A") (A') (A') (A') (A") (A") (A') (A") (A") (A')
                 (A') (A') (A') (A') (A") (A') (A") (A') (A') (A")
                 (A") (A') (A") (A') (A') (A") (A') (A') (A') (A')
                 (A") (A") (A") (A') (A') (A') (A') (A') (A') (A')
                 (A') (A') (A') (A') (A') (A') (A')
  The electronic state is 1-A'.
 Alpha  occ. eigenvalues --  -15.61656 -15.51638 -11.25673 -11.21945 -11.20001
 Alpha  occ. eigenvalues --   -1.40867  -1.20111  -1.03054  -0.86319  -0.82587
 Alpha  occ. eigenvalues --   -0.79623  -0.63747  -0.63531  -0.60910  -0.58958
 Alpha  occ. eigenvalues --   -0.41539  -0.40804  -0.31083
 Alpha virt. eigenvalues --    0.21654   0.22714   0.27332   0.30536   0.32056
 Alpha virt. eigenvalues --    0.33976   0.42456   0.43568   0.50217   0.52198
 Alpha virt. eigenvalues --    0.69193   0.72925   0.75668   0.80299   0.82692
 Alpha virt. eigenvalues --    0.86790   0.87040   0.93048   0.95663   0.97951
 Alpha virt. eigenvalues --    1.02290   1.05227   1.06044   1.10540   1.12659
 Alpha virt. eigenvalues --    1.15085   1.16545   1.20397   1.28460   1.31572
 Alpha virt. eigenvalues --    1.48939   1.53232   1.54633   1.59264   1.63012
 Alpha virt. eigenvalues --    1.65244   1.73115   1.76656   1.83016   1.83313
 Alpha virt. eigenvalues --    2.05788   2.25706   2.29699   2.33754   2.37972
 Alpha virt. eigenvalues --    2.42259   2.48768   2.50712   2.59321   2.60971
 Alpha virt. eigenvalues --    2.62817   2.63854   2.77160   2.79040   2.85000
 Alpha virt. eigenvalues --    2.86985   2.91452   2.94374   2.99081   3.05248
 Alpha virt. eigenvalues --    3.08383   3.17709   3.31689   3.33262   3.47840
 Alpha virt. eigenvalues --    3.50217   3.64389   3.81456   3.86140   3.99232
 Alpha virt. eigenvalues --    4.28097   4.40644   4.50290   4.63263   4.72723
 Alpha virt. eigenvalues --    4.93465   5.44334
          Condensed to atoms (all electrons):
              1          2          3          4          5          6
  1  N    6.682656   0.005691  -0.116249   0.006325   0.505763  -0.032248
  2  H    0.005691   0.360122  -0.024989  -0.001590   0.004728  -0.000099
  3  C   -0.116249  -0.024989   4.869052   0.399575   0.676284  -0.053933
  4  H    0.006325  -0.001590   0.399575   0.502379  -0.022727   0.001746
  5  C    0.505763   0.004728   0.676284  -0.022727   4.617116   0.424595
  6  H   -0.032248  -0.000099  -0.053933   0.001746   0.424595   0.521623
  7  H   -0.029569  -0.000504   0.003656  -0.000118   0.005131  -0.000123
  8  C    0.611809  -0.023739  -0.145659   0.004644  -0.151773   0.006780
  9  N   -0.122829   0.378372   0.378954  -0.039363  -0.089484   0.003324
              7          8          9
  1  N   -0.029569   0.611809  -0.122829
  2  H   -0.000504  -0.023739   0.378372
  3  C    0.003656  -0.145659   0.378954
  4  H   -0.000118   0.004644  -0.039363
  5  C    0.005131  -0.151773  -0.089484
  6  H   -0.000123   0.006780   0.003324
  7  H    0.495073   0.432868  -0.053382
  8  C    0.432868   4.581505   0.419910
  9  N   -0.053382   0.419910   6.646924
 Total atomic charges:
              1
  1  N   -0.511350
  2  H    0.302010
  3  C    0.013310
  4  H    0.149130
  5  C    0.030367
  6  H    0.128335
  7  H    0.146968
  8  C    0.263656
  9  N   -0.522425
 Sum of Mulliken charges=   0.00000
 Atomic charges with hydrogens summed into heavy atoms:
              1
  1  N   -0.511350
  2  H    0.000000
  3  C    0.162440
  4  H    0.000000
  5  C    0.158702
  6  H    0.000000
  7  H    0.000000
  8  C    0.410624
  9  N   -0.220416
 Sum of Mulliken charges=   0.00000
 Electronic spatial extent (au):  <R**2>=   258.2282
 Charge=     0.0000 electrons
 Dipole moment (Debye):
    X=     1.1183    Y=     3.8329    Z=     0.0000  Tot=     3.9927
 Quadrupole moment (Debye-Ang):
   XX=   -26.3584   YY=   -25.3967   ZZ=   -30.6287
   XY=    -3.3984   XZ=     0.0000   YZ=     0.0000
 Octapole moment (Debye-Ang**2):
  XXX=     0.2496  YYY=    15.9819  ZZZ=     0.0000  XYY=     5.0426
  XXY=     5.4083  XXZ=     0.0000  XZZ=    -0.7371  YZZ=     1.2943
  YYZ=     0.0000  XYZ=     0.0000
 Hexadecapole moment (Debye-Ang**3):
 XXXX=  -136.6058 YYYY=  -126.0649 ZZZZ=   -29.5792 XXXY=    -3.2317
 XXXZ=     0.0000 YYYX=    -7.3095 YYYZ=     0.0000 ZZZX=     0.0000
 ZZZY=     0.0000 XXYY=   -50.8768 XXZZ=   -33.2663 YYZZ=   -31.5491
 XXYZ=     0.0000 YYXZ=     0.0000 ZZXY=     0.5445
 N-N= 1.735664837334D+02 E-N=-8.736599280877D+02  KE= 2.260605195253D+02
 Symmetry A'   KE= 2.181895819145D+02
 Symmetry A"   KE= 7.870937610859D+00
 ***** Axes restored to original set *****
 -------------------------------------------------------------------
 Center     Atomic                   Forces (Hartrees/Bohr)
 Number     Number              X              Y              Z
 -------------------------------------------------------------------
    1          7           0.090908979    0.000000000    0.064890043
    2          1           0.015852846    0.000000000   -0.066055685
    3          6          -0.078350975    0.000000000    0.030259583
    4          1          -0.063614575    0.000000000   -0.049045839
    5          6          -0.029532842    0.000000000   -0.025735516
    6          1          -0.054685910    0.000000000    0.056120284
    7          1           0.078996719    0.000000000   -0.010807772
    8          6          -0.000977593    0.000000000    0.055586885
    9          7           0.041403351    0.000000000   -0.055211982
 -------------------------------------------------------------------
 Cartesian Forces:  Max     0.090908979 RMS     0.044088270

 GradGradGradGradGradGradGradGradGradGradGradGradGradGradGradGradGradGrad
 Berny optimization.
 Internal  Forces:  Max     0.124913293 RMS     0.042291882
 Search for a local minimum.
 Step number   1 out of a maximum of  48
 All quantities printed in internal units (Hartrees-Bohrs-Radians)
 Second derivative matrix not updated -- first step.
     Eigenvalues ---    0.03211   0.03261   0.03288   0.03318   0.03352
     Eigenvalues ---    0.03407   0.16000   0.16000   0.16000   0.16000
     Eigenvalues ---    0.22000   0.22917   0.49193   0.49594   0.49613
     Eigenvalues ---    0.54578   0.60577   0.63413   0.68379   0.73836
     Eigenvalues ---    0.765081000.000001000.000001000.000001000.00000
     Eigenvalues --- 1000.000001000.000001000.000001000.000001000.00000
     Eigenvalues --- 1000.000001000.000001000.000001000.000001000.00000
     Eigenvalues --- 1000.000001000.000001000.00000
 RFO step:  Lambda=-9.35536315D-02.
 Linear search not attempted -- first point.
 Maximum step size (   0.300) exceeded in Quadratic search.
    -- Step size scaled by   0.817
 Iteration  1 RMS(Cart)=  0.06462510 RMS(Int)=  0.00054683
 Iteration  2 RMS(Cart)=  0.00062868 RMS(Int)=  0.00013280
 Iteration  3 RMS(Cart)=  0.00000045 RMS(Int)=  0.00013280
 Variable       Old X    -DE/DX   Delta X   Delta X   Delta X     New X
                                 (Linear)    (Quad)   (Total)
    R1        2.40969   0.11305   0.00000   0.10736   0.10729   2.51698
    R2        2.42167   0.03789   0.00000   0.03471   0.03447   2.45614
    R3        1.77186   0.06793   0.00000   0.07932   0.07932   1.85118
    R4        1.86958   0.07975   0.00000   0.11044   0.11044   1.98001
    R5        2.49323   0.06404   0.00000   0.07480   0.07500   2.56823
    R6        2.38988   0.12491   0.00000   0.12004   0.12023   2.51011
    R7        1.87388   0.07816   0.00000   0.10901   0.10901   1.98289
    R8        1.86977   0.07968   0.00000   0.11038   0.11038   1.98015
    R9        2.41548   0.09847   0.00000   0.09764   0.09755   2.51303
    A1        1.85787   0.00412   0.00000  -0.00650  -0.00689   1.85098
    A2        2.20999   0.01776   0.00000   0.04559   0.04540   2.25539
    A3        2.20602  -0.00017   0.00000  -0.01213  -0.01232   2.19370
    A4        1.86717  -0.01759   0.00000  -0.03346  -0.03308   1.83409
    A5        1.89521   0.01006   0.00000   0.02426   0.02440   1.91961
    A6        2.19177  -0.01023   0.00000  -0.02888  -0.02895   2.16282
    A7        2.19620   0.00017   0.00000   0.00462   0.00456   2.20075
    A8        2.18150  -0.00020   0.00000   0.00304   0.00317   2.18467
    A9        1.91767   0.00558   0.00000   0.01060   0.01034   1.92800
   A10        2.18402  -0.00538   0.00000  -0.01363  -0.01350   2.17051
   A11        2.20124   0.00130   0.00000  -0.00188  -0.00194   2.19930
   A12        2.19509   0.00088   0.00000  -0.00323  -0.00330   2.19179
   A13        1.88685  -0.00217   0.00000   0.00511   0.00524   1.89209
    D1        0.00000   0.00000   0.00000   0.00000   0.00000   0.00000
    D2        3.14159   0.00000   0.00000   0.00000   0.00000   3.14159
    D3        3.14159   0.00000   0.00000   0.00000   0.00000   3.14159
    D4        0.00000   0.00000   0.00000   0.00000   0.00000   0.00000
    D5        3.14159   0.00000   0.00000   0.00000   0.00000   3.14159
    D6        0.00000   0.00000   0.00000   0.00000   0.00000   0.00000
    D7        0.00000   0.00000   0.00000   0.00000   0.00000   0.00000
    D8       -3.14159   0.00000   0.00000   0.00000   0.00000  -3.14159
    D9        0.00000   0.00000   0.00000   0.00000   0.00000   0.00000
   D10        3.14159   0.00000   0.00000   0.00000   0.00000   3.14159
   D11        3.14159   0.00000   0.00000   0.00000   0.00000   3.14159
   D12        0.00000   0.00000   0.00000   0.00000   0.00000   0.00000
   D13        3.14159   0.00000   0.00000   0.00000   0.00000   3.14159
   D14        0.00000   0.00000   0.00000   0.00000   0.00000   0.00000
   D15        0.00000   0.00000   0.00000   0.00000   0.00000   0.00000
   D16        3.14159   0.00000   0.00000   0.00000   0.00000   3.14159
         Item               Value     Threshold  Converged?
 Maximum Force            0.124913     0.000450     NO 
 RMS     Force            0.042292     0.000300     NO 
 Maximum Displacement     0.181102     0.001800     NO 
 RMS     Displacement     0.064535     0.001200     NO 
 Predicted change in Energy=-2.698544D-02
 GradGradGradGradGradGradGradGradGradGradGradGradGradGradGradGradGradGrad

                          Input orientation:                          
 ---------------------------------------------------------------------
 Center     Atomic     Atomic              Coordinates (Angstroms)
 Number     Number      Type              X           Y           Z
 ---------------------------------------------------------------------
    1          7             0        0.481263    0.000000    1.107176
    2          1             0        0.478266    0.000000   -1.991279
    3          6             0       -0.985457    0.000000   -0.538162
    4          1             0       -1.872935    0.000000   -1.095137
    5          6             0       -0.817189    0.000000    0.810430
    6          1             0       -1.582020    0.000000    1.528807
    7          1             0        2.151564    0.000000   -0.144398
    8          6             0        1.109933    0.000000   -0.030401
    9          7             0        0.244387    0.000000   -1.040004
 ---------------------------------------------------------------------
                    Distance matrix (angstroms):
                    1          2          3          4          5
     1  N    0.000000
     2  H    3.098457   0.000000
     3  C    2.204179   2.062531   0.000000
     4  H    3.223729   2.516190   1.047778   0.000000
     5  C    1.331929   3.086710   1.359049   2.178482   0.000000
     6  H    2.105922   4.078699   2.151336   2.640022   1.049300
     7  H    2.087186   2.492167   3.161638   4.135275   3.118524
     8  C    1.299734   2.060108   2.156033   3.167201   2.102569
     9  N    2.160206   0.979604   1.328293   2.118040   2.133319
                    6          7          8          9
     6  H    0.000000
     7  H    4.091365   0.000000
     8  C    3.110907   1.047851   0.000000
     9  N    3.151913   2.106996   1.329837   0.000000
 Stoichiometry    C3H4N2
 Framework group  CS[SG(C3H4N2)]
 Deg. of freedom   15
 Full point group                 CS      NOp   2
 Largest Abelian subgroup         CS      NOp   2
 Largest concise Abelian subgroup C1      NOp   1
                         Standard orientation:                         
 ---------------------------------------------------------------------
 Center     Atomic     Atomic              Coordinates (Angstroms)
 Number     Number      Type              X           Y           Z
 ---------------------------------------------------------------------
    1          7             0       -0.714092   -0.965116    0.000000
    2          1             0       -0.013760    2.053156    0.000000
    3          6             0        1.085329    0.307866    0.000000
    4          1             0        2.075400    0.650792    0.000000
    5          6             0        0.617833   -0.968246    0.000000
    6          1             0        1.201342   -1.840340    0.000000
    7          1             0       -2.059824    0.630300    0.000000
    8          6             0       -1.070581    0.284773    0.000000
    9          7             0        0.000000    1.073649    0.000000
 ---------------------------------------------------------------------
 Rotational constants (GHZ):     10.2228737      9.8655049      5.0205053
 Isotopes: N-14,H-1,C-12,H-1,C-12,H-1,H-1,C-12,N-14
 Standard basis: 6-31G(d,p) (6D, 7F)
 There are    71 symmetry adapted basis functions of A'  symmetry.
 There are    24 symmetry adapted basis functions of A"  symmetry.
 Crude estimate of integral set expansion from redundant integrals=1.000.
 Integral buffers will be    262144 words long.
 Raffenetti 1 integral format.
 Two-electron integral symmetry is turned on.
    95 basis functions      168 primitive gaussians
    18 alpha electrons       18 beta electrons
       nuclear repulsion energy       167.1768778650 Hartrees.
 One-electron integrals computed using PRISM.
 NBasis=    95 RedAO= T  NBF=    71    24
 NBsUse=    95 1.00D-04 NBFU=    71    24
 Initial guess read from the read-write file:
 Initial guess orbital symmetries:
       Occupied  (A') (A') (A') (A') (A') (A') (A') (A') (A') (A')
                 (A') (A') (A") (A') (A') (A') (A") (A")
       Virtual   (A") (A') (A") (A') (A') (A') (A') (A') (A') (A')
                 (A') (A') (A") (A") (A') (A") (A') (A') (A') (A')
                 (A") (A') (A') (A') (A") (A') (A') (A') (A') (A')
                 (A") (A') (A') (A') (A") (A") (A') (A") (A") (A')
                 (A') (A') (A') (A') (A") (A') (A") (A') (A') (A")
                 (A") (A') (A") (A') (A') (A") (A') (A') (A') (A')
                 (A") (A") (A") (A') (A') (A') (A') (A') (A') (A')
                 (A') (A') (A') (A') (A') (A') (A')
 Requested convergence on RMS density matrix=1.00D-08 within  64 cycles.
 Requested convergence on MAX density matrix=1.00D-06.
 Keep R1 integrals in memory in canonical form, NReq=    10871354.
 SCF Done:  E(RHF) =  -224.819313518     A.U. after   13 cycles
             Convg  =    0.5583D-08             -V/T =  1.9998
             S**2   =   0.0000
 ***** Axes restored to original set *****
 -------------------------------------------------------------------
 Center     Atomic                   Forces (Hartrees/Bohr)
 Number     Number              X              Y              Z
 -------------------------------------------------------------------
    1          7           0.033110520    0.000000000    0.010309391
    2          1           0.003572929    0.000000000   -0.013768519
    3          6          -0.024237604    0.000000000    0.030655928
    4          1          -0.011577609    0.000000000   -0.014464863
    5          6          -0.016171699    0.000000000   -0.022816031
    6          1          -0.010300852    0.000000000    0.015081882
    7          1           0.017970590    0.000000000   -0.004556095
    8          6          -0.013537168    0.000000000    0.025509230
    9          7           0.021170893    0.000000000   -0.025950923
 -------------------------------------------------------------------
 Cartesian Forces:  Max     0.033110520 RMS     0.015741485

 GradGradGradGradGradGradGradGradGradGradGradGradGradGradGradGradGradGrad
 Berny optimization.
 Internal  Forces:  Max     0.036751288 RMS     0.010516051
 Search for a local minimum.
 Step number   2 out of a maximum of  48
 All quantities printed in internal units (Hartrees-Bohrs-Radians)
 Update second derivatives using information from points  1  2
 Trust test= 1.69D+00 RLast= 3.00D-01 DXMaxT set to 4.24D-01
     Eigenvalues ---    0.03209   0.03262   0.03288   0.03313   0.03351
     Eigenvalues ---    0.03406   0.15888   0.16000   0.16000   0.16002
     Eigenvalues ---    0.22149   0.22870   0.49304   0.49598   0.51205
     Eigenvalues ---    0.55827   0.61038   0.63752   0.69460   0.74466
     Eigenvalues ---    0.773541000.000001000.000001000.000001000.00000
     Eigenvalues --- 1000.000001000.000001000.000001000.000001000.00000
     Eigenvalues --- 1000.000001000.000001000.000001000.000001000.00000
     Eigenvalues --- 1000.000001000.000001000.00000
 RFO step:  Lambda=-2.45157975D-03.
 Quartic linear search produced a step of  0.37902.
 Iteration  1 RMS(Cart)=  0.02724534 RMS(Int)=  0.00050161
 Iteration  2 RMS(Cart)=  0.00058839 RMS(Int)=  0.00007463
 Iteration  3 RMS(Cart)=  0.00000038 RMS(Int)=  0.00007463
 Variable       Old X    -DE/DX   Delta X   Delta X   Delta X     New X
                                 (Linear)    (Quad)   (Total)
    R1        2.51698   0.03166   0.04067   0.01017   0.05071   2.56769
    R2        2.45614  -0.00124   0.01306  -0.01956  -0.00656   2.44958
    R3        1.85118   0.01422   0.03006  -0.00161   0.02845   1.87963
    R4        1.98001   0.01750   0.04186   0.00151   0.04337   2.02338
    R5        2.56823   0.00281   0.02843  -0.02459   0.00382   2.57205
    R6        2.51011   0.03675   0.04557   0.01581   0.06151   2.57162
    R7        1.98289   0.01783   0.04132   0.00348   0.04480   2.02769
    R8        1.98015   0.01836   0.04184   0.00395   0.04578   2.02593
    R9        2.51303   0.02086   0.03697  -0.00224   0.03482   2.54785
    A1        1.85098  -0.00027  -0.00261  -0.01497  -0.01783   1.83316
    A2        2.25539   0.00698   0.01721   0.03294   0.05009   2.30548
    A3        2.19370  -0.00509  -0.00467  -0.04663  -0.05135   2.14235
    A4        1.83409  -0.00189  -0.01254   0.01369   0.00127   1.83536
    A5        1.91961   0.00247   0.00925   0.00266   0.01179   1.93140
    A6        2.16282  -0.00514  -0.01097  -0.02784  -0.03876   2.12406
    A7        2.20075   0.00267   0.00173   0.02518   0.02697   2.22772
    A8        2.18467  -0.00040   0.00120   0.00411   0.00529   2.18996
    A9        1.92800   0.00590   0.00392   0.02843   0.03238   1.96038
   A10        2.17051  -0.00550  -0.00512  -0.03254  -0.03767   2.13284
   A11        2.19930   0.00327  -0.00074   0.01607   0.01523   2.21453
   A12        2.19179   0.00293  -0.00125   0.01374   0.01238   2.20418
   A13        1.89209  -0.00621   0.00199  -0.02980  -0.02761   1.86448
    D1        0.00000   0.00000   0.00000   0.00000   0.00000   0.00000
    D2        3.14159   0.00000   0.00000   0.00000   0.00000   3.14159
    D3        3.14159   0.00000   0.00000   0.00000   0.00000   3.14159
    D4        0.00000   0.00000   0.00000   0.00000   0.00000   0.00000
    D5        3.14159   0.00000   0.00000   0.00000   0.00000   3.14159
    D6        0.00000   0.00000   0.00000   0.00000   0.00000   0.00000
    D7        0.00000   0.00000   0.00000   0.00000   0.00000   0.00000
    D8        3.14159   0.00000   0.00000   0.00000   0.00000   3.14159
    D9        0.00000   0.00000   0.00000   0.00000   0.00000   0.00000
   D10        3.14159   0.00000   0.00000   0.00000   0.00000   3.14159
   D11        3.14159   0.00000   0.00000   0.00000   0.00000   3.14159
   D12        0.00000   0.00000   0.00000   0.00000   0.00000   0.00000
   D13        3.14159   0.00000   0.00000   0.00000   0.00000   3.14159
   D14        0.00000   0.00000   0.00000   0.00000   0.00000   0.00000
   D15        0.00000   0.00000   0.00000   0.00000   0.00000   0.00000
   D16        3.14159   0.00000   0.00000   0.00000   0.00000   3.14159
         Item               Value     Threshold  Converged?
 Maximum Force            0.036751     0.000450     NO 
 RMS     Force            0.010516     0.000300     NO 
 Maximum Displacement     0.092926     0.001800     NO 
 RMS     Displacement     0.027208     0.001200     NO 
 Predicted change in Energy=-5.418748D-03
 GradGradGradGradGradGradGradGradGradGradGradGradGradGradGradGradGradGrad

                          Input orientation:                          
 ---------------------------------------------------------------------
 Center     Atomic     Atomic              Coordinates (Angstroms)
 Number     Number      Type              X           Y           Z
 ---------------------------------------------------------------------
    1          7             0        0.491745    0.000000    1.120807
    2          1             0        0.491411    0.000000   -2.026402
    3          6             0       -1.008891    0.000000   -0.538076
    4          1             0       -1.890274    0.000000   -1.146039
    5          6             0       -0.831309    0.000000    0.811359
    6          1             0       -1.588239    0.000000    1.571887
    7          1             0        2.167661    0.000000   -0.157471
    8          6             0        1.104225    0.000000   -0.021633
    9          7             0        0.246946    0.000000   -1.062252
 ---------------------------------------------------------------------
                    Distance matrix (angstroms):
                    1          2          3          4          5
     1  N    0.000000
     2  H    3.147209   0.000000
     3  C    2.236918   2.113296   0.000000
     4  H    3.288253   2.539186   1.070727   0.000000
     5  C    1.358761   3.130891   1.361069   2.225492   0.000000
     6  H    2.128334   4.156034   2.188055   2.734656   1.073007
     7  H    2.107769   2.510521   3.199272   4.176615   3.151580
     8  C    1.296264   2.096340   2.175309   3.198643   2.107171
     9  N    2.196742   0.994660   1.360840   2.138862   2.161725
                    6          7          8          9
     6  H    0.000000
     7  H    4.134908   0.000000
     8  C    3.128684   1.072077   0.000000
     9  N    3.210388   2.123152   1.348264   0.000000
 Stoichiometry    C3H4N2
 Framework group  CS[SG(C3H4N2)]
 Deg. of freedom   15
 Full point group                 CS      NOp   2
 Largest Abelian subgroup         CS      NOp   2
 Largest concise Abelian subgroup C1      NOp   1
                         Standard orientation:                         
 ---------------------------------------------------------------------
 Center     Atomic     Atomic              Coordinates (Angstroms)
 Number     Number      Type              X           Y           Z
 ---------------------------------------------------------------------
    1          7             0       -0.734137   -0.975078    0.000000
    2          1             0       -0.019138    2.089836    0.000000
    3          6             0        1.103998    0.299701    0.000000
    4          1             0        2.100414    0.691636    0.000000
    5          6             0        0.624624   -0.974155    0.000000
    6          1             0        1.189078   -1.886699    0.000000
    7          1             0       -2.075997    0.650376    0.000000
    8          6             0       -1.071189    0.276599    0.000000
    9          7             0        0.000000    1.095361    0.000000
 ---------------------------------------------------------------------
 Rotational constants (GHZ):     10.0283575      9.5743094      4.8980375
 Isotopes: N-14,H-1,C-12,H-1,C-12,H-1,H-1,C-12,N-14
 Standard basis: 6-31G(d,p) (6D, 7F)
 There are    71 symmetry adapted basis functions of A'  symmetry.
 There are    24 symmetry adapted basis functions of A"  symmetry.
 Crude estimate of integral set expansion from redundant integrals=1.000.
 Integral buffers will be    262144 words long.
 Raffenetti 1 integral format.
 Two-electron integral symmetry is turned on.
    95 basis functions      168 primitive gaussians
    18 alpha electrons       18 beta electrons
       nuclear repulsion energy       165.0880245394 Hartrees.
 One-electron integrals computed using PRISM.
 NBasis=    95 RedAO= T  NBF=    71    24
 NBsUse=    95 1.00D-04 NBFU=    71    24
 Initial guess read from the read-write file:
 Initial guess orbital symmetries:
       Occupied  (A') (A') (A') (A') (A') (A') (A') (A') (A') (A')
                 (A') (A') (A") (A') (A') (A') (A") (A")
       Virtual   (A") (A') (A") (A') (A') (A') (A') (A') (A') (A')
                 (A') (A') (A") (A") (A') (A') (A") (A') (A') (A')
                 (A") (A') (A') (A') (A") (A') (A') (A') (A') (A')
                 (A') (A") (A') (A') (A") (A") (A') (A") (A') (A")
                 (A') (A') (A') (A') (A') (A") (A') (A") (A') (A")
                 (A') (A") (A") (A') (A") (A') (A') (A') (A') (A')
                 (A") (A") (A") (A') (A') (A') (A') (A') (A') (A')
                 (A') (A') (A') (A') (A') (A') (A')
 Requested convergence on RMS density matrix=1.00D-08 within  64 cycles.
 Requested convergence on MAX density matrix=1.00D-06.
 Keep R1 integrals in memory in canonical form, NReq=    10871354.
 SCF Done:  E(RHF) =  -224.823924783     A.U. after   13 cycles
             Convg  =    0.2428D-08             -V/T =  2.0014
             S**2   =   0.0000
 ***** Axes restored to original set *****
 -------------------------------------------------------------------
 Center     Atomic                   Forces (Hartrees/Bohr)
 Number     Number              X              Y              Z
 -------------------------------------------------------------------
    1          7           0.009728181    0.000000000   -0.007332482
    2          1          -0.000625748    0.000000000    0.002714481
    3          6          -0.008612619    0.000000000    0.010646494
    4          1           0.001392124    0.000000000    0.001032675
    5          6          -0.012422022    0.000000000   -0.008064347
    6          1           0.001406438    0.000000000   -0.001485349
    7          1          -0.000805566    0.000000000    0.000082704
    8          6           0.002450774    0.000000000    0.005354201
    9          7           0.007488438    0.000000000   -0.002948376
 -------------------------------------------------------------------
 Cartesian Forces:  Max     0.012422022 RMS     0.004982622

 GradGradGradGradGradGradGradGradGradGradGradGradGradGradGradGradGradGrad
 Berny optimization.
 Internal  Forces:  Max     0.009703901 RMS     0.003032997
 Search for a local minimum.
 Step number   3 out of a maximum of  48
 All quantities printed in internal units (Hartrees-Bohrs-Radians)
 Update second derivatives using information from points  1  2  3
 Trust test= 8.51D-01 RLast= 1.61D-01 DXMaxT set to 4.83D-01
     Eigenvalues ---    0.03205   0.03261   0.03287   0.03304   0.03349
     Eigenvalues ---    0.03405   0.15355   0.16000   0.16000   0.16002
     Eigenvalues ---    0.22483   0.24075   0.43328   0.49331   0.49633
     Eigenvalues ---    0.56116   0.57918   0.62767   0.65286   0.74664
     Eigenvalues ---    0.798791000.000001000.000001000.000001000.00000
     Eigenvalues --- 1000.000001000.000001000.000001000.000001000.00000
     Eigenvalues --- 1000.000001000.000001000.000001000.000001000.00000
     Eigenvalues --- 1000.000001000.000001000.00000
 RFO step:  Lambda=-6.26391923D-04.
 Quartic linear search produced a step of  0.05339.
 Iteration  1 RMS(Cart)=  0.00658684 RMS(Int)=  0.00001666
 Iteration  2 RMS(Cart)=  0.00001523 RMS(Int)=  0.00000339
 Iteration  3 RMS(Cart)=  0.00000000 RMS(Int)=  0.00000339
 Variable       Old X    -DE/DX   Delta X   Delta X   Delta X     New X
                                 (Linear)    (Quad)   (Total)
    R1        2.56769   0.00923   0.00271   0.01438   0.01709   2.58478
    R2        2.44958  -0.00654  -0.00035  -0.00941  -0.00976   2.43983
    R3        1.87963  -0.00279   0.00152  -0.00365  -0.00213   1.87750
    R4        2.02338  -0.00173   0.00232  -0.00194   0.00038   2.02376
    R5        2.57205  -0.00970   0.00020  -0.01519  -0.01498   2.55707
    R6        2.57162   0.00888   0.00328   0.01403   0.01731   2.58892
    R7        2.02769  -0.00204   0.00239  -0.00264  -0.00025   2.02744
    R8        2.02593  -0.00081   0.00244   0.00002   0.00247   2.02840
    R9        2.54785  -0.00024   0.00186   0.00102   0.00287   2.55072
    A1        1.83316   0.00357  -0.00095   0.01325   0.01230   1.84546
    A2        2.30548   0.00039   0.00267   0.00210   0.00477   2.31025
    A3        2.14235   0.00051  -0.00274   0.00061  -0.00213   2.14022
    A4        1.83536  -0.00090   0.00007  -0.00271  -0.00264   1.83272
    A5        1.93140  -0.00134   0.00063  -0.00533  -0.00469   1.92671
    A6        2.12406   0.00072  -0.00207   0.00230   0.00023   2.12429
    A7        2.22772   0.00062   0.00144   0.00303   0.00447   2.23219
    A8        2.18996   0.00147   0.00028   0.00743   0.00771   2.19768
    A9        1.96038  -0.00289   0.00173  -0.01376  -0.01204   1.94834
   A10        2.13284   0.00142  -0.00201   0.00634   0.00433   2.13717
   A11        2.21453  -0.00072   0.00081  -0.00388  -0.00306   2.21147
   A12        2.20418  -0.00084   0.00066  -0.00468  -0.00401   2.20016
   A13        1.86448   0.00156  -0.00147   0.00856   0.00707   1.87156
    D1        0.00000   0.00000   0.00000   0.00000   0.00000   0.00000
    D2        3.14159   0.00000   0.00000   0.00000   0.00000   3.14159
    D3        3.14159   0.00000   0.00000   0.00000   0.00000   3.14159
    D4        0.00000   0.00000   0.00000   0.00000   0.00000   0.00000
    D5        3.14159   0.00000   0.00000   0.00000   0.00000   3.14159
    D6        0.00000   0.00000   0.00000   0.00000   0.00000   0.00000
    D7        0.00000   0.00000   0.00000   0.00000   0.00000   0.00000
    D8        3.14159   0.00000   0.00000   0.00000   0.00000   3.14159
    D9        0.00000   0.00000   0.00000   0.00000   0.00000   0.00000
   D10        3.14159   0.00000   0.00000   0.00000   0.00000   3.14159
   D11        3.14159   0.00000   0.00000   0.00000   0.00000   3.14159
   D12        0.00000   0.00000   0.00000   0.00000   0.00000   0.00000
   D13        3.14159   0.00000   0.00000   0.00000   0.00000   3.14159
   D14        0.00000   0.00000   0.00000   0.00000   0.00000   0.00000
   D15        0.00000   0.00000   0.00000   0.00000   0.00000   0.00000
   D16        3.14159   0.00000   0.00000   0.00000   0.00000   3.14159
         Item               Value     Threshold  Converged?
 Maximum Force            0.009704     0.000450     NO 
 RMS     Force            0.003033     0.000300     NO 
 Maximum Displacement     0.018015     0.001800     NO 
 RMS     Displacement     0.006585     0.001200     NO 
 Predicted change in Energy=-3.249547D-04
 GradGradGradGradGradGradGradGradGradGradGradGradGradGradGradGradGradGrad

                          Input orientation:                          
 ---------------------------------------------------------------------
 Center     Atomic     Atomic              Coordinates (Angstroms)
 Number     Number      Type              X           Y           Z
 ---------------------------------------------------------------------
    1          7             0        0.496335    0.000000    1.107708
    2          1             0        0.494101    0.000000   -2.026642
    3          6             0       -1.014487    0.000000   -0.538234
    4          1             0       -1.893482    0.000000   -1.149994
    5          6             0       -0.837154    0.000000    0.803237
    6          1             0       -1.590139    0.000000    1.567486
    7          1             0        2.178985    0.000000   -0.162611
    8          6             0        1.114347    0.000000   -0.025870
    9          7             0        0.250882    0.000000   -1.063340
 ---------------------------------------------------------------------
                    Distance matrix (angstroms):
                    1          2          3          4          5
     1  N    0.000000
     2  H    3.134351   0.000000
     3  C    2.234213   2.119244   0.000000
     4  H    3.287620   2.543435   1.070926   0.000000
     5  C    1.367807   3.127372   1.353142   2.220572   0.000000
     6  H    2.136532   4.154734   2.182987   2.734358   1.072876
     7  H    2.108322   2.512657   3.215487   4.190454   3.167011
     8  C    1.291100   2.094706   2.189624   3.211026   2.120325
     9  N    2.184879   0.993532   1.369998   2.146114   2.160540
                    6          7          8          9
     6  H    0.000000
     7  H    4.147232   0.000000
     8  C    3.138954   1.073383   0.000000
     9  N    3.211013   2.128119   1.349783   0.000000
 Stoichiometry    C3H4N2
 Framework group  CS[SG(C3H4N2)]
 Deg. of freedom   15
 Full point group                 CS      NOp   2
 Largest Abelian subgroup         CS      NOp   2
 Largest concise Abelian subgroup C1      NOp   1
                         Standard orientation:                         
 ---------------------------------------------------------------------
 Center     Atomic     Atomic              Coordinates (Angstroms)
 Number     Number      Type              X           Y           Z
 ---------------------------------------------------------------------
    1          7             0       -0.737947   -0.964639    0.000000
    2          1             0       -0.015267    2.085261    0.000000
    3          6             0        1.110775    0.289927    0.000000
    4          1             0        2.106858    0.683246    0.000000
    5          6             0        0.629821   -0.974856    0.000000
    6          1             0        1.186961   -1.891730    0.000000
    7          1             0       -2.083523    0.658460    0.000000
    8          6             0       -1.078829    0.280648    0.000000
    9          7             0        0.000000    1.091846    0.000000
 ---------------------------------------------------------------------
 Rotational constants (GHZ):      9.9021177      9.6607526      4.8899731
 Isotopes: N-14,H-1,C-12,H-1,C-12,H-1,H-1,C-12,N-14
 Standard basis: 6-31G(d,p) (6D, 7F)
 There are    71 symmetry adapted basis functions of A'  symmetry.
 There are    24 symmetry adapted basis functions of A"  symmetry.
 Crude estimate of integral set expansion from redundant integrals=1.000.
 Integral buffers will be    262144 words long.
 Raffenetti 1 integral format.
 Two-electron integral symmetry is turned on.
    95 basis functions      168 primitive gaussians
    18 alpha electrons       18 beta electrons
       nuclear repulsion energy       164.9456112470 Hartrees.
 One-electron integrals computed using PRISM.
 NBasis=    95 RedAO= T  NBF=    71    24
 NBsUse=    95 1.00D-04 NBFU=    71    24
 Initial guess read from the read-write file:
 Initial guess orbital symmetries:
       Occupied  (A') (A') (A') (A') (A') (A') (A') (A') (A') (A')
                 (A') (A') (A") (A') (A') (A') (A") (A")
       Virtual   (A") (A') (A") (A') (A') (A') (A') (A') (A') (A')
                 (A') (A') (A") (A') (A") (A') (A") (A') (A') (A')
                 (A") (A') (A') (A') (A') (A") (A') (A') (A') (A')
                 (A') (A') (A") (A') (A") (A") (A') (A") (A') (A")
                 (A') (A') (A') (A') (A') (A") (A') (A") (A') (A")
                 (A') (A") (A') (A") (A") (A') (A') (A') (A') (A")
                 (A') (A") (A') (A") (A') (A') (A') (A') (A') (A')
                 (A') (A') (A') (A') (A') (A') (A')
 Requested convergence on RMS density matrix=1.00D-08 within  64 cycles.
 Requested convergence on MAX density matrix=1.00D-06.
 Keep R1 integrals in memory in canonical form, NReq=    10871354.
 SCF Done:  E(RHF) =  -224.824218290     A.U. after   10 cycles
             Convg  =    0.9881D-08             -V/T =  2.0014
             S**2   =   0.0000
 ***** Axes restored to original set *****
 -------------------------------------------------------------------
 Center     Atomic                   Forces (Hartrees/Bohr)
 Number     Number              X              Y              Z
 -------------------------------------------------------------------
    1          7           0.004286833    0.000000000    0.001644179
    2          1          -0.000790615    0.000000000    0.001335804
    3          6          -0.000388436    0.000000000    0.002320481
    4          1           0.001668154    0.000000000    0.001009073
    5          6          -0.003193244    0.000000000   -0.002093168
    6          1           0.001835201    0.000000000   -0.001285592
    7          1          -0.001907513    0.000000000    0.000339976
    8          6          -0.004450655    0.000000000    0.001533318
    9          7           0.002940275    0.000000000   -0.004804072
 -------------------------------------------------------------------
 Cartesian Forces:  Max     0.004804072 RMS     0.002019011

 GradGradGradGradGradGradGradGradGradGradGradGradGradGradGradGradGradGrad
 Berny optimization.
 Internal  Forces:  Max     0.003184489 RMS     0.001197884
 Search for a local minimum.
 Step number   4 out of a maximum of  48
 All quantities printed in internal units (Hartrees-Bohrs-Radians)
 Update second derivatives using information from points  1  2  3  4
 Trust test= 9.03D-01 RLast= 3.82D-02 DXMaxT set to 4.83D-01
     Eigenvalues ---    0.03205   0.03262   0.03287   0.03304   0.03349
     Eigenvalues ---    0.03405   0.14905   0.16000   0.16001   0.16042
     Eigenvalues ---    0.22443   0.27185   0.49001   0.49601   0.50942
     Eigenvalues ---    0.52767   0.56306   0.61203   0.64285   0.74603
     Eigenvalues ---    0.762811000.000001000.000001000.000001000.00000
     Eigenvalues --- 1000.000001000.000001000.000001000.000001000.00000
     Eigenvalues --- 1000.000001000.000001000.000001000.000001000.00000
     Eigenvalues --- 1000.000001000.000001000.00000
 RFO step:  Lambda=-1.39678274D-04.
 Quartic linear search produced a step of -0.08581.
 Iteration  1 RMS(Cart)=  0.00301615 RMS(Int)=  0.00000811
 Iteration  2 RMS(Cart)=  0.00000800 RMS(Int)=  0.00000468
 Iteration  3 RMS(Cart)=  0.00000000 RMS(Int)=  0.00000468
 Variable       Old X    -DE/DX   Delta X   Delta X   Delta X     New X
                                 (Linear)    (Quad)   (Total)
    R1        2.58478   0.00120  -0.00147   0.00711   0.00564   2.59042
    R2        2.43983  -0.00171   0.00084  -0.00469  -0.00385   2.43597
    R3        1.87750  -0.00149   0.00018  -0.00229  -0.00211   1.87539
    R4        2.02376  -0.00195  -0.00003  -0.00261  -0.00264   2.02112
    R5        2.55707  -0.00172   0.00129  -0.00605  -0.00477   2.55229
    R6        2.58892  -0.00006  -0.00149   0.00569   0.00421   2.59313
    R7        2.02744  -0.00220   0.00002  -0.00333  -0.00331   2.02413
    R8        2.02840  -0.00194  -0.00021  -0.00200  -0.00221   2.02619
    R9        2.55072  -0.00047  -0.00025   0.00087   0.00063   2.55135
    A1        1.84546  -0.00244  -0.00106  -0.00590  -0.00696   1.83850
    A2        2.31025  -0.00036  -0.00041   0.00031  -0.00010   2.31015
    A3        2.14022  -0.00061   0.00018  -0.00321  -0.00303   2.13719
    A4        1.83272   0.00097   0.00023   0.00290   0.00312   1.83584
    A5        1.92671   0.00065   0.00040   0.00169   0.00208   1.92879
    A6        2.12429  -0.00074  -0.00002  -0.00379  -0.00380   2.12049
    A7        2.23219   0.00008  -0.00038   0.00209   0.00172   2.23390
    A8        2.19768  -0.00169  -0.00066  -0.00454  -0.00520   2.19247
    A9        1.94834   0.00318   0.00103   0.00881   0.00986   1.95820
   A10        2.13717  -0.00150  -0.00037  -0.00428  -0.00466   2.13252
   A11        2.21147   0.00077   0.00026   0.00153   0.00179   2.21326
   A12        2.20016   0.00160   0.00034   0.00598   0.00632   2.20648
   A13        1.87156  -0.00237  -0.00061  -0.00751  -0.00811   1.86345
    D1        0.00000   0.00000   0.00000   0.00000   0.00000   0.00000
    D2        3.14159   0.00000   0.00000   0.00000   0.00000   3.14159
    D3        3.14159   0.00000   0.00000   0.00000   0.00000   3.14159
    D4        0.00000   0.00000   0.00000   0.00000   0.00000   0.00000
    D5        3.14159   0.00000   0.00000   0.00000   0.00000   3.14159
    D6        0.00000   0.00000   0.00000   0.00000   0.00000   0.00000
    D7        0.00000   0.00000   0.00000   0.00000   0.00000   0.00000
    D8        3.14159   0.00000   0.00000   0.00000   0.00000   3.14159
    D9        0.00000   0.00000   0.00000   0.00000   0.00000   0.00000
   D10        3.14159   0.00000   0.00000   0.00000   0.00000   3.14159
   D11        3.14159   0.00000   0.00000   0.00000   0.00000   3.14159
   D12        0.00000   0.00000   0.00000   0.00000   0.00000   0.00000
   D13        3.14159   0.00000   0.00000   0.00000   0.00000   3.14159
   D14        0.00000   0.00000   0.00000   0.00000   0.00000   0.00000
   D15        0.00000   0.00000   0.00000   0.00000   0.00000   0.00000
   D16        3.14159   0.00000   0.00000   0.00000   0.00000   3.14159
         Item               Value     Threshold  Converged?
 Maximum Force            0.003184     0.000450     NO 
 RMS     Force            0.001198     0.000300     NO 
 Maximum Displacement     0.009454     0.001800     NO 
 RMS     Displacement     0.003017     0.001200     NO 
 Predicted change in Energy=-7.241422D-05
 GradGradGradGradGradGradGradGradGradGradGradGradGradGradGradGradGradGrad

                          Input orientation:                          
 ---------------------------------------------------------------------
 Center     Atomic     Atomic              Coordinates (Angstroms)
 Number     Number      Type              X           Y           Z
 ---------------------------------------------------------------------
    1          7             0        0.498786    0.000000    1.110844
    2          1             0        0.494122    0.000000   -2.028502
    3          6             0       -1.013629    0.000000   -0.536358
    4          1             0       -1.891411    0.000000   -1.147418
    5          6             0       -0.836906    0.000000    0.802645
    6          1             0       -1.587510    0.000000    1.566779
    7          1             0        2.174087    0.000000   -0.159833
    8          6             0        1.110536    0.000000   -0.023812
    9          7             0        0.252258    0.000000   -1.066009
 ---------------------------------------------------------------------
                    Distance matrix (angstroms):
                    1          2          3          4          5
     1  N    0.000000
     2  H    3.139349   0.000000
     3  C    2.236219   2.121274   0.000000
     4  H    3.288280   2.543044   1.069530   0.000000
     5  C    1.370789   3.128423   1.350615   2.216918   0.000000
     6  H    2.135534   4.154423   2.180029   2.731157   1.071123
     7  H    2.102677   2.512809   3.209876   4.183730   3.161083
     8  C    1.289062   2.097319   2.185127   3.205335   2.115552
     9  N    2.190769   0.992416   1.372224   2.145214   2.162903
                    6          7          8          9
     6  H    0.000000
     7  H    4.138936   0.000000
     8  C    3.132001   1.072214   0.000000
     9  N    3.211903   2.124755   1.350117   0.000000
 Stoichiometry    C3H4N2
 Framework group  CS[SG(C3H4N2)]
 Deg. of freedom   15
 Full point group                 CS      NOp   2
 Largest Abelian subgroup         CS      NOp   2
 Largest concise Abelian subgroup C1      NOp   1
                         Standard orientation:                         
 ---------------------------------------------------------------------
 Center     Atomic     Atomic              Coordinates (Angstroms)
 Number     Number      Type              X           Y           Z
 ---------------------------------------------------------------------
    1          7             0       -0.740852   -0.966300    0.000000
    2          1             0       -0.013883    2.087719    0.000000
    3          6             0        1.110029    0.288657    0.000000
    4          1             0        2.104870    0.681320    0.000000
    5          6             0        0.629917   -0.973743    0.000000
    6          1             0        1.184532   -1.890099    0.000000
    7          1             0       -2.078781    0.655796    0.000000
    8          6             0       -1.075075    0.278681    0.000000
    9          7             0        0.000000    1.095400    0.000000
 ---------------------------------------------------------------------
 Rotational constants (GHZ):      9.9257032      9.6358128      4.8893050
 Isotopes: N-14,H-1,C-12,H-1,C-12,H-1,H-1,C-12,N-14
 Standard basis: 6-31G(d,p) (6D, 7F)
 There are    71 symmetry adapted basis functions of A'  symmetry.
 There are    24 symmetry adapted basis functions of A"  symmetry.
 Crude estimate of integral set expansion from redundant integrals=1.000.
 Integral buffers will be    262144 words long.
 Raffenetti 1 integral format.
 Two-electron integral symmetry is turned on.
    95 basis functions      168 primitive gaussians
    18 alpha electrons       18 beta electrons
       nuclear repulsion energy       164.9512316003 Hartrees.
 One-electron integrals computed using PRISM.
 NBasis=    95 RedAO= T  NBF=    71    24
 NBsUse=    95 1.00D-04 NBFU=    71    24
 Initial guess read from the read-write file:
 Initial guess orbital symmetries:
       Occupied  (A') (A') (A') (A') (A') (A') (A') (A') (A') (A')
                 (A') (A') (A') (A") (A') (A') (A") (A")
       Virtual   (A") (A') (A") (A') (A') (A') (A') (A') (A') (A')
                 (A') (A') (A") (A') (A") (A') (A") (A') (A') (A')
                 (A") (A') (A') (A') (A') (A") (A') (A') (A') (A')
                 (A') (A') (A") (A') (A") (A") (A') (A") (A') (A")
                 (A') (A') (A') (A') (A') (A") (A') (A") (A') (A")
                 (A') (A") (A') (A") (A") (A') (A') (A') (A') (A")
                 (A') (A") (A') (A") (A') (A') (A') (A') (A') (A')
                 (A') (A') (A') (A') (A') (A') (A')
 Requested convergence on RMS density matrix=1.00D-08 within  64 cycles.
 Requested convergence on MAX density matrix=1.00D-06.
 Keep R1 integrals in memory in canonical form, NReq=    10871354.
 SCF Done:  E(RHF) =  -224.824295998     A.U. after   11 cycles
             Convg  =    0.4205D-08             -V/T =  2.0014
             S**2   =   0.0000
 ***** Axes restored to original set *****
 -------------------------------------------------------------------
 Center     Atomic                   Forces (Hartrees/Bohr)
 Number     Number              X              Y              Z
 -------------------------------------------------------------------
    1          7           0.000474075    0.000000000   -0.000072178
    2          1          -0.000163741    0.000000000    0.000537272
    3          6           0.000336158    0.000000000   -0.000346060
    4          1           0.000557477    0.000000000    0.000591294
    5          6          -0.001395180    0.000000000    0.000221898
    6          1           0.000600359    0.000000000   -0.000581373
    7          1          -0.000729594    0.000000000    0.000119867
    8          6           0.000103852    0.000000000   -0.000696866
    9          7           0.000216596    0.000000000    0.000226146
 -------------------------------------------------------------------
 Cartesian Forces:  Max     0.001395180 RMS     0.000441962

 GradGradGradGradGradGradGradGradGradGradGradGradGradGradGradGradGradGrad
 Berny optimization.
 Internal  Forces:  Max     0.000835457 RMS     0.000310356
 Search for a local minimum.
 Step number   5 out of a maximum of  48
 All quantities printed in internal units (Hartrees-Bohrs-Radians)
 Update second derivatives using information from points  1  2  3  4  5

 Trust test= 1.07D+00 RLast= 2.14D-02 DXMaxT set to 4.83D-01
     Eigenvalues ---    0.03204   0.03262   0.03287   0.03304   0.03349
     Eigenvalues ---    0.03405   0.15269   0.15906   0.16002   0.16038
     Eigenvalues ---    0.21946   0.29386   0.46051   0.49264   0.49607
     Eigenvalues ---    0.51304   0.56147   0.60182   0.64431   0.72518
     Eigenvalues ---    0.752371000.000001000.000001000.000001000.00000
     Eigenvalues --- 1000.000001000.000001000.000001000.000001000.00000
     Eigenvalues --- 1000.000001000.000001000.000001000.000001000.00000
     Eigenvalues --- 1000.000001000.000001000.00000
 RFO step:  Lambda=-7.07792079D-06.
 Quartic linear search produced a step of  0.07797.
 Iteration  1 RMS(Cart)=  0.00077972 RMS(Int)=  0.00000041
 Iteration  2 RMS(Cart)=  0.00000029 RMS(Int)=  0.00000029
 Variable       Old X    -DE/DX   Delta X   Delta X   Delta X     New X
                                 (Linear)    (Quad)   (Total)
    R1        2.59042   0.00032   0.00044   0.00030   0.00074   2.59115
    R2        2.43597  -0.00009  -0.00030   0.00018  -0.00012   2.43585
    R3        1.87539  -0.00056  -0.00016  -0.00088  -0.00104   1.87435
    R4        2.02112  -0.00080  -0.00021  -0.00157  -0.00177   2.01934
    R5        2.55229  -0.00046  -0.00037  -0.00042  -0.00079   2.55150
    R6        2.59313  -0.00047   0.00033  -0.00099  -0.00066   2.59247
    R7        2.02413  -0.00084  -0.00026  -0.00165  -0.00191   2.02222
    R8        2.02619  -0.00074  -0.00017  -0.00148  -0.00165   2.02454
    R9        2.55135  -0.00078   0.00005  -0.00123  -0.00119   2.55017
    A1        1.83850  -0.00011  -0.00054   0.00053  -0.00001   1.83849
    A2        2.31015  -0.00029  -0.00001  -0.00171  -0.00172   2.30843
    A3        2.13719   0.00004  -0.00024   0.00099   0.00075   2.13795
    A4        1.83584   0.00025   0.00024   0.00072   0.00097   1.83681
    A5        1.92879  -0.00030   0.00016  -0.00113  -0.00097   1.92782
    A6        2.12049   0.00013  -0.00030   0.00067   0.00037   2.12086
    A7        2.23390   0.00017   0.00013   0.00046   0.00060   2.23450
    A8        2.19247  -0.00007  -0.00041  -0.00001  -0.00041   2.19206
    A9        1.95820   0.00008   0.00077  -0.00048   0.00029   1.95849
   A10        2.13252  -0.00001  -0.00036   0.00048   0.00012   2.13264
   A11        2.21326  -0.00007   0.00014  -0.00024  -0.00010   2.21315
   A12        2.20648  -0.00002   0.00049  -0.00011   0.00039   2.20686
   A13        1.86345   0.00009  -0.00063   0.00035  -0.00028   1.86317
    D1        0.00000   0.00000   0.00000   0.00000   0.00000   0.00000
    D2        3.14159   0.00000   0.00000   0.00000   0.00000   3.14159
    D3        3.14159   0.00000   0.00000   0.00000   0.00000   3.14159
    D4        0.00000   0.00000   0.00000   0.00000   0.00000   0.00000
    D5        3.14159   0.00000   0.00000   0.00000   0.00000   3.14159
    D6        0.00000   0.00000   0.00000   0.00000   0.00000   0.00000
    D7        0.00000   0.00000   0.00000   0.00000   0.00000   0.00000
    D8        3.14159   0.00000   0.00000   0.00000   0.00000   3.14159
    D9        0.00000   0.00000   0.00000   0.00000   0.00000   0.00000
   D10        3.14159   0.00000   0.00000   0.00000   0.00000   3.14159
   D11       -3.14159   0.00000   0.00000   0.00000   0.00000  -3.14159
   D12        0.00000   0.00000   0.00000   0.00000   0.00000   0.00000
   D13        3.14159   0.00000   0.00000   0.00000   0.00000   3.14159
   D14        0.00000   0.00000   0.00000   0.00000   0.00000   0.00000
   D15        0.00000   0.00000   0.00000   0.00000   0.00000   0.00000
   D16        3.14159   0.00000   0.00000   0.00000   0.00000   3.14159
         Item               Value     Threshold  Converged?
 Maximum Force            0.000835     0.000450     NO 
 RMS     Force            0.000310     0.000300     NO 
 Maximum Displacement     0.002711     0.001800     NO 
 RMS     Displacement     0.000780     0.001200     YES
 Predicted change in Energy=-3.947313D-06
 GradGradGradGradGradGradGradGradGradGradGradGradGradGradGradGradGradGrad

                          Input orientation:                          
 ---------------------------------------------------------------------
 Center     Atomic     Atomic              Coordinates (Angstroms)
 Number     Number      Type              X           Y           Z
 ---------------------------------------------------------------------
    1          7             0        0.498591    0.000000    1.110522
    2          1             0        0.493802    0.000000   -2.028023
    3          6             0       -1.013138    0.000000   -0.536265
    4          1             0       -1.890713    0.000000   -1.145975
    5          6             0       -0.837534    0.000000    0.802465
    6          1             0       -1.587582    0.000000    1.565729
    7          1             0        2.172818    0.000000   -0.159856
    8          6             0        1.110101    0.000000   -0.024190
    9          7             0        0.252337    0.000000   -1.065999
 ---------------------------------------------------------------------
                    Distance matrix (angstroms):
                    1          2          3          4          5
     1  N    0.000000
     2  H    3.138548   0.000000
     3  C    2.235448   2.120427   0.000000
     4  H    3.286419   2.542424   1.068591   0.000000
     5  C    1.371178   3.127958   1.350197   2.214860   0.000000
     6  H    2.135258   4.152976   2.179074   2.728595   1.070114
     7  H    2.101642   2.511801   3.208114   4.181473   3.160425
     8  C    1.288998   2.096466   2.184116   3.203637   2.115808
     9  N    2.190406   0.991865   1.371877   2.144542   2.163094
                    6          7          8          9
     6  H    0.000000
     7  H    4.137421   0.000000
     8  C    3.131348   1.071341   0.000000
     9  N    3.211120   2.123521   1.349490   0.000000
 Stoichiometry    C3H4N2
 Framework group  CS[SG(C3H4N2)]
 Deg. of freedom   15
 Full point group                 CS      NOp   2
 Largest Abelian subgroup         CS      NOp   2
 Largest concise Abelian subgroup C1      NOp   1
                         Standard orientation:                         
 ---------------------------------------------------------------------
 Center     Atomic     Atomic              Coordinates (Angstroms)
 Number     Number      Type              X           Y           Z
 ---------------------------------------------------------------------
    1          7             0       -0.740972   -0.965942    0.000000
    2          1             0       -0.013379    2.087104    0.000000
    3          6             0        1.109427    0.288350    0.000000
    4          1             0        2.103846    0.679525    0.000000
    5          6             0        0.630183   -0.973933    0.000000
    6          1             0        1.184251   -1.889439    0.000000
    7          1             0       -2.077560    0.655918    0.000000
    8          6             0       -1.074669    0.279113    0.000000
    9          7             0        0.000000    1.095329    0.000000
 ---------------------------------------------------------------------
 Rotational constants (GHZ):      9.9276085      9.6421246      4.8913921
 Isotopes: N-14,H-1,C-12,H-1,C-12,H-1,H-1,C-12,N-14
 Standard basis: 6-31G(d,p) (6D, 7F)
 There are    71 symmetry adapted basis functions of A'  symmetry.
 There are    24 symmetry adapted basis functions of A"  symmetry.
 Crude estimate of integral set expansion from redundant integrals=1.000.
 Integral buffers will be    262144 words long.
 Raffenetti 1 integral format.
 Two-electron integral symmetry is turned on.
    95 basis functions      168 primitive gaussians
    18 alpha electrons       18 beta electrons
       nuclear repulsion energy       164.9900881516 Hartrees.
 One-electron integrals computed using PRISM.
 NBasis=    95 RedAO= T  NBF=    71    24
 NBsUse=    95 1.00D-04 NBFU=    71    24
 Initial guess read from the read-write file:
 Initial guess orbital symmetries:
       Occupied  (A') (A') (A') (A') (A') (A') (A') (A') (A') (A')
                 (A') (A') (A') (A") (A') (A') (A") (A")
       Virtual   (A") (A') (A") (A') (A') (A') (A') (A') (A') (A')
                 (A') (A') (A") (A') (A") (A') (A") (A') (A') (A')
                 (A") (A') (A') (A') (A') (A") (A') (A') (A') (A')
                 (A') (A') (A") (A') (A") (A") (A') (A") (A') (A")
                 (A') (A') (A') (A') (A') (A") (A') (A") (A') (A")
                 (A') (A") (A') (A") (A") (A') (A') (A') (A') (A")
                 (A') (A") (A') (A") (A') (A') (A') (A') (A') (A')
                 (A') (A') (A') (A') (A') (A') (A')
 Requested convergence on RMS density matrix=1.00D-08 within  64 cycles.
 Requested convergence on MAX density matrix=1.00D-06.
 Keep R1 integrals in memory in canonical form, NReq=    10871354.
 SCF Done:  E(RHF) =  -224.824300241     A.U. after    9 cycles
             Convg  =    0.4097D-08             -V/T =  2.0013
             S**2   =   0.0000
 ***** Axes restored to original set *****
 -------------------------------------------------------------------
 Center     Atomic                   Forces (Hartrees/Bohr)
 Number     Number              X              Y              Z
 -------------------------------------------------------------------
    1          7           0.000238016    0.000000000    0.000125710
    2          1          -0.000010028    0.000000000   -0.000003353
    3          6           0.000135335    0.000000000   -0.000241751
    4          1           0.000010559    0.000000000    0.000037363
    5          6          -0.000218891    0.000000000   -0.000073290
    6          1           0.000069836    0.000000000   -0.000032197
    7          1          -0.000046567    0.000000000    0.000023737
    8          6          -0.000015517    0.000000000   -0.000146583
    9          7          -0.000162744    0.000000000    0.000310365
 -------------------------------------------------------------------
 Cartesian Forces:  Max     0.000310365 RMS     0.000115037

 GradGradGradGradGradGradGradGradGradGradGradGradGradGradGradGradGradGrad
 Berny optimization.
 Internal  Forces:  Max     0.000231235 RMS     0.000063858
 Search for a local minimum.
 Step number   6 out of a maximum of  48
 All quantities printed in internal units (Hartrees-Bohrs-Radians)
 Update second derivatives using information from points  1  2  3  4  5
                                                        6
 Trust test= 1.07D+00 RLast= 4.47D-03 DXMaxT set to 4.83D-01
     Eigenvalues ---    0.03204   0.03262   0.03287   0.03304   0.03349
     Eigenvalues ---    0.03405   0.15146   0.15564   0.16007   0.16048
     Eigenvalues ---    0.23814   0.29091   0.42020   0.49277   0.49639
     Eigenvalues ---    0.51232   0.56520   0.59289   0.63120   0.74297
     Eigenvalues ---    0.764291000.000001000.000001000.000001000.00000
     Eigenvalues --- 1000.000001000.000001000.000001000.000001000.00000
     Eigenvalues --- 1000.000001000.000001000.000001000.000001000.00000
     Eigenvalues --- 1000.000001000.000001000.00000
 RFO step:  Lambda=-3.29475930D-07.
 Quartic linear search produced a step of  0.07999.
 Iteration  1 RMS(Cart)=  0.00017540 RMS(Int)=  0.00000002
 Iteration  2 RMS(Cart)=  0.00000003 RMS(Int)=  0.00000001
 Variable       Old X    -DE/DX   Delta X   Delta X   Delta X     New X
                                 (Linear)    (Quad)   (Total)
    R1        2.59115   0.00019   0.00006   0.00026   0.00032   2.59147
    R2        2.43585  -0.00002  -0.00001  -0.00001  -0.00002   2.43583
    R3        1.87435   0.00000  -0.00008   0.00003  -0.00006   1.87430
    R4        2.01934  -0.00003  -0.00014  -0.00002  -0.00016   2.01918
    R5        2.55150   0.00001  -0.00006   0.00006  -0.00001   2.55150
    R6        2.59247  -0.00023  -0.00005  -0.00035  -0.00041   2.59206
    R7        2.02222  -0.00007  -0.00015  -0.00010  -0.00026   2.02196
    R8        2.02454  -0.00005  -0.00013  -0.00007  -0.00020   2.02434
    R9        2.55017  -0.00008  -0.00009  -0.00012  -0.00022   2.54995
    A1        1.83849  -0.00012   0.00000  -0.00033  -0.00033   1.83815
    A2        2.30843   0.00000  -0.00014   0.00005  -0.00008   2.30835
    A3        2.13795   0.00005   0.00006   0.00030   0.00036   2.13831
    A4        1.83681  -0.00005   0.00008  -0.00036  -0.00028   1.83653
    A5        1.92782   0.00002  -0.00008   0.00030   0.00022   1.92805
    A6        2.12086  -0.00004   0.00003  -0.00033  -0.00030   2.12056
    A7        2.23450   0.00002   0.00005   0.00003   0.00007   2.23457
    A8        2.19206  -0.00003  -0.00003  -0.00011  -0.00015   2.19191
    A9        1.95849   0.00002   0.00002   0.00000   0.00002   1.95851
   A10        2.13264   0.00001   0.00001   0.00011   0.00012   2.13276
   A11        2.21315  -0.00008  -0.00001  -0.00026  -0.00026   2.21289
   A12        2.20686  -0.00006   0.00003  -0.00013  -0.00010   2.20676
   A13        1.86317   0.00013  -0.00002   0.00039   0.00037   1.86353
    D1        0.00000   0.00000   0.00000   0.00000   0.00000   0.00000
    D2        3.14159   0.00000   0.00000   0.00000   0.00000   3.14159
    D3        3.14159   0.00000   0.00000   0.00000   0.00000   3.14159
    D4        0.00000   0.00000   0.00000   0.00000   0.00000   0.00000
    D5        3.14159   0.00000   0.00000   0.00000   0.00000   3.14159
    D6        0.00000   0.00000   0.00000   0.00000   0.00000   0.00000
    D7        0.00000   0.00000   0.00000   0.00000   0.00000   0.00000
    D8        3.14159   0.00000   0.00000   0.00000   0.00000   3.14159
    D9        0.00000   0.00000   0.00000   0.00000   0.00000   0.00000
   D10        3.14159   0.00000   0.00000   0.00000   0.00000   3.14159
   D11        3.14159   0.00000   0.00000   0.00000   0.00000   3.14159
   D12        0.00000   0.00000   0.00000   0.00000   0.00000   0.00000
   D13        3.14159   0.00000   0.00000   0.00000   0.00000   3.14159
   D14        0.00000   0.00000   0.00000   0.00000   0.00000   0.00000
   D15        0.00000   0.00000   0.00000   0.00000   0.00000   0.00000
   D16        3.14159   0.00000   0.00000   0.00000   0.00000   3.14159
         Item               Value     Threshold  Converged?
 Maximum Force            0.000231     0.000450     YES
 RMS     Force            0.000064     0.000300     YES
 Maximum Displacement     0.000441     0.001800     YES
 RMS     Displacement     0.000175     0.001200     YES
 Predicted change in Energy=-1.881181D-07
 Optimization completed.
    -- Stationary point found.
                         ----------------------------
                         !   Optimized Parameters   !
                         ! (Angstroms and Degrees)  !
 ------------------------                            -------------------------
 ! Name  Definition              Value          Derivative Info.             !
 -----------------------------------------------------------------------------
 ! R1    R(1,5)                  1.3712         -DE/DX =    0.0002           !
 ! R2    R(1,8)                  1.289          -DE/DX =    0.               !
 ! R3    R(2,9)                  0.9919         -DE/DX =    0.               !
 ! R4    R(3,4)                  1.0686         -DE/DX =    0.               !
 ! R5    R(3,5)                  1.3502         -DE/DX =    0.               !
 ! R6    R(3,9)                  1.3719         -DE/DX =   -0.0002           !
 ! R7    R(5,6)                  1.0701         -DE/DX =   -0.0001           !
 ! R8    R(7,8)                  1.0713         -DE/DX =    0.               !
 ! R9    R(8,9)                  1.3495         -DE/DX =   -0.0001           !
 ! A1    A(5,1,8)              105.3376         -DE/DX =   -0.0001           !
 ! A2    A(4,3,5)              132.2632         -DE/DX =    0.               !
 ! A3    A(4,3,9)              122.4953         -DE/DX =    0.               !
 ! A4    A(5,3,9)              105.2415         -DE/DX =    0.               !
 ! A5    A(1,5,3)              110.4561         -DE/DX =    0.               !
 ! A6    A(1,5,6)              121.5164         -DE/DX =    0.               !
 ! A7    A(3,5,6)              128.0275         -DE/DX =    0.               !
 ! A8    A(1,8,7)              125.5958         -DE/DX =    0.               !
 ! A9    A(1,8,9)              112.2132         -DE/DX =    0.               !
 ! A10   A(7,8,9)              122.191          -DE/DX =    0.               !
 ! A11   A(2,9,3)              126.8044         -DE/DX =   -0.0001           !
 ! A12   A(2,9,8)              126.444          -DE/DX =   -0.0001           !
 ! A13   A(3,9,8)              106.7516         -DE/DX =    0.0001           !
 ! D1    D(8,1,5,3)              0.             -DE/DX =    0.               !
 ! D2    D(8,1,5,6)            180.             -DE/DX =    0.               !
 ! D3    D(5,1,8,7)            180.             -DE/DX =    0.               !
 ! D4    D(5,1,8,9)              0.             -DE/DX =    0.               !
 ! D5    D(4,3,5,1)            180.             -DE/DX =    0.               !
 ! D6    D(4,3,5,6)              0.             -DE/DX =    0.               !
 ! D7    D(9,3,5,1)              0.             -DE/DX =    0.               !
 ! D8    D(9,3,5,6)            180.             -DE/DX =    0.               !
[...]
   9   7    -0.06  -0.11   0.00    -0.10   0.02   0.00     0.00   0.00   0.00
                    19                     20                     21
                    A'                     A'                     A'
 Frequencies --  3424.4699              3455.8363              3932.5697
 Red. masses --     1.0940                 1.1075                 1.0827
 Frc consts  --     7.5587                 7.7929                 9.8651
 IR Inten    --     2.3260                 3.6871                94.5743
 Raman Activ --    86.3393                99.9268                77.8232
 Depolar     --     0.4154                 0.1415                 0.2786
 Atom AN      X      Y      Z        X      Y      Z        X      Y      Z
   1   7     0.00   0.00   0.00     0.00   0.00   0.00     0.00   0.00   0.00
   2   1    -0.01   0.00   0.00    -0.01  -0.01   0.00    -0.01   1.00   0.00
   3   6    -0.03  -0.01   0.00    -0.08  -0.03   0.00     0.00   0.00   0.00
   4   1     0.38   0.14   0.00     0.84   0.34   0.00     0.01   0.00   0.00
   5   6     0.04  -0.06   0.00    -0.02   0.04   0.00     0.00   0.00   0.00
   6   1    -0.43   0.72   0.00     0.20  -0.35   0.00     0.00   0.00   0.00
   7   1     0.34  -0.13   0.00    -0.06   0.02   0.00    -0.01   0.00   0.00
   8   6    -0.03   0.01   0.00     0.01   0.00   0.00     0.00   0.00   0.00
   9   7     0.00   0.00   0.00     0.00   0.00   0.00     0.00  -0.08   0.00

 -------------------
 - Thermochemistry -
 -------------------
 Temperature   298.150 Kelvin.  Pressure   1.00000 Atm.
 Atom  1 has atomic number  7 and mass  14.00307
 Atom  2 has atomic number  1 and mass   1.00783
 Atom  3 has atomic number  6 and mass  12.00000
 Atom  4 has atomic number  1 and mass   1.00783
 Atom  5 has atomic number  6 and mass  12.00000
 Atom  6 has atomic number  1 and mass   1.00783
 Atom  7 has atomic number  1 and mass   1.00783
 Atom  8 has atomic number  6 and mass  12.00000
 Atom  9 has atomic number  7 and mass  14.00307
 Molecular mass:    68.03745 amu.
 Principal axes and moments of inertia in atomic units:
                           1         2         3
     EIGENVALUES --   181.79012 187.17256 368.96269
           X            0.50206   0.86483   0.00000
           Y            0.86483  -0.50206   0.00000
           Z            0.00000   0.00000   1.00000
 THIS MOLECULE IS AN ASYMMETRIC TOP.
 ROTATIONAL SYMMETRY NUMBER  1.
 ROTATIONAL TEMPERATURES (KELVIN)      0.47645     0.46275     0.23475
 ROTATIONAL CONSTANTS (GHZ)            9.92761     9.64212     4.89139
 Zero-point vibrational energy     201911.5 (Joules/Mol)
                                   48.25800 (Kcal/Mol)
 WARNING-- EXPLICIT CONSIDERATION OF   1 DEGREES OF FREEDOM AS
           VIBRATIONS MAY CAUSE SIGNIFICANT ERROR
 VIBRATIONAL TEMPERATURES:    784.00   995.92  1053.99  1211.35  1393.73
          (KELVIN)           1415.76  1443.33  1468.21  1662.34  1707.26
                             1774.36  1803.97  2025.94  2163.91  2281.75
                             2394.72  2507.94  4922.72  4927.02  4972.15
                             5658.06
 
 Zero-point correction=                           0.076904 (Hartree/Particle)
 Thermal correction to Energy=                    0.080449
 Thermal correction to Enthalpy=                  0.081394
 Thermal correction to Gibbs Free Energy=         0.050736
 Sum of electronic and zero-point Energies=           -224.747396
 Sum of electronic and thermal Energies=              -224.743851
 Sum of electronic and thermal Enthalpies=            -224.742907
 Sum of electronic and thermal Free Energies=         -224.773564
 
                     E (Thermal)             CV                S
                      KCAL/MOL        CAL/MOL-KELVIN    CAL/MOL-KELVIN
 TOTAL                   50.483             11.957             64.524
 ELECTRONIC               0.000              0.000              0.000
 TRANSLATIONAL            0.889              2.981             38.570
 ROTATIONAL               0.889              2.981             24.044
 VIBRATIONAL             48.705              5.996              1.910
 VIBRATION  1             0.900              1.151              0.555
                       Q            LOG10(Q)             LN(Q)
 TOTAL BOT       0.460420D-23        -23.336845        -53.735072
 TOTAL V=0       0.108719D+13         12.036304         27.714615
 VIB (BOT)       0.520386D-35        -35.283675        -81.243663
 VIB (BOT)  1    0.289406D+00         -0.538492         -1.239924
 VIB (V=0)       0.122878D+01          0.089475          0.206024
 VIB (V=0)  1    0.107772D+01          0.032504          0.074844
 ELECTRONIC      0.100000D+01          0.000000          0.000000
 TRANSLATIONAL   0.220588D+08          7.343582         16.909224
 ROTATIONAL      0.401095D+05          4.603247         10.599368
 ***** Axes restored to original set *****
 -------------------------------------------------------------------
 Center     Atomic                   Forces (Hartrees/Bohr)
 Number     Number              X              Y              Z
 -------------------------------------------------------------------
    1          7           0.000238021    0.000000000    0.000125709
    2          1          -0.000010029    0.000000000   -0.000003351
    3          6           0.000135334    0.000000000   -0.000241755
    4          1           0.000010554    0.000000000    0.000037359
    5          6          -0.000218889    0.000000000   -0.000073284
    6          1           0.000069834    0.000000000   -0.000032195
    7          1          -0.000046568    0.000000000    0.000023738
    8          6          -0.000015526    0.000000000   -0.000146591
    9          7          -0.000162732    0.000000000    0.000310369
 -------------------------------------------------------------------
 Cartesian Forces:  Max     0.000310369 RMS     0.000115037

 GradGradGradGradGradGradGradGradGradGradGradGradGradGradGradGradGradGrad
 Berny optimization.
 Internal  Forces:  Max     0.000231232 RMS     0.000063858
 Search for a local minimum.
 Step number   1 out of a maximum of  48
 All quantities printed in internal units (Hartrees-Bohrs-Radians)
 Second derivative matrix not updated -- analytic derivatives used.
     Eigenvalues ---    0.00554   0.01477   0.02688   0.03386   0.06867
     Eigenvalues ---    0.07149   0.11513   0.12249   0.12750   0.13892
     Eigenvalues ---    0.26456   0.27819   0.40117   0.41181   0.41622
     Eigenvalues ---    0.41825   0.47810   0.50183   0.55015   0.56712
     Eigenvalues ---    0.697421000.000001000.000001000.000001000.00000
     Eigenvalues --- 1000.000001000.000001000.000001000.000001000.00000
     Eigenvalues --- 1000.000001000.000001000.000001000.000001000.00000
     Eigenvalues --- 1000.000001000.000001000.00000
 Angle between quadratic step and forces=  23.24 degrees.
 Linear search not attempted -- first point.
 Iteration  1 RMS(Cart)=  0.00014116 RMS(Int)=  0.00000002
 Iteration  2 RMS(Cart)=  0.00000002 RMS(Int)=  0.00000001
 Variable       Old X    -DE/DX   Delta X   Delta X   Delta X     New X
                                 (Linear)    (Quad)   (Total)
    R1        2.59115   0.00019   0.00000   0.00049   0.00049   2.59164
    R2        2.43585  -0.00002   0.00000   0.00004   0.00004   2.43590
    R3        1.87435   0.00000   0.00000   0.00001   0.00001   1.87437
    R4        2.01934  -0.00003   0.00000  -0.00008  -0.00008   2.01927
    R5        2.55150   0.00001   0.00000   0.00005   0.00005   2.55155
    R6        2.59247  -0.00023   0.00000  -0.00054  -0.00054   2.59193
    R7        2.02222  -0.00007   0.00000  -0.00018  -0.00018   2.02204
    R8        2.02454  -0.00005   0.00000  -0.00012  -0.00012   2.02442
    R9        2.55017  -0.00008   0.00000  -0.00023  -0.00023   2.54994
    A1        1.83849  -0.00012   0.00000  -0.00028  -0.00028   1.83821
    A2        2.30843   0.00000   0.00000  -0.00021  -0.00021   2.30822
    A3        2.13795   0.00005   0.00000   0.00031   0.00031   2.13826
    A4        1.83681  -0.00005   0.00000  -0.00010  -0.00010   1.83671
    A5        1.92782   0.00002   0.00000   0.00002   0.00002   1.92785
    A6        2.12086  -0.00004   0.00000  -0.00029  -0.00029   2.12057
    A7        2.23450   0.00002   0.00000   0.00027   0.00027   2.23477
    A8        2.19206  -0.00003   0.00000  -0.00012  -0.00012   2.19194
    A9        1.95849   0.00002   0.00000   0.00001   0.00001   1.95850
   A10        2.13264   0.00001   0.00000   0.00010   0.00010   2.13274
   A11        2.21315  -0.00008   0.00000  -0.00022  -0.00022   2.21294
   A12        2.20686  -0.00006   0.00000  -0.00013  -0.00013   2.20673
   A13        1.86317   0.00013   0.00000   0.00035   0.00035   1.86351
    D1        0.00000   0.00000   0.00000   0.00000   0.00000   0.00000
    D2        3.14159   0.00000   0.00000   0.00000   0.00000   3.14159
    D3        3.14159   0.00000   0.00000   0.00000   0.00000   3.14159
    D4        0.00000   0.00000   0.00000   0.00000   0.00000   0.00000
    D5        3.14159   0.00000   0.00000   0.00000   0.00000   3.14159
    D6        0.00000   0.00000   0.00000   0.00000   0.00000   0.00000
    D7        0.00000   0.00000   0.00000   0.00000   0.00000   0.00000
    D8        3.14159   0.00000   0.00000   0.00000   0.00000   3.14159
    D9        0.00000   0.00000   0.00000   0.00000   0.00000   0.00000
   D10        3.14159   0.00000   0.00000   0.00000   0.00000   3.14159
   D11        3.14159   0.00000   0.00000   0.00000   0.00000   3.14159
   D12        0.00000   0.00000   0.00000   0.00000   0.00000   0.00000
   D13        3.14159   0.00000   0.00000   0.00000   0.00000   3.14159
   D14        0.00000   0.00000   0.00000   0.00000   0.00000   0.00000
   D15        0.00000   0.00000   0.00000   0.00000   0.00000   0.00000
   D16        3.14159   0.00000   0.00000   0.00000   0.00000   3.14159
         Item               Value     Threshold  Converged?
 Maximum Force            0.000231     0.000450     YES
 RMS     Force            0.000064     0.000300     YES
 Maximum Displacement     0.000375     0.001800     YES
 RMS     Displacement     0.000141     0.001200     YES
 Predicted change in Energy=-2.006843D-07
 Optimization completed.
    -- Stationary point found.
                         ----------------------------
                         !   Optimized Parameters   !
                         ! (Angstroms and Degrees)  !
 ------------------------                            -------------------------
 ! Name  Definition              Value          Derivative Info.             !
 -----------------------------------------------------------------------------
 ! R1    R(1,5)                  1.3712         -DE/DX =    0.0002           !
 ! R2    R(1,8)                  1.289          -DE/DX =    0.               !
 ! R3    R(2,9)                  0.9919         -DE/DX =    0.               !
 ! R4    R(3,4)                  1.0686         -DE/DX =    0.               !
 ! R5    R(3,5)                  1.3502         -DE/DX =    0.               !
 ! R6    R(3,9)                  1.3719         -DE/DX =   -0.0002           !
 ! R7    R(5,6)                  1.0701         -DE/DX =   -0.0001           !
 ! R8    R(7,8)                  1.0713         -DE/DX =    0.               !
 ! R9    R(8,9)                  1.3495         -DE/DX =   -0.0001           !
 ! A1    A(5,1,8)              105.3376         -DE/DX =   -0.0001           !
 ! A2    A(4,3,5)              132.2632         -DE/DX =    0.               !
 ! A3    A(4,3,9)              122.4953         -DE/DX =    0.               !
 ! A4    A(5,3,9)              105.2415         -DE/DX =    0.               !
 ! A5    A(1,5,3)              110.4561         -DE/DX =    0.               !
 ! A6    A(1,5,6)              121.5164         -DE/DX =    0.               !
 ! A7    A(3,5,6)              128.0275         -DE/DX =    0.               !
 ! A8    A(1,8,7)              125.5958         -DE/DX =    0.               !
 ! A9    A(1,8,9)              112.2132         -DE/DX =    0.               !
 ! A10   A(7,8,9)              122.191          -DE/DX =    0.               !
 ! A11   A(2,9,3)              126.8044         -DE/DX =   -0.0001           !
 ! A12   A(2,9,8)              126.444          -DE/DX =   -0.0001           !
 ! A13   A(3,9,8)              106.7516         -DE/DX =    0.0001           !
 ! D1    D(8,1,5,3)              0.             -DE/DX =    0.               !
 ! D2    D(8,1,5,6)            180.             -DE/DX =    0.               !
 ! D3    D(5,1,8,7)            180.             -DE/DX =    0.               !
 ! D4    D(5,1,8,9)              0.             -DE/DX =    0.               !
 ! D5    D(4,3,5,1)            180.             -DE/DX =    0.               !
 ! D6    D(4,3,5,6)              0.             -DE/DX =    0.               !
 ! D7    D(9,3,5,1)              0.             -DE/DX =    0.               !
 ! D8    D(9,3,5,6)            180.             -DE/DX =    0.               !
 ! D9    D(4,3,9,2)              0.             -DE/DX =    0.               !
 ! D10   D(4,3,9,8)            180.             -DE/DX =    0.               !
 ! D11   D(5,3,9,2)            180.             -DE/DX =    0.               !
 ! D12   D(5,3,9,8)              0.             -DE/DX =    0.               !
 ! D13   D(1,8,9,2)            180.             -DE/DX =    0.               !
 ! D14   D(1,8,9,3)              0.             -DE/DX =    0.               !
 ! D15   D(7,8,9,2)              0.             -DE/DX =    0.               !
 ! D16   D(7,8,9,3)            180.             -DE/DX =    0.               !
 -----------------------------------------------------------------------------
 GradGradGradGradGradGradGradGradGradGradGradGradGradGradGradGradGradGrad

 1\1\GINC-QCHEM5\Freq\RHF\6-31G(d,p)\C3H4N2\RDJ3\03-Apr-2000\0\\#N GEOM
 =ALLCHECK GUESS=TCHECK RHF/6-31G(D,P) FREQ\\1H imidazole C3H4N2 casno=
 288324\\0,1\N,0.4985517328,0.,1.110643913\H,0.4937632207,0.,-2.0279007
 695\C,-1.0131765047,0.,-0.5361421309\H,-1.8907519608,0.,-1.1458529785\
 C,-0.837573126,0.,0.8025872872\H,-1.5876206179,0.,1.5658511773\H,2.172
 7792756,0.,-0.1597340224\C,1.1100626021,0.,-0.0240680518\N,0.252298589
 2,0.,-1.0658762036\\Version=x86-Linux-G98RevA.4\State=1-A'\HF=-224.824
 3002\RMSD=7.063e-10\RMSF=1.150e-04\Dipole=-0.104396,0.,-1.5126338\Dipo
 leDeriv=-0.5289103,0.,-0.0095938,0.,-0.3786892,0.,0.0869938,0.,-0.6521
 604,0.2023023,0.,-0.0020917,0.,0.3720355,0.,-0.0074791,0.,0.2640943,0.
 0216527,0.,-0.3032988,0.,-0.1135473,0.,-0.0161221,0.,0.2295314,0.00859
 57,0.,-0.04347,0.,0.1863633,0.,-0.0607281,0.,0.0458721,0.2820049,0.,-0
 .0284484,0.,-0.1027823,0.,-0.1385488,0.,0.1373719,-0.0164269,0.,0.0749
 088,0.,0.1515589,0.,0.0812816,0.,0.0206038,-0.0433076,0.,0.0302927,0.,
 0.1404435,0.,0.0328746,0.,0.070259,0.2700459,0.,0.0877196,0.,0.1177343
 ,0.,-0.0507573,0.,0.6643002,-0.1959567,0.,0.1939817,0.,-0.3731167,0.,0
 .0724854,0.,-0.7798722\Polar=44.4624917,0.,17.4751072,-0.7270576,0.,43
 .6469154\PolarDeriv=-9.2280459,0.,-0.2559717,-0.7339562,0.,5.7458906,0
 .,0.4438771,0.,0.,3.094173,0.,5.7100563,0.,0.2913172,2.0527507,0.,6.44
 69759,0.7087885,0.,-0.0153512,-1.6110883,0.,1.4953506,0.,0.2669862,0.,
 0.,-0.9863813,0.,-0.9739138,0.,-0.1143634,1.7536466,0.,-8.6503593,0.50
 5389,0.,0.3018769,-1.0681741,0.,-1.676968,0.,-3.0972151,0.,0.,-4.06877
 22,0.,-5.173181,0.,-0.8911164,-1.8327873,0.,-3.5558538,-6.6031617,0.,-
 0.4146892,-3.0778704,0.,-1.8980994,0.,-0.889956,0.,0.,-0.2873034,0.,-2
 .8330312,0.,-0.1979964,-2.8142019,0.,-3.1767699,7.4320257,0.,0.1889085
 ,2.9019158,0.,-1.8928824,0.,-0.5568175,0.,0.,4.0453565,0.,5.8336589,0.
 ,0.496224,3.3245798,0.,2.4780699,-4.5842349,0.,-0.3369736,3.5242645,0.
 ,-2.7503102,0.,-1.2568412,0.,0.,0.7027985,0.,2.6265937,0.,0.3079187,-3
 .077295,0.,5.0687416,9.8513489,0.,0.5094558,-0.6327106,0.,0.7723777,0.
 ,1.183454,0.,0.,-0.0489288,0.,-0.9583175,0.,-0.0601557,1.662276,0.,-0.
 3873163,4.6877664,0.,0.5581611,-0.2381166,0.,0.2751371,0.,3.6006648,0.
 ,0.,-1.0226237,0.,-5.0443191,0.,-0.2485873,-0.6648438,0.,2.0252178,-2.
 7698761,0.,-0.5354168,0.9357359,0.,-0.070496,0.,0.3058477,0.,0.,-1.428
 3186,0.,0.8124538,0.,0.4167593,-0.4041251,0.,-0.248706\HyperPolar=33.7
 672502,0.,1.0758825,0.,-13.9581488,0.,-3.2560564,-27.1751787,0.,-26.49
 75316\PG=CS [SG(C3H4N2)]\NImag=0\\0.57128802,0.,0.12339065,-0.07966865
 ,0.,0.71670735,-0.00291589,0.,-0.01017988,0.09824987,0.,0.00773843,0.,
 0.,0.01216357,-0.00450212,0.,-0.00254071,-0.11296716,0.,0.52083325,-0.
 03511624,0.,-0.01205456,0.01099361,0.,-0.00222407,0.83532348,0.,0.0195
 3865,0.,0.,-0.00854858,0.,0.,0.14010725,-0.10626191,0.,-0.02072554,0.0
 3151215,0.,-0.00063504,0.18827849,0.,0.87930961,0.00265741,0.,0.000664
 79,0.00015830,0.,0.00011996,-0.28680664,0.,-0.15046385,0.30218567,0.,0
 .00882642,0.,0.,-0.00121720,0.,0.,-0.03049273,0.,0.,0.02432852,-0.0044
 0715,0.,-0.00626959,-0.00126553,0.,0.00015919,-0.16091410,0.,-0.186003
 29,0.16680382,0.,0.17554491,-0.28809033,0.,-0.04977354,-0.01018831,0.,
 0.00034890,-0.12644528,0.,-0.02660275,0.00620103,0.,-0.02598437,0.7537
 6116,0.,-0.08408826,0.,0.,0.00221033,0.,0.,-0.08245601,0.,0.,0.0007385
 6,0.,0.,0.16681439,-0.05002083,0.,-0.14048851,0.00390984,0.,0.00181985
 ,-0.05041121,0.,-0.47876743,0.00077391,0.,0.00288807,-0.16445389,0.,0.
 93842744,-0.02016237,0.,0.02521457,0.00089575,0.,-0.00003100,0.0110407
 0,0.,-0.00555824,-0.00028044,0.,0.00089694,-0.21911767,0.,0.15851143,0
 .23403775,0.,-0.00432440,0.,0.,0.00245184,0.,0.,0.00164722,0.,0.,-0.00
 328447,0.,0.,-0.03911775,0.,0.,0.02925219,-0.00749830,0.,0.01472047,0.
 00143263,0.,0.00023903,0.02433639,0.,-0.00790303,-0.00066913,0.,-0.000
 16563,0.16228034,0.,-0.24389656,-0.17435109,0.,0.24262278,-0.00974018,
 0.,0.00432211,-0.00062995,0.,-0.00055218,0.00134583,0.,-0.00415152,-0.
 00044765,0.,0.00045001,0.00151803,0.,0.00324785,-0.00041451,0.,-0.0002
 0320,0.40621902,0.,-0.00347950,0.,0.,-0.00174346,0.,0.,0.00324908,0.,0
 .,0.00199371,0.,0.,0.00914494,0.,0.,0.00094095,0.,0.,0.02889425,0.0348
 8162,0.,0.00231102,0.00074021,0.,0.00044096,-0.00067616,0.,-0.00697206
 ,-0.00123236,0.,0.00113132,0.00307123,0.,-0.00505967,0.00161947,0.,0.0
 0073112,-0.04154101,0.,0.07330867,-0.21834209,0.,0.15887843,0.02298519
 ,0.,0.01557484,-0.10438585,0.,0.00527154,-0.00351074,0.,0.00473529,-0.
 09218645,0.,0.01859906,-0.00725326,0.,-0.00419772,-0.38281609,0.,0.037
 88876,1.03380131,0.,-0.09519909,0.,0.,-0.00932128,0.,0.,0.01872352,0.,
 0.,0.00302780,0.,0.,0.01142035,0.,0.,0.00566928,0.,0.,-0.03976157,0.,0
 .,0.18084693,0.16475304,0.,-0.43530239,-0.01857627,0.,-0.01169503,-0.0
 5639884,0.,-0.01872355,0.00604434,0.,-0.00561580,0.10326224,0.,0.01297
 450,-0.00323131,0.,0.00019877,0.03370241,0.,-0.07604242,-0.11648218,0.
 ,0.78642392,0.00042169,0.,-0.03740327,-0.11954858,0.,0.10423283,-0.305
 94961,0.,0.06797611,-0.02015694,0.,0.01968509,-0.02545217,0.,0.0798438
 2,0.00125406,0.,-0.00112992,-0.01503450,0.,-0.03475175,-0.24829202,0.,
 -0.11307344,0.73275807,0.,0.02759708,0.,0.,-0.00373366,0.,0.,-0.061768
 41,0.,0.,-0.00392062,0.,0.,0.01533344,0.,0.,0.00676514,0.,0.,0.0007616
 0,0.,0.,-0.07540594,0.,0.,0.09437137,0.05272430,0.,-0.12841212,0.10539
 401,0.,-0.50862150,0.07006406,0.,-0.15957968,-0.02204148,0.,0.01833082
 ,-0.00214816,0.,-0.08789770,-0.00307077,0.,-0.00654695,0.00472553,0.,0
 .01015106,-0.12026802,0.,-0.25221800,-0.08537945,0.,1.11479407\\-0.000
 23802,0.,-0.00012571,0.00001003,0.,0.00000335,-0.00013533,0.,0.0002417
 6,-0.00001055,0.,-0.00003736,0.00021889,0.,0.00007328,-0.00006983,0.,0
 .00003220,0.00004657,0.,-0.00002374,0.00001553,0.,0.00014659,0.0001627
 3,0.,-0.00031037\\\@


 OF ALL THE WONDERS OF THE UNIVERSE, THE GREATEST IS MAN.

                                    -- ARISTOTLE
 Job cpu time:  0 days  0 hours 13 minutes 46.3 seconds.
 File lengths (MBytes):  RWF=   15 Int=    0 D2E=    0 Chk=    3 Scr=    1
 Normal termination of Gaussian 98.
