 Entering Gaussian System, Link 0=g98
 Initial command:
 /usr/local/apps/g98/g98/l1.exe /wrk/Gau-15764.inp -scrdir=/wrk/
 Entering Link 1 = /usr/local/apps/g98/g98/l1.exe PID=     12682.
  
 Copyright (c) 1988,1990,1992,1993,1995,1998 Gaussian, Inc.
                  All Rights Reserved.
  
 This is part of the Gaussian(R) 98 program.  It is based on
 the Gaussian 94(TM) system (copyright 1995 Gaussian, Inc.),
 the Gaussian 92(TM) system (copyright 1992 Gaussian, Inc.),
 the Gaussian 90(TM) system (copyright 1990 Gaussian, Inc.),
 the Gaussian 88(TM) system (copyright 1988 Gaussian, Inc.),
 the Gaussian 86(TM) system (copyright 1986 Carnegie Mellon
 University), and the Gaussian 82(TM) system (copyright 1983
 Carnegie Mellon University). Gaussian is a federally registered
 trademark of Gaussian, Inc.
  
 This software contains proprietary and confidential information,
 including trade secrets, belonging to Gaussian, Inc.
  
 This software is provided under written license and may be
 used, copied, transmitted, or stored only in accord with that
 written license.
  
 The following legend is applicable only to US Government
 contracts under DFARS:
  
                    RESTRICTED RIGHTS LEGEND
  
 Use, duplication or disclosure by the US Government is subject
 to restrictions as set forth in subparagraph (c)(1)(ii) of the
 Rights in Technical Data and Computer Software clause at DFARS
 252.227-7013.
  
 Gaussian, Inc.
 Carnegie Office Park, Building 6, Pittsburgh, PA 15106 USA
  
 The following legend is applicable only to US Government
 contracts under FAR:
  
                    RESTRICTED RIGHTS LEGEND
  
 Use, reproduction and disclosure by the US Government is subject
 to restrictions as set forth in subparagraph (c) of the
 Commercial Computer Software - Restricted Rights clause at FAR
 52.227-19.
  
 Gaussian, Inc.
 Carnegie Office Park, Building 6, Pittsburgh, PA 15106 USA
  
  
 ---------------------------------------------------------------
 Warning -- This program may not be used in any manner that
 competes with the business of Gaussian, Inc. or will provide
 assistance to any competitor of Gaussian, Inc.  The licensee
 of this program is prohibited from giving any competitor of
 Gaussian, Inc. access to this program.  By using this program,
 the user acknowledges that Gaussian, Inc. is engaged in the
 business of creating and licensing software in the field of
 computational chemistry and represents and warrants to the
 licensee that it is not a competitor of Gaussian, Inc. and that
 it will not use this program in any manner prohibited above.
 ---------------------------------------------------------------
  

 Cite this work as:
 Gaussian 98, Revision A.7,
 M. J. Frisch, G. W. Trucks, H. B. Schlegel, G. E. Scuseria, 
 M. A. Robb, J. R. Cheeseman, V. G. Zakrzewski, J. A. Montgomery, Jr., 
 R. E. Stratmann, J. C. Burant, S. Dapprich, J. M. Millam, 
 A. D. Daniels, K. N. Kudin, M. C. Strain, O. Farkas, J. Tomasi, 
 V. Barone, M. Cossi, R. Cammi, B. Mennucci, C. Pomelli, C. Adamo, 
 S. Clifford, J. Ochterski, G. A. Petersson, P. Y. Ayala, Q. Cui, 
 K. Morokuma, D. K. Malick, A. D. Rabuck, K. Raghavachari, 
 J. B. Foresman, J. Cioslowski, J. V. Ortiz, A. G. Baboul, 
 B. B. Stefanov, G. Liu, A. Liashenko, P. Piskorz, I. Komaromi, 
 R. Gomperts, R. L. Martin, D. J. Fox, T. Keith, M. A. Al-Laham, 
 C. Y. Peng, A. Nanayakkara, C. Gonzalez, M. Challacombe, 
 P. M. W. Gill, B. Johnson, W. Chen, M. W. Wong, J. L. Andres, 
 C. Gonzalez, M. Head-Gordon, E. S. Replogle, and J. A. Pople, 
 Gaussian, Inc., Pittsburgh PA, 1998.

 **********************************************
 Gaussian 98:  IBM-RS6000-G98RevA.7 11-Apr-1999
                  24-Feb-2000 
 **********************************************
 %mem=24000000
 --------------------
 #HF/6-311G* opt freq
 --------------------
 1/18=20,38=1/1,3;
 2/9=110,17=6,18=5/2;
 3/5=4,6=6,7=1,11=9,25=1,30=1/1,2,3;
 4//1;
 5/5=2,38=4/2;
 6/7=2,8=2,9=2,10=2,28=1/1;
 7//1,2,3,16;
 1/18=20/3(1);
 99//99;
 2/9=110/2;
 3/5=4,6=6,7=1,11=9,25=1,30=1/1,2,3;
 4/5=5,16=2/1;
 5/5=2,38=4/2;
 7//1,2,3,16;
 1/18=20/3(-5);
 2/9=110/2;
 6/7=2,8=2,9=2,10=2,19=2,28=1/1;
 99/9=1/99;
 --------------------------------
 1H imidazole C3H4N2 casno=288324
 --------------------------------
 Symbolic Z-matrix:
 Charge =  0 Multiplicity = 1
 N                     0.30938   0.        1.30938 
 H                     0.3125    0.       -1.6875 
 C                    -1.06875   0.       -0.28438 
 H                    -1.91875   0.       -0.79063 
 C                    -0.93438   0.        1.02812 
 H                    -1.675     0.        1.6875 
 H                     1.91875   0.        0.09063 
 C                     0.93438   0.        0.19063 
 N                     0.09688   0.       -0.775 

 GradGradGradGradGradGradGradGradGradGradGradGradGradGradGradGradGradGrad
 Berny optimization.
 Initialization pass.
                         ----------------------------
                         !    Initial Parameters    !
                         ! (Angstroms and Degrees)  !
 ------------------------                            -------------------------
 ! Name  Definition              Value          Derivative Info.             !
 -----------------------------------------------------------------------------
 ! R1    R(1,5)                  1.2752         estimate D2E/DX2             !
 ! R2    R(1,8)                  1.2815         estimate D2E/DX2             !
 ! R3    R(2,9)                  0.9376         estimate D2E/DX2             !
 ! R4    R(3,4)                  0.9893         estimate D2E/DX2             !
 ! R5    R(3,5)                  1.3194         estimate D2E/DX2             !
 ! R6    R(3,9)                  1.2647         estimate D2E/DX2             !
 ! R7    R(5,6)                  0.9916         estimate D2E/DX2             !
 ! R8    R(7,8)                  0.9894         estimate D2E/DX2             !
 ! R9    R(8,9)                  1.2782         estimate D2E/DX2             !
 ! A1    A(5,1,8)              106.4483         estimate D2E/DX2             !
 ! A2    A(4,3,5)              126.6232         estimate D2E/DX2             !
 ! A3    A(4,3,9)              126.3957         estimate D2E/DX2             !
 ! A4    A(5,3,9)              106.9812         estimate D2E/DX2             !
 ! A5    A(1,5,3)              108.5877         estimate D2E/DX2             !
 ! A6    A(1,5,6)              125.5794         estimate D2E/DX2             !
 ! A7    A(3,5,6)              125.8329         estimate D2E/DX2             !
 ! A8    A(1,8,7)              124.9909         estimate D2E/DX2             !
 ! A9    A(1,8,9)              109.8741         estimate D2E/DX2             !
 ! A10   A(7,8,9)              125.1349         estimate D2E/DX2             !
 ! A11   A(2,9,3)              126.122          estimate D2E/DX2             !
 ! A12   A(2,9,8)              125.7693         estimate D2E/DX2             !
 ! A13   A(3,9,8)              108.1088         estimate D2E/DX2             !
 ! D1    D(8,1,5,3)              0.             estimate D2E/DX2             !
 ! D2    D(8,1,5,6)            180.             estimate D2E/DX2             !
 ! D3    D(5,1,8,7)            180.             estimate D2E/DX2             !
 ! D4    D(5,1,8,9)              0.             estimate D2E/DX2             !
 ! D5    D(4,3,5,1)            180.             estimate D2E/DX2             !
 ! D6    D(4,3,5,6)              0.             estimate D2E/DX2             !
 ! D7    D(9,3,5,1)              0.             estimate D2E/DX2             !
 ! D8    D(9,3,5,6)            180.             estimate D2E/DX2             !
 ! D9    D(4,3,9,2)              0.             estimate D2E/DX2             !
 ! D10   D(4,3,9,8)            180.             estimate D2E/DX2             !
 ! D11   D(5,3,9,2)            180.             estimate D2E/DX2             !
 ! D12   D(5,3,9,8)              0.             estimate D2E/DX2             !
 ! D13   D(1,8,9,2)            180.             estimate D2E/DX2             !
 ! D14   D(1,8,9,3)              0.             estimate D2E/DX2             !
 ! D15   D(7,8,9,2)              0.             estimate D2E/DX2             !
 ! D16   D(7,8,9,3)            180.             estimate D2E/DX2             !
 -----------------------------------------------------------------------------
 Trust Radius=3.00D-01 FncErr=1.00D-07 GrdErr=1.00D-07
 Number of steps in this run=  48 maximum allowed number of steps= 100.
 GradGradGradGradGradGradGradGradGradGradGradGradGradGradGradGradGradGrad

                          Input orientation:                          
 ---------------------------------------------------------------------
 Center     Atomic     Atomic              Coordinates (Angstroms)
 Number     Number      Type              X           Y           Z
 ---------------------------------------------------------------------
    1          7             0         .309375     .000000    1.309375
    2          1             0         .312500     .000000   -1.687500
    3          6             0       -1.068750     .000000    -.284375
    4          1             0       -1.918750     .000000    -.790625
    5          6             0        -.934375     .000000    1.028125
    6          1             0       -1.675000     .000000    1.687500
    7          1             0        1.918750     .000000     .090625
    8          6             0         .934375     .000000     .190625
    9          7             0         .096875     .000000    -.775000
 ---------------------------------------------------------------------
                    Distance matrix (angstroms):
                    1          2          3          4          5
     1  N     .000000
     2  H    2.996877    .000000
     3  C    2.106957   1.968911    .000000
     4  H    3.061787   2.404758    .989338    .000000
     5  C    1.275153   2.988196   1.319361   2.068054    .000000
     6  H    2.020080   3.916731   2.062966   2.490084    .991615
     7  H    2.018772   2.396199   3.010944   3.937386   3.003203
     8  C    1.281494   1.978404   2.058673   3.017147   2.047836
     9  N    2.095179    .937630   1.264672   2.015686   2.077194
                    6          7          8          9
     6  H     .000000
     7  H    3.932563    .000000
     8  C    3.008234    .989441    .000000
     9  N    3.033718   2.017061   1.278217    .000000
 Stoichiometry    C3H4N2
 Framework group  CS[SG(C3H4N2)]
 Deg. of freedom   15
 Full point group                 CS      NOp   2
 Largest Abelian subgroup         CS      NOp   2
 Largest concise Abelian subgroup C1      NOp   1
                         Standard orientation:                         
 ---------------------------------------------------------------------
 Center     Atomic     Atomic              Coordinates (Angstroms)
 Number     Number      Type              X           Y           Z
 ---------------------------------------------------------------------
    1          7             0        -.674969    -.941702     .000000
    2          1             0        -.005288    1.979393     .000000
    3          6             0        1.025744     .302019     .000000
    4          1             0        1.967693     .604544     .000000
    5          6             0         .600174    -.946822     .000000
    6          1             0        1.173884   -1.755622     .000000
    7          1             0       -1.969692     .607211     .000000
    8          6             0       -1.032886     .288794     .000000
    9          7             0         .000000    1.041778     .000000
 ---------------------------------------------------------------------
 Rotational constants (GHZ):     11.1543393     10.4769603      5.4025219
 Isotopes: N-14,H-1,C-12,H-1,C-12,H-1,H-1,C-12,N-14
 Standard basis: 6-311G(d) (5D, 7F)
 There are    77 symmetry adapted basis functions of A'  symmetry.
 There are    25 symmetry adapted basis functions of A"  symmetry.
 Crude estimate of integral set expansion from redundant integrals=1.000.
 Integral buffers will be    262144 words long.
 Raffenetti 1 integral format.
 Two-electron integral symmetry is turned on.
   102 basis functions      180 primitive gaussians
    18 alpha electrons       18 beta electrons
       nuclear repulsion energy       173.5664837334 Hartrees.
 One-electron integrals computed using PRISM.
 NBasis=   102 RedAO= T  NBF=    77    25
 NBsUse=   102 1.00D-04 NBFU=    77    25
 Projected INDO Guess.
 Initial guess orbital symmetries:
       Occupied  (A') (A') (A') (A') (A') (A') (A') (A') (A') (A')
                 (A') (A") (A') (A') (A') (A") (A') (A")
       Virtual   (A") (A') (A') (A") (A') (A') (A') (A') (A') (A')
                 (A') (A') (A') (A') (A') (A') (A') (A') (A') (A')
                 (A') (A') (A') (A') (A') (A') (A') (A') (A') (A')
                 (A') (A') (A') (A') (A') (A') (A') (A') (A') (A')
                 (A') (A') (A') (A') (A') (A') (A') (A') (A') (A')
                 (A') (A') (A') (A') (A') (A') (A') (A') (A') (A')
                 (A') (A') (A') (A') (A") (A") (A") (A") (A") (A")
                 (A") (A") (A") (A") (A") (A") (A") (A") (A") (A")
                 (A") (A") (A") (A")
 Requested convergence on RMS density matrix=1.00D-08 within  64 cycles.
 Requested convergence on MAX density matrix=1.00D-06.
 Keep R1 integrals in memory in canonical form, NReq=    17362054.
 SCF Done:  E(RHF) =  -224.810598915     A.U. after   13 cycles
             Convg  =     .7859D-08             -V/T =  1.9929
             S**2   =    .0000

 **********************************************************************

            Population analysis using the SCF density.

 **********************************************************************

 Orbital Symmetries:
       Occupied  (A') (A') (A') (A') (A') (A') (A') (A') (A') (A')
                 (A') (A') (A") (A') (A') (A') (A") (A")
       Virtual   (A') (A') (A') (A") (A') (A") (A') (A') (A') (A')
                 (A') (A') (A") (A') (A") (A') (A") (A') (A') (A')
                 (A') (A') (A") (A') (A') (A') (A") (A') (A') (A')
                 (A') (A') (A') (A") (A') (A") (A') (A") (A') (A")
                 (A") (A') (A') (A') (A') (A') (A') (A") (A') (A')
                 (A') (A") (A") (A') (A") (A') (A') (A") (A') (A")
                 (A') (A") (A') (A') (A") (A') (A') (A') (A') (A')
                 (A') (A') (A") (A') (A") (A') (A') (A') (A') (A')
                 (A') (A') (A') (A')
  The electronic state is 1-A'.
 Alpha  occ. eigenvalues --  -15.61100 -15.51044 -11.25614 -11.21875 -11.19963
 Alpha  occ. eigenvalues --   -1.41279  -1.20466  -1.03395   -.86818   -.82983
 Alpha  occ. eigenvalues --    -.80025   -.64213   -.63894   -.61421   -.59456
 Alpha  occ. eigenvalues --    -.41970   -.41182   -.31368
 Alpha virt. eigenvalues --     .14298    .18719    .20374    .20669    .22344
 Alpha virt. eigenvalues --     .25979    .35383    .39004    .43928    .44441
 Alpha virt. eigenvalues --     .54867    .57372    .57488    .59910    .62026
 Alpha virt. eigenvalues --     .64175    .68893    .71269    .77995    .79132
 Alpha virt. eigenvalues --     .83194    .85864    .88230    .88952    .92669
 Alpha virt. eigenvalues --     .98143    .98265   1.03727   1.05293   1.09948
 Alpha virt. eigenvalues --    1.18928   1.21706   1.27334   1.30132   1.39683
 Alpha virt. eigenvalues --    1.48335   1.50407   1.52382   1.52802   1.65628
 Alpha virt. eigenvalues --    1.80001   1.88632   1.97550   2.06508   2.08942
 Alpha virt. eigenvalues --    2.16489   2.17861   2.23486   2.33883   2.41993
 Alpha virt. eigenvalues --    2.60797   2.63516   2.64593   2.64932   2.75377
 Alpha virt. eigenvalues --    2.92038   3.02533   3.04141   3.05736   3.10250
 Alpha virt. eigenvalues --    3.20047   3.21791   3.21949   3.34522   3.35009
 Alpha virt. eigenvalues --    3.66405   3.73594   3.84351   3.87221   3.92989
 Alpha virt. eigenvalues --    4.07270   4.15652   4.27253   4.32211   4.37034
 Alpha virt. eigenvalues --    4.92707   5.07087   5.33581   5.77735  24.95797
 Alpha virt. eigenvalues --   25.13621  25.53094  36.99218  37.24766
          Condensed to atoms (all electrons):
              1          2          3          4          5          6
  1  N    6.467652    .006145   -.125288    .006232    .525844   -.019281
  2  H     .006145    .342286   -.034618   -.002065    .007085   -.000238
  3  C    -.125288   -.034618   5.052738    .390465    .660355   -.046422
  4  H     .006232   -.002065    .390465    .399615   -.023262    .001822
  5  C     .525844    .007085    .660355   -.023262   4.866499    .418854
  6  H    -.019281   -.000238   -.046422    .001822    .418854    .409810
  7  H    -.018002   -.001998    .002214   -.000251    .004520   -.000214
  8  C     .628400   -.034168   -.168698    .003929   -.211177    .006091
  9  N    -.101804    .341919    .399706   -.025518   -.088568    .002761
              7          8          9
  1  N    -.018002    .628400   -.101804
  2  H    -.001998   -.034168    .341919
  3  C     .002214   -.168698    .399706
  4  H    -.000251    .003929   -.025518
  5  C     .004520   -.211177   -.088568
  6  H    -.000214    .006091    .002761
  7  H     .390088    .413118   -.033561
  8  C     .413118   4.845526    .446362
  9  N    -.033561    .446362   6.564401
 Total atomic charges:
              1
  1  N    -.369900
  2  H     .375652
  3  C    -.130452
  4  H     .249031
  5  C    -.160149
  6  H     .226816
  7  H     .244085
  8  C     .070615
  9  N    -.505697
 Sum of Mulliken charges=    .00000
 Atomic charges with hydrogens summed into heavy atoms:
              1
  1  N    -.369900
  2  H     .000000
  3  C     .118579
  4  H     .000000
  5  C     .066667
  6  H     .000000
  7  H     .000000
  8  C     .314700
  9  N    -.130046
 Sum of Mulliken charges=    .00000
 Electronic spatial extent (au):  <R**2>=   258.7431
 Charge=      .0000 electrons
 Dipole moment (Debye):
    X=     1.0897    Y=     3.8784    Z=      .0000  Tot=     4.0286
 Quadrupole moment (Debye-Ang):
   XX=   -26.5509   YY=   -25.3879   ZZ=   -31.1377
   XY=    -3.4007   XZ=      .0000   YZ=      .0000
 Octapole moment (Debye-Ang**2):
  XXX=      .1086  YYY=    16.0534  ZZZ=      .0000  XYY=     5.0967
  XXY=     5.4996  XXZ=      .0000  XZZ=     -.9593  YZZ=     1.4010
  YYZ=      .0000  XYZ=      .0000
 Hexadecapole moment (Debye-Ang**3):
 XXXX=  -137.3306 YYYY=  -126.5495 ZZZZ=   -31.8428 XXXY=    -3.3421
 XXXZ=      .0000 YYYX=    -7.5706 YYYZ=      .0000 ZZZX=      .0000
 ZZZY=      .0000 XXYY=   -51.0864 XXZZ=   -34.4455 YYZZ=   -32.1408
 XXYZ=      .0000 YYXZ=      .0000 ZZXY=      .6607
 N-N= 1.735664837334D+02 E-N=-8.740132692117D+02  KE= 2.264204176869D+02
 Symmetry A'   KE= 2.185476295996D+02
 Symmetry A"   KE= 7.872788087276D+00
 ***** Axes restored to original set *****
 -------------------------------------------------------------------
 Center     Atomic                   Forces (Hartrees/Bohr)
 Number     Number              X              Y              Z
 -------------------------------------------------------------------
    1          7            .089236581     .000000000     .062800245
    2          1            .015127296     .000000000    -.063844708
    3          6           -.077540737     .000000000     .030250090
    4          1           -.062632535     .000000000    -.048694822
    5          6           -.027736461     .000000000    -.025775632
    6          1           -.053761193     .000000000     .055742756
    7          1            .077976686     .000000000    -.010579548
    8          6           -.002377332     .000000000     .056037818
    9          7            .041707696     .000000000    -.055936198
 -------------------------------------------------------------------
 Cartesian Forces:  Max      .089236581 RMS      .043491787

 GradGradGradGradGradGradGradGradGradGradGradGradGradGradGradGradGradGrad
 Berny optimization.
 Internal  Forces:  Max      .123075117 RMS      .041538643
 Search for a local minimum.
 Step number   1 out of a maximum of  48
 All quantities printed in internal units (Hartrees-Bohrs-Radians)
 Second derivative matrix not updated -- first step.
     Eigenvalues ---     .03211    .03261    .03288    .03318    .03352
     Eigenvalues ---     .03407    .16000    .16000    .16000    .16000
     Eigenvalues ---     .22000    .22917    .49193    .49594    .49613
     Eigenvalues ---     .54578    .60577    .63413    .68379    .73836
     Eigenvalues ---     .765081000.000001000.000001000.000001000.00000
     Eigenvalues --- 1000.000001000.000001000.000001000.000001000.00000
     Eigenvalues --- 1000.000001000.000001000.000001000.000001000.00000
     Eigenvalues --- 1000.000001000.000001000.00000
 RFO step:  Lambda=-9.07822235D-02.
 Linear search not attempted -- first point.
 Maximum step size (    .300) exceeded in Quadratic search.
    -- Step size scaled by    .826
 Iteration  1 RMS(Cart)=   .06454788 RMS(Int)=   .00057320
 Iteration  2 RMS(Cart)=   .00065963 RMS(Int)=   .00013775
 Iteration  3 RMS(Cart)=   .00000050 RMS(Int)=   .00013775
 Variable       Old X    -DE/DX   Delta X   Delta X   Delta X     New X
                                 (Linear)    (Quad)   (Total)
    R1        2.40969    .11025    .00000    .10609    .10602   2.51571
    R2        2.42167    .03597    .00000    .03320    .03294   2.45461
    R3        1.77186    .06561    .00000    .07778    .07778   1.84964
    R4        1.86958    .07873    .00000    .11076    .11076   1.98034
    R5        2.49323    .06313    .00000    .07493    .07513   2.56836
    R6        2.38988    .12308    .00000    .12011    .12031   2.51020
    R7        1.87388    .07722    .00000    .10942    .10942   1.98330
    R8        1.86977    .07865    .00000    .11068    .11068   1.98045
    R9        2.41548    .09691    .00000    .09751    .09742   2.51290
    A1        1.85787    .00423    .00000   -.00679   -.00719   1.85068
    A2        2.20999    .01800    .00000    .04717    .04697   2.25696
    A3        2.20602   -.00030    .00000   -.01308   -.01328   2.19274
    A4        1.86717   -.01770    .00000   -.03409   -.03369   1.83349
    A5        1.89521    .01012    .00000    .02490    .02504   1.92025
    A6        2.19177   -.01057    .00000   -.03060   -.03067   2.16110
    A7        2.19620    .00046    .00000    .00571    .00564   2.20184
    A8        2.18150   -.00046    .00000    .00244    .00257   2.18407
    A9        1.91767    .00586    .00000    .01141    .01114   1.92881
   A10        2.18402   -.00540    .00000   -.01384   -.01371   2.17031
   A11        2.20124    .00129    .00000   -.00217   -.00224   2.19901
   A12        2.19509    .00122    .00000   -.00240   -.00247   2.19262
   A13        1.88685   -.00251    .00000    .00457    .00471   1.89156
    D1         .00000    .00000    .00000    .00000    .00000    .00000
    D2        3.14159    .00000    .00000    .00000    .00000   3.14159
    D3        3.14159    .00000    .00000    .00000    .00000   3.14159
    D4         .00000    .00000    .00000    .00000    .00000    .00000
    D5        3.14159    .00000    .00000    .00000    .00000   3.14159
    D6         .00000    .00000    .00000    .00000    .00000    .00000
    D7         .00000    .00000    .00000    .00000    .00000    .00000
    D8        3.14159    .00000    .00000    .00000    .00000   3.14159
    D9         .00000    .00000    .00000    .00000    .00000    .00000
   D10        3.14159    .00000    .00000    .00000    .00000   3.14159
   D11        3.14159    .00000    .00000    .00000    .00000   3.14159
   D12         .00000    .00000    .00000    .00000    .00000    .00000
   D13        3.14159    .00000    .00000    .00000    .00000   3.14159
   D14         .00000    .00000    .00000    .00000    .00000    .00000
   D15         .00000    .00000    .00000    .00000    .00000    .00000
   D16        3.14159    .00000    .00000    .00000    .00000   3.14159
         Item               Value     Threshold  Converged?
 Maximum Force             .123075      .000450     NO 
 RMS     Force             .041539      .000300     NO 
 Maximum Displacement      .180036      .001800     NO 
 RMS     Displacement      .064456      .001200     NO 
 Predicted change in Energy=-2.686921D-02
 GradGradGradGradGradGradGradGradGradGradGradGradGradGradGradGradGradGrad

                          Input orientation:                          
 ---------------------------------------------------------------------
 Center     Atomic     Atomic              Coordinates (Angstroms)
 Number     Number      Type              X           Y           Z
 ---------------------------------------------------------------------
    1          7             0         .481072     .000000    1.106862
    2          1             0         .477803     .000000   -1.990746
    3          6             0        -.985639     .000000    -.538488
    4          1             0       -1.872669     .000000   -1.096500
    5          6             0        -.816683     .000000     .810088
    6          1             0       -1.580533     .000000    1.529825
    7          1             0        2.151000     .000000    -.143681
    8          6             0        1.109160     .000000    -.030113
    9          7             0         .244300     .000000   -1.040217
 ---------------------------------------------------------------------
                    Distance matrix (angstroms):
                    1          2          3          4          5
     1  N     .000000
     2  H    3.097610    .000000
     3  C    2.204182   2.061726    .000000
     4  H    3.224112   2.514835   1.047950    .000000
     5  C    1.331257   3.085509   1.359118   2.179491    .000000
     6  H    2.104546   4.078133   2.152166   2.642523   1.049518
     7  H    2.086269   2.492235   3.161388   4.134946   3.117182
     8  C    1.298926   2.059779   2.155603   3.166778   2.101145
     9  N    2.160095    .978789   1.328338   2.117717   2.132912
                    6          7          8          9
     6  H     .000000
     7  H    4.089617    .000000
     8  C    3.109318   1.048012    .000000
     9  N    3.152005   2.106961   1.329772    .000000
 Stoichiometry    C3H4N2
 Framework group  CS[SG(C3H4N2)]
 Deg. of freedom   15
 Full point group                 CS      NOp   2
 Largest Abelian subgroup         CS      NOp   2
 Largest concise Abelian subgroup C1      NOp   1
                         Standard orientation:                         
 ---------------------------------------------------------------------
 Center     Atomic     Atomic              Coordinates (Angstroms)
 Number     Number      Type              X           Y           Z
 ---------------------------------------------------------------------
    1          7             0        -.713978    -.964963     .000000
    2          1             0        -.013558    2.052419     .000000
    3          6             0        1.085443     .308026     .000000
    4          1             0        2.075313     .652058     .000000
    5          6             0         .617276    -.967914     .000000
    6          1             0        1.199519   -1.841115     .000000
    7          1             0       -2.059571     .629370     .000000
    8          6             0       -1.070029     .284211     .000000
    9          7             0         .000000    1.073725     .000000
 ---------------------------------------------------------------------
 Rotational constants (GHZ):     10.2316247      9.8649542      5.0224722
 Isotopes: N-14,H-1,C-12,H-1,C-12,H-1,H-1,C-12,N-14
 Standard basis: 6-311G(d) (5D, 7F)
 There are    77 symmetry adapted basis functions of A'  symmetry.
 There are    25 symmetry adapted basis functions of A"  symmetry.
 Crude estimate of integral set expansion from redundant integrals=1.000.
 Integral buffers will be    262144 words long.
 Raffenetti 1 integral format.
 Two-electron integral symmetry is turned on.
   102 basis functions      180 primitive gaussians
    18 alpha electrons       18 beta electrons
       nuclear repulsion energy       167.2110988562 Hartrees.
 One-electron integrals computed using PRISM.
 NBasis=   102 RedAO= T  NBF=    77    25
 NBsUse=   102 1.00D-04 NBFU=    77    25
 Initial guess read from the read-write file:
 Initial guess orbital symmetries:
       Occupied  (A') (A') (A') (A') (A') (A') (A') (A') (A') (A')
                 (A') (A') (A") (A') (A') (A') (A") (A")
       Virtual   (A') (A') (A') (A") (A') (A") (A') (A') (A') (A')
                 (A') (A') (A") (A') (A") (A') (A") (A') (A') (A')
                 (A') (A') (A") (A') (A') (A') (A") (A') (A') (A')
                 (A') (A') (A') (A") (A') (A") (A') (A") (A') (A")
                 (A") (A') (A') (A') (A') (A') (A') (A") (A') (A')
                 (A') (A") (A") (A') (A") (A') (A') (A") (A') (A")
                 (A') (A") (A') (A') (A") (A') (A') (A') (A') (A')
                 (A') (A') (A") (A') (A") (A') (A') (A') (A') (A')
                 (A') (A') (A') (A')
 Requested convergence on RMS density matrix=1.00D-08 within  64 cycles.
 Requested convergence on MAX density matrix=1.00D-06.
 Keep R1 integrals in memory in canonical form, NReq=    17362054.
 SCF Done:  E(RHF) =  -224.855369200     A.U. after   13 cycles
             Convg  =     .5340D-08             -V/T =  1.9982
             S**2   =    .0000
 ***** Axes restored to original set *****
 -------------------------------------------------------------------
 Center     Atomic                   Forces (Hartrees/Bohr)
 Number     Number              X              Y              Z
 -------------------------------------------------------------------
    1          7            .033091995     .000000000     .009238459
    2          1            .003155099     .000000000    -.012465574
    3          6           -.024174398     .000000000     .030620832
    4          1           -.011205726     .000000000    -.014275912
    5          6           -.016604317     .000000000    -.022333834
    6          1           -.009925915     .000000000     .014877972
    7          1            .017549947     .000000000    -.004453790
    8          6           -.013689324     .000000000     .025826972
    9          7            .021802640     .000000000    -.027035125
 -------------------------------------------------------------------
 Cartesian Forces:  Max      .033091995 RMS      .015729287

 GradGradGradGradGradGradGradGradGradGradGradGradGradGradGradGradGradGrad
 Berny optimization.
 Internal  Forces:  Max      .036648787 RMS      .010358437
 Search for a local minimum.
 Step number   2 out of a maximum of  48
 All quantities printed in internal units (Hartrees-Bohrs-Radians)
 Update second derivatives using information from points  1  2
 Trust test= 1.67D+00 RLast= 3.00D-01 DXMaxT set to 4.24D-01
     Eigenvalues ---     .03209    .03262    .03288    .03313    .03351
     Eigenvalues ---     .03406    .15880    .16000    .16000    .16002
     Eigenvalues ---     .22148    .22884    .49303    .49597    .51088
     Eigenvalues ---     .55774    .61078    .63702    .69332    .74424
     Eigenvalues ---     .767231000.000001000.000001000.000001000.00000
     Eigenvalues --- 1000.000001000.000001000.000001000.000001000.00000
     Eigenvalues --- 1000.000001000.000001000.000001000.000001000.00000
     Eigenvalues --- 1000.000001000.000001000.00000
 RFO step:  Lambda=-2.46781758D-03.
 Quartic linear search produced a step of   .37577.
 Iteration  1 RMS(Cart)=   .02715959 RMS(Int)=   .00050783
 Iteration  2 RMS(Cart)=   .00059107 RMS(Int)=   .00007893
 Iteration  3 RMS(Cart)=   .00000039 RMS(Int)=   .00007892
 Variable       Old X    -DE/DX   Delta X   Delta X   Delta X     New X
                                 (Linear)    (Quad)   (Total)
    R1        2.51571    .03133    .03984    .01102    .05072   2.56643
    R2        2.45461   -.00195    .01238   -.02000   -.00769   2.44692
    R3        1.84964    .01286    .02923   -.00335    .02587   1.87552
    R4        1.98034    .01709    .04162    .00121    .04283   2.02317
    R5        2.56836    .00266    .02823   -.02414    .00408   2.57244
    R6        2.51020    .03665    .04521    .01668    .06202   2.57222
    R7        1.98330    .01743    .04112    .00313    .04425   2.02755
    R8        1.98045    .01793    .04159    .00359    .04518   2.02564
    R9        2.51290    .02045    .03661   -.00215    .03455   2.54745
    A1        1.85068    .00010   -.00270   -.01316   -.01612   1.83456
    A2        2.25696    .00695    .01765    .03224    .04983   2.30679
    A3        2.19274   -.00516   -.00499   -.04696   -.05202   2.14072
    A4        1.83349   -.00179   -.01266    .01472    .00219   1.83568
    A5        1.92025    .00210    .00941    .00068    .00997   1.93022
    A6        2.16110   -.00504   -.01153   -.02706   -.03853   2.12257
    A7        2.20184    .00294    .00212    .02639    .02856   2.23040
    A8        2.18407   -.00045    .00097    .00413    .00508   2.18916
    A9        1.92881    .00590    .00419    .02778    .03199   1.96080
   A10        2.17031   -.00545   -.00515   -.03191   -.03708   2.13323
   A11        2.19901    .00324   -.00084    .01567    .01472   2.21373
   A12        2.19262    .00307   -.00093    .01435    .01331   2.20593
   A13        1.89156   -.00630    .00177   -.03002   -.02803   1.86353
    D1         .00000    .00000    .00000    .00000    .00000    .00000
    D2        3.14159    .00000    .00000    .00000    .00000   3.14159
    D3        3.14159    .00000    .00000    .00000    .00000   3.14159
    D4         .00000    .00000    .00000    .00000    .00000    .00000
    D5        3.14159    .00000    .00000    .00000    .00000   3.14159
    D6         .00000    .00000    .00000    .00000    .00000    .00000
    D7         .00000    .00000    .00000    .00000    .00000    .00000
    D8        3.14159    .00000    .00000    .00000    .00000   3.14159
    D9         .00000    .00000    .00000    .00000    .00000    .00000
   D10        3.14159    .00000    .00000    .00000    .00000   3.14159
   D11        3.14159    .00000    .00000    .00000    .00000   3.14159
   D12         .00000    .00000    .00000    .00000    .00000    .00000
   D13        3.14159    .00000    .00000    .00000    .00000   3.14159
   D14         .00000    .00000    .00000    .00000    .00000    .00000
   D15         .00000    .00000    .00000    .00000    .00000    .00000
   D16        3.14159    .00000    .00000    .00000    .00000   3.14159
         Item               Value     Threshold  Converged?
 Maximum Force             .036649      .000450     NO 
 RMS     Force             .010358      .000300     NO 
 Maximum Displacement      .094276      .001800     NO 
 RMS     Displacement      .027123      .001200     NO 
 Predicted change in Energy=-5.280885D-03
 GradGradGradGradGradGradGradGradGradGradGradGradGradGradGradGradGradGrad

                          Input orientation:                          
 ---------------------------------------------------------------------
 Center     Atomic     Atomic              Coordinates (Angstroms)
 Number     Number      Type              X           Y           Z
 ---------------------------------------------------------------------
    1          7             0         .491351     .000000    1.119392
    2          1             0         .490383     .000000   -2.024989
    3          6             0       -1.008718     .000000    -.538266
    4          1             0       -1.889100     .000000   -1.147486
    5          6             0        -.831365     .000000     .811406
    6          1             0       -1.586348     .000000    1.573761
    7          1             0        2.167075     .000000    -.156085
    8          6             0        1.103629     .000000    -.021558
    9          7             0         .247346     .000000   -1.062726
 ---------------------------------------------------------------------
                    Distance matrix (angstroms):
                    1          2          3          4          5
     1  N     .000000
     2  H    3.144381    .000000
     3  C    2.235629   2.111315    .000000
     4  H    3.287138   2.536129   1.070617    .000000
     5  C    1.358098   3.129242   1.361275   2.226221    .000000
     6  H    2.126801   4.154974   2.189592   2.738036   1.072932
     7  H    2.105918   2.510796   3.198706   4.175575   3.150663
     8  C    1.294856   2.095186   2.174626   3.197521   2.106664
     9  N    2.195717    .992481   1.361159   2.138126   2.162403
                    6          7          8          9
     6  H     .000000
     7  H    4.132862    .000000
     8  C    3.127462   1.071921    .000000
     9  N    3.211463   2.123054   1.348055    .000000
 Stoichiometry    C3H4N2
 Framework group  CS[SG(C3H4N2)]
 Deg. of freedom   15
 Full point group                 CS      NOp   2
 Largest Abelian subgroup         CS      NOp   2
 Largest concise Abelian subgroup C1      NOp   1
                         Standard orientation:                         
 ---------------------------------------------------------------------
 Center     Atomic     Atomic              Coordinates (Angstroms)
 Number     Number      Type              X           Y           Z
 ---------------------------------------------------------------------
    1          7             0        -.733876    -.973804     .000000
    2          1             0        -.017828    2.087961     .000000
    3          6             0        1.103875     .299265     .000000
    4          1             0        2.099738     .692301     .000000
    5          6             0         .624222    -.974706     .000000
    6          1             0        1.186044   -1.888785     .000000
    7          1             0       -2.075616     .649349     .000000
    8          6             0       -1.070631     .276495     .000000
    9          7             0         .000000    1.095640     .000000
 ---------------------------------------------------------------------
 Rotational constants (GHZ):     10.0341934      9.5795128      4.9007915
 Isotopes: N-14,H-1,C-12,H-1,C-12,H-1,H-1,C-12,N-14
 Standard basis: 6-311G(d) (5D, 7F)
 There are    77 symmetry adapted basis functions of A'  symmetry.
 There are    25 symmetry adapted basis functions of A"  symmetry.
 Crude estimate of integral set expansion from redundant integrals=1.000.
 Integral buffers will be    262144 words long.
 Raffenetti 1 integral format.
 Two-electron integral symmetry is turned on.
   102 basis functions      180 primitive gaussians
    18 alpha electrons       18 beta electrons
       nuclear repulsion energy       165.1404843810 Hartrees.
 One-electron integrals computed using PRISM.
 NBasis=   102 RedAO= T  NBF=    77    25
 NBsUse=   102 1.00D-04 NBFU=    77    25
 Initial guess read from the read-write file:
 Initial guess orbital symmetries:
       Occupied  (A') (A') (A') (A') (A') (A') (A') (A') (A') (A')
                 (A') (A') (A") (A') (A') (A') (A") (A")
       Virtual   (A') (A') (A") (A') (A') (A") (A') (A') (A') (A')
                 (A') (A') (A') (A") (A') (A") (A') (A") (A') (A')
                 (A') (A') (A') (A") (A') (A') (A") (A') (A') (A')
                 (A') (A') (A') (A") (A') (A") (A") (A') (A') (A")
                 (A") (A') (A') (A') (A') (A') (A') (A") (A') (A')
                 (A') (A') (A") (A") (A") (A') (A') (A") (A') (A')
                 (A") (A') (A") (A') (A") (A') (A') (A') (A') (A')
                 (A') (A') (A') (A") (A") (A') (A') (A') (A') (A')
                 (A') (A') (A') (A')
 Requested convergence on RMS density matrix=1.00D-08 within  64 cycles.
 Requested convergence on MAX density matrix=1.00D-06.
 Keep R1 integrals in memory in canonical form, NReq=    17362054.
 SCF Done:  E(RHF) =  -224.859920636     A.U. after   13 cycles
             Convg  =     .2554D-08             -V/T =  1.9998
             S**2   =    .0000
 ***** Axes restored to original set *****
 -------------------------------------------------------------------
 Center     Atomic                   Forces (Hartrees/Bohr)
 Number     Number              X              Y              Z
 -------------------------------------------------------------------
    1          7            .010263633     .000000000    -.007398987
    2          1           -.000655566     .000000000     .002673475
    3          6           -.008858410     .000000000     .010726330
    4          1            .001415311     .000000000     .001013238
    5          6           -.012410170     .000000000    -.008568195
    6          1            .001480416     .000000000    -.001519919
    7          1           -.000869316     .000000000     .000090281
    8          6            .002189927     .000000000     .005825748
    9          7            .007444175     .000000000    -.002841972
 -------------------------------------------------------------------
 Cartesian Forces:  Max      .012410170 RMS      .005088620

 GradGradGradGradGradGradGradGradGradGradGradGradGradGradGradGradGradGrad
 Berny optimization.
 Internal  Forces:  Max      .009925429 RMS      .003080625
 Search for a local minimum.
 Step number   3 out of a maximum of  48
 All quantities printed in internal units (Hartrees-Bohrs-Radians)
 Update second derivatives using information from points  1  2  3
 Trust test= 8.62D-01 RLast= 1.60D-01 DXMaxT set to 4.80D-01
     Eigenvalues ---     .03205    .03261    .03287    .03304    .03349
     Eigenvalues ---     .03405    .15306    .16000    .16000    .16003
     Eigenvalues ---     .22540    .24000    .42966    .49333    .49629
     Eigenvalues ---     .56067    .57845    .62624    .65271    .74655
     Eigenvalues ---     .801871000.000001000.000001000.000001000.00000
     Eigenvalues --- 1000.000001000.000001000.000001000.000001000.00000
     Eigenvalues --- 1000.000001000.000001000.000001000.000001000.00000
     Eigenvalues --- 1000.000001000.000001000.00000
 RFO step:  Lambda=-6.38339541D-04.
 Quartic linear search produced a step of   .06125.
 Iteration  1 RMS(Cart)=   .00657738 RMS(Int)=   .00001602
 Iteration  2 RMS(Cart)=   .00001459 RMS(Int)=   .00000326
 Iteration  3 RMS(Cart)=   .00000000 RMS(Int)=   .00000326
 Variable       Old X    -DE/DX   Delta X   Delta X   Delta X     New X
                                 (Linear)    (Quad)   (Total)
    R1        2.56643    .00946    .00311    .01463    .01774   2.58417
    R2        2.44692   -.00702   -.00047   -.01014   -.01061   2.43631
    R3        1.87552   -.00275    .00158   -.00370   -.00211   1.87340
    R4        2.02317   -.00174    .00262   -.00205    .00057   2.02374
    R5        2.57244   -.00993    .00025   -.01557   -.01532   2.55712
    R6        2.57222    .00878    .00380    .01381    .01761   2.58982
    R7        2.02755   -.00212    .00271   -.00291   -.00020   2.02735
    R8        2.02564   -.00087    .00277   -.00021    .00256   2.02820
    R9        2.54745   -.00011    .00212    .00112    .00323   2.55069
    A1        1.83456    .00336   -.00099    .01237    .01139   1.84594
    A2        2.30679    .00054    .00305    .00270    .00575   2.31254
    A3        2.14072    .00059   -.00319    .00108   -.00211   2.13861
    A4        1.83568   -.00113    .00013   -.00378   -.00365   1.83203
    A5        1.93022   -.00109    .00061   -.00414   -.00352   1.92670
    A6        2.12257    .00056   -.00236    .00156   -.00080   2.12177
    A7        2.23040    .00053    .00175    .00257    .00432   2.23472
    A8        2.18916    .00140    .00031    .00721    .00752   2.19668
    A9        1.96080   -.00277    .00196   -.01350   -.01155   1.94925
   A10        2.13323    .00137   -.00227    .00629    .00403   2.13726
   A11        2.21373   -.00080    .00090   -.00440   -.00349   2.21023
   A12        2.20593   -.00083    .00082   -.00465   -.00383   2.20210
   A13        1.86353    .00163   -.00172    .00905    .00733   1.87085
    D1         .00000    .00000    .00000    .00000    .00000    .00000
    D2        3.14159    .00000    .00000    .00000    .00000   3.14159
    D3        3.14159    .00000    .00000    .00000    .00000   3.14159
    D4         .00000    .00000    .00000    .00000    .00000    .00000
    D5        3.14159    .00000    .00000    .00000    .00000   3.14159
    D6         .00000    .00000    .00000    .00000    .00000    .00000
    D7         .00000    .00000    .00000    .00000    .00000    .00000
    D8        3.14159    .00000    .00000    .00000    .00000   3.14159
    D9         .00000    .00000    .00000    .00000    .00000    .00000
   D10        3.14159    .00000    .00000    .00000    .00000   3.14159
   D11        3.14159    .00000    .00000    .00000    .00000   3.14159
   D12         .00000    .00000    .00000    .00000    .00000    .00000
   D13        3.14159    .00000    .00000    .00000    .00000   3.14159
   D14         .00000    .00000    .00000    .00000    .00000    .00000
   D15         .00000    .00000    .00000    .00000    .00000    .00000
   D16        3.14159    .00000    .00000    .00000    .00000   3.14159
         Item               Value     Threshold  Converged?
 Maximum Force             .009925      .000450     NO 
 RMS     Force             .003081      .000300     NO 
 Maximum Displacement      .017765      .001800     NO 
 RMS     Displacement      .006576      .001200     NO 
 Predicted change in Energy=-3.343422D-04
 GradGradGradGradGradGradGradGradGradGradGradGradGradGradGradGradGradGrad

                          Input orientation:                          
 ---------------------------------------------------------------------
 Center     Atomic     Atomic              Coordinates (Angstroms)
 Number     Number      Type              X           Y           Z
 ---------------------------------------------------------------------
    1          7             0         .496473     .000000    1.106877
    2          1             0         .492899     .000000   -2.024761
    3          6             0       -1.014774     .000000    -.538342
    4          1             0       -1.892633     .000000   -1.151719
    5          6             0        -.836840     .000000     .803077
    6          1             0       -1.587513     .000000    1.569526
    7          1             0        2.178305     .000000    -.160676
    8          6             0        1.113634     .000000    -.025048
    9          7             0         .251164     .000000   -1.063323
 ---------------------------------------------------------------------
                    Distance matrix (angstroms):
                    1          2          3          4          5
     1  N     .000000
     2  H    3.131640    .000000
     3  C    2.233967   2.117197    .000000
     4  H    3.287716   2.540269   1.070919    .000000
     5  C    1.367486   3.124880   1.353168   2.221694    .000000
     6  H    2.134723   4.152953   2.184293   2.738297   1.072826
     7  H    2.106003   2.513047   3.215336   4.189833   3.165426
     8  C    1.289241   2.093840   2.189427   3.210456   2.118995
     9  N    2.184020    .991363   1.370476   2.145618   2.160370
                    6          7          8          9
     6  H     .000000
     7  H    4.144272    .000000
     8  C    3.136696   1.073275    .000000
     9  N    3.211328   2.128061   1.349766    .000000
 Stoichiometry    C3H4N2
 Framework group  CS[SG(C3H4N2)]
 Deg. of freedom   15
 Full point group                 CS      NOp   2
 Largest Abelian subgroup         CS      NOp   2
 Largest concise Abelian subgroup C1      NOp   1
                         Standard orientation:                         
 ---------------------------------------------------------------------
 Center     Atomic     Atomic              Coordinates (Angstroms)
 Number     Number      Type              X           Y           Z
 ---------------------------------------------------------------------
    1          7             0        -.738094    -.963580     .000000
    2          1             0        -.014020    2.083203     .000000
    3          6             0        1.111169     .289750     .000000
    4          1             0        2.106611     .684671     .000000
    5          6             0         .629347    -.974730     .000000
    6          1             0        1.183515   -1.893345     .000000
    7          1             0       -2.083130     .656953     .000000
    8          6             0       -1.078236     .279981     .000000
    9          7             0         .000000    1.091939     .000000
 ---------------------------------------------------------------------
 Rotational constants (GHZ):      9.9106385      9.6631099      4.8926545
 Isotopes: N-14,H-1,C-12,H-1,C-12,H-1,H-1,C-12,N-14
 Standard basis: 6-311G(d) (5D, 7F)
 There are    77 symmetry adapted basis functions of A'  symmetry.
 There are    25 symmetry adapted basis functions of A"  symmetry.
 Crude estimate of integral set expansion from redundant integrals=1.000.
 Integral buffers will be    262144 words long.
 Raffenetti 1 integral format.
 Two-electron integral symmetry is turned on.
   102 basis functions      180 primitive gaussians
    18 alpha electrons       18 beta electrons
       nuclear repulsion energy       164.9977306256 Hartrees.
 One-electron integrals computed using PRISM.
 NBasis=   102 RedAO= T  NBF=    77    25
 NBsUse=   102 1.00D-04 NBFU=    77    25
 Initial guess read from the read-write file:
 Initial guess orbital symmetries:
       Occupied  (A') (A') (A') (A') (A') (A') (A') (A') (A') (A')
                 (A') (A') (A') (A") (A') (A') (A") (A")
       Virtual   (A') (A") (A') (A') (A') (A") (A') (A') (A') (A')
                 (A') (A') (A') (A") (A') (A") (A') (A") (A') (A')
                 (A') (A') (A') (A") (A') (A') (A") (A') (A') (A')
                 (A') (A') (A') (A") (A') (A") (A") (A') (A') (A")
                 (A") (A') (A') (A') (A') (A') (A') (A") (A') (A')
                 (A') (A") (A') (A") (A") (A') (A') (A') (A") (A')
                 (A") (A') (A") (A') (A") (A') (A') (A') (A') (A')
                 (A') (A') (A') (A") (A") (A') (A') (A') (A') (A')
                 (A') (A') (A') (A')
 Requested convergence on RMS density matrix=1.00D-08 within  64 cycles.
 Requested convergence on MAX density matrix=1.00D-06.
 Keep R1 integrals in memory in canonical form, NReq=    17362054.
 SCF Done:  E(RHF) =  -224.860231302     A.U. after   10 cycles
             Convg  =     .8432D-08             -V/T =  1.9998
             S**2   =    .0000
 ***** Axes restored to original set *****
 -------------------------------------------------------------------
 Center     Atomic                   Forces (Hartrees/Bohr)
 Number     Number              X              Y              Z
 -------------------------------------------------------------------
    1          7            .004418411     .000000000     .001457168
    2          1           -.000761978     .000000000     .001320937
    3          6           -.000271463     .000000000     .002690948
    4          1            .001743967     .000000000     .001110363
    5          6           -.003655897     .000000000    -.002192686
    6          1            .001868637     .000000000    -.001359718
    7          1           -.001988209     .000000000     .000318364
    8          6           -.004431557     .000000000     .001549437
    9          7            .003078089     .000000000    -.004894813
 -------------------------------------------------------------------
 Cartesian Forces:  Max      .004894813 RMS      .002095870

 GradGradGradGradGradGradGradGradGradGradGradGradGradGradGradGradGradGrad
 Berny optimization.
 Internal  Forces:  Max      .003148722 RMS      .001228815
 Search for a local minimum.
 Step number   4 out of a maximum of  48
 All quantities printed in internal units (Hartrees-Bohrs-Radians)
 Update second derivatives using information from points  1  2  3  4
 Trust test= 9.29D-01 RLast= 3.86D-02 DXMaxT set to 4.80D-01
     Eigenvalues ---     .03204    .03262    .03287    .03304    .03349
     Eigenvalues ---     .03405    .14794    .16000    .16001    .16039
     Eigenvalues ---     .22550    .26551    .48958    .49581    .50543
     Eigenvalues ---     .52856    .56269    .61245    .64306    .74411
     Eigenvalues ---     .762031000.000001000.000001000.000001000.00000
     Eigenvalues --- 1000.000001000.000001000.000001000.000001000.00000
     Eigenvalues --- 1000.000001000.000001000.000001000.000001000.00000
     Eigenvalues --- 1000.000001000.000001000.00000
 RFO step:  Lambda=-1.52095478D-04.
 Quartic linear search produced a step of  -.06290.
 Iteration  1 RMS(Cart)=   .00308698 RMS(Int)=   .00000859
 Iteration  2 RMS(Cart)=   .00000854 RMS(Int)=   .00000501
 Iteration  3 RMS(Cart)=   .00000000 RMS(Int)=   .00000501
 Variable       Old X    -DE/DX   Delta X   Delta X   Delta X     New X
                                 (Linear)    (Quad)   (Total)
    R1        2.58417    .00134   -.00112    .00742    .00629   2.59047
    R2        2.43631   -.00175    .00067   -.00490   -.00423   2.43208
    R3        1.87340   -.00147    .00013   -.00219   -.00206   1.87135
    R4        2.02374   -.00207   -.00004   -.00273   -.00277   2.02097
    R5        2.55712   -.00204    .00096   -.00645   -.00550   2.55162
    R6        2.58982    .00006   -.00111    .00584    .00474   2.59456
    R7        2.02735   -.00228    .00001   -.00342   -.00341   2.02394
    R8        2.02820   -.00201   -.00016   -.00210   -.00226   2.02594
    R9        2.55069   -.00060   -.00020    .00087    .00067   2.55136
    A1        1.84594   -.00233   -.00072   -.00610   -.00682   1.83912
    A2        2.31254   -.00049   -.00036    .00004   -.00032   2.31222
    A3        2.13861   -.00067    .00013   -.00347   -.00333   2.13529
    A4        1.83203    .00115    .00023    .00342    .00365   1.83568
    A5        1.92670    .00048    .00022    .00149    .00170   1.92840
    A6        2.12177   -.00063    .00005   -.00378   -.00372   2.11804
    A7        2.23472    .00015   -.00027    .00229    .00203   2.23674
    A8        2.19668   -.00164   -.00047   -.00461   -.00509   2.19159
    A9        1.94925    .00315    .00073    .00933    .01007   1.95932
   A10        2.13726   -.00151   -.00025   -.00472   -.00498   2.13228
   A11        2.21023    .00084    .00022    .00182    .00204   2.21227
   A12        2.20210    .00162    .00024    .00631    .00655   2.20865
   A13        1.87085   -.00246   -.00046   -.00814   -.00859   1.86226
    D1         .00000    .00000    .00000    .00000    .00000    .00000
    D2        3.14159    .00000    .00000    .00000    .00000   3.14159
    D3        3.14159    .00000    .00000    .00000    .00000   3.14159
    D4         .00000    .00000    .00000    .00000    .00000    .00000
    D5        3.14159    .00000    .00000    .00000    .00000   3.14159
    D6         .00000    .00000    .00000    .00000    .00000    .00000
    D7         .00000    .00000    .00000    .00000    .00000    .00000
    D8        3.14159    .00000    .00000    .00000    .00000   3.14159
    D9         .00000    .00000    .00000    .00000    .00000    .00000
   D10        3.14159    .00000    .00000    .00000    .00000   3.14159
   D11        3.14159    .00000    .00000    .00000    .00000   3.14159
   D12         .00000    .00000    .00000    .00000    .00000    .00000
   D13        3.14159    .00000    .00000    .00000    .00000   3.14159
   D14         .00000    .00000    .00000    .00000    .00000    .00000
   D15         .00000    .00000    .00000    .00000    .00000    .00000
   D16        3.14159    .00000    .00000    .00000    .00000   3.14159
         Item               Value     Threshold  Converged?
 Maximum Force             .003149      .000450     NO 
 RMS     Force             .001229      .000300     NO 
 Maximum Displacement      .009572      .001800     NO 
 RMS     Displacement      .003088      .001200     NO 
 Predicted change in Energy=-7.741192D-05
 GradGradGradGradGradGradGradGradGradGradGradGradGradGradGradGradGradGrad

                          Input orientation:                          
 ---------------------------------------------------------------------
 Center     Atomic     Atomic              Coordinates (Angstroms)
 Number     Number      Type              X           Y           Z
 ---------------------------------------------------------------------
    1          7             0         .498987     .000000    1.109815
    2          1             0         .493070     .000000   -2.026861
    3          6             0       -1.013861     .000000    -.536210
    4          1             0       -1.890435     .000000   -1.148867
    5          6             0        -.836915     .000000     .802404
    6          1             0       -1.585121     .000000    1.568743
    7          1             0        2.173333     .000000    -.158044
    8          6             0        1.109790     .000000    -.023011
    9          7             0         .252708     .000000   -1.066199
 ---------------------------------------------------------------------
                    Distance matrix (angstroms):
                    1          2          3          4          5
     1  N     .000000
     2  H    3.136682    .000000
     3  C    2.235645   2.119641    .000000
     4  H    3.288006   2.540072   1.069454    .000000
     5  C    1.370816   3.126276   1.350258   2.217513    .000000
     6  H    2.134038   4.152980   2.181093   2.734707   1.071021
     7  H    2.100215   2.513118   3.209550   4.182815   3.159756
     8  C    1.287003   2.096607   2.184780   3.204513   2.114467
     9  N    2.189907    .990275   1.372984   2.144737   2.163089
                    6          7          8          9
     6  H     .000000
     7  H    4.136154    .000000
     8  C    3.129892   1.072081    .000000
     9  N    3.212559   2.124511   1.350123    .000000
 Stoichiometry    C3H4N2
 Framework group  CS[SG(C3H4N2)]
 Deg. of freedom   15
 Full point group                 CS      NOp   2
 Largest Abelian subgroup         CS      NOp   2
 Largest concise Abelian subgroup C1      NOp   1
                         Standard orientation:                         
 ---------------------------------------------------------------------
 Center     Atomic     Atomic              Coordinates (Angstroms)
 Number     Number      Type              X           Y           Z
 ---------------------------------------------------------------------
    1          7             0        -.741152    -.964999     .000000
    2          1             0        -.012489    2.085874     .000000
    3          6             0        1.110327     .288052     .000000
    4          1             0        2.104502     .682194     .000000
    5          6             0         .629636    -.973746     .000000
    6          1             0        1.181083   -1.891892     .000000
    7          1             0       -2.078223     .654614     .000000
    8          6             0       -1.074431     .278103     .000000
    9          7             0         .000000    1.095678     .000000
 ---------------------------------------------------------------------
 Rotational constants (GHZ):      9.9316798      9.6402077      4.8918867
 Isotopes: N-14,H-1,C-12,H-1,C-12,H-1,H-1,C-12,N-14
 Standard basis: 6-311G(d) (5D, 7F)
 There are    77 symmetry adapted basis functions of A'  symmetry.
 There are    25 symmetry adapted basis functions of A"  symmetry.
 Crude estimate of integral set expansion from redundant integrals=1.000.
 Integral buffers will be    262144 words long.
 Raffenetti 1 integral format.
 Two-electron integral symmetry is turned on.
   102 basis functions      180 primitive gaussians
    18 alpha electrons       18 beta electrons
       nuclear repulsion energy       165.0020393432 Hartrees.
 One-electron integrals computed using PRISM.
 NBasis=   102 RedAO= T  NBF=    77    25
 NBsUse=   102 1.00D-04 NBFU=    77    25
 Initial guess read from the read-write file:
 Initial guess orbital symmetries:
       Occupied  (A') (A') (A') (A') (A') (A') (A') (A') (A') (A')
                 (A') (A') (A') (A") (A') (A') (A") (A")
       Virtual   (A') (A') (A") (A') (A') (A") (A') (A') (A') (A')
                 (A') (A') (A') (A") (A') (A") (A') (A") (A') (A')
                 (A') (A') (A') (A") (A') (A') (A") (A') (A') (A')
                 (A') (A') (A') (A") (A') (A") (A") (A') (A') (A")
                 (A") (A') (A') (A') (A') (A') (A') (A") (A') (A')
                 (A') (A") (A') (A") (A") (A') (A') (A') (A") (A')
                 (A") (A') (A") (A') (A") (A') (A') (A') (A') (A')
                 (A') (A') (A') (A") (A") (A') (A') (A') (A') (A')
                 (A') (A') (A') (A')
 Requested convergence on RMS density matrix=1.00D-08 within  64 cycles.
 Requested convergence on MAX density matrix=1.00D-06.
 Keep R1 integrals in memory in canonical form, NReq=    17362054.
 SCF Done:  E(RHF) =  -224.860313692     A.U. after   11 cycles
             Convg  =     .3787D-08             -V/T =  1.9998
             S**2   =    .0000
 ***** Axes restored to original set *****
 -------------------------------------------------------------------
 Center     Atomic                   Forces (Hartrees/Bohr)
 Number     Number              X              Y              Z
 -------------------------------------------------------------------
    1          7            .000456445     .000000000    -.000110406
    2          1           -.000149179     .000000000     .000545244
    3          6            .000423585     .000000000    -.000413775
    4          1            .000586387     .000000000     .000658557
    5          6           -.001508363     .000000000     .000259321
    6          1            .000626515     .000000000    -.000633594
    7          1           -.000784866     .000000000     .000130994
    8          6            .000228906     .000000000    -.000792394
    9          7            .000120569     .000000000     .000356053
 -------------------------------------------------------------------
 Cartesian Forces:  Max      .001508363 RMS      .000481487

 GradGradGradGradGradGradGradGradGradGradGradGradGradGradGradGradGradGrad
 Berny optimization.
 Internal  Forces:  Max      .000891028 RMS      .000335283
 Search for a local minimum.
 Step number   5 out of a maximum of  48
 All quantities printed in internal units (Hartrees-Bohrs-Radians)
 Update second derivatives using information from points  1  2  3  4  5

 Trust test= 1.06D+00 RLast= 2.24D-02 DXMaxT set to 4.80D-01
     Eigenvalues ---     .03204    .03262    .03287    .03304    .03349
     Eigenvalues ---     .03405    .15251    .15909    .16003    .16038
     Eigenvalues ---     .22037    .29009    .45924    .49258    .49581
     Eigenvalues ---     .50748    .56053    .60278    .64394    .72307
     Eigenvalues ---     .750631000.000001000.000001000.000001000.00000
     Eigenvalues --- 1000.000001000.000001000.000001000.000001000.00000
     Eigenvalues --- 1000.000001000.000001000.000001000.000001000.00000
     Eigenvalues --- 1000.000001000.000001000.00000
 RFO step:  Lambda=-8.63823539D-06.
 Quartic linear search produced a step of   .06754.
 Iteration  1 RMS(Cart)=   .00086250 RMS(Int)=   .00000047
 Iteration  2 RMS(Cart)=   .00000039 RMS(Int)=   .00000027
 Variable       Old X    -DE/DX   Delta X   Delta X   Delta X     New X
                                 (Linear)    (Quad)   (Total)
    R1        2.59047    .00034    .00043    .00030    .00073   2.59119
    R2        2.43208   -.00007   -.00029    .00022   -.00007   2.43201
    R3        1.87135   -.00057   -.00014   -.00090   -.00104   1.87031
    R4        2.02097   -.00086   -.00019   -.00174   -.00192   2.01905
    R5        2.55162   -.00052   -.00037   -.00051   -.00088   2.55074
    R6        2.59456   -.00054    .00032   -.00115   -.00083   2.59374
    R7        2.02394   -.00089   -.00023   -.00181   -.00204   2.02190
    R8        2.02594   -.00080   -.00015   -.00164   -.00179   2.02415
    R9        2.55136   -.00083    .00005   -.00132   -.00128   2.55008
    A1        1.83912   -.00009   -.00046    .00059    .00013   1.83925
    A2        2.31222   -.00034   -.00002   -.00199   -.00201   2.31021
    A3        2.13529    .00007   -.00022    .00119    .00097   2.13625
    A4        1.83568    .00027    .00025    .00080    .00105   1.83673
    A5        1.92840   -.00035    .00011   -.00123   -.00111   1.92728
    A6        2.11804    .00017   -.00025    .00080    .00055   2.11860
    A7        2.23674    .00018    .00014    .00042    .00056   2.23730
    A8        2.19159   -.00004   -.00034   -.00001   -.00036   2.19123
    A9        1.95932    .00002    .00068   -.00057    .00011   1.95943
   A10        2.13228    .00002   -.00034    .00058    .00025   2.13253
   A11        2.21227   -.00008    .00014   -.00021   -.00007   2.21220
   A12        2.20865   -.00006    .00044   -.00020    .00024   2.20889
   A13        1.86226    .00014   -.00058    .00041   -.00017   1.86209
    D1         .00000    .00000    .00000    .00000    .00000    .00000
    D2        3.14159    .00000    .00000    .00000    .00000   3.14159
    D3        3.14159    .00000    .00000    .00000    .00000   3.14159
    D4         .00000    .00000    .00000    .00000    .00000    .00000
    D5        3.14159    .00000    .00000    .00000    .00000   3.14159
    D6         .00000    .00000    .00000    .00000    .00000    .00000
    D7         .00000    .00000    .00000    .00000    .00000    .00000
    D8        3.14159    .00000    .00000    .00000    .00000   3.14159
    D9         .00000    .00000    .00000    .00000    .00000    .00000
   D10        3.14159    .00000    .00000    .00000    .00000   3.14159
   D11        3.14159    .00000    .00000    .00000    .00000   3.14159
   D12         .00000    .00000    .00000    .00000    .00000    .00000
   D13        3.14159    .00000    .00000    .00000    .00000   3.14159
   D14         .00000    .00000    .00000    .00000    .00000    .00000
   D15         .00000    .00000    .00000    .00000    .00000    .00000
   D16        3.14159    .00000    .00000    .00000    .00000   3.14159
         Item               Value     Threshold  Converged?
 Maximum Force             .000891      .000450     NO 
 RMS     Force             .000335      .000300     NO 
 Maximum Displacement      .003165      .001800     NO 
 RMS     Displacement      .000863      .001200     YES
 Predicted change in Energy=-4.649893D-06
 GradGradGradGradGradGradGradGradGradGradGradGradGradGradGradGradGradGrad

                          Input orientation:                          
 ---------------------------------------------------------------------
 Center     Atomic     Atomic              Coordinates (Angstroms)
 Number     Number      Type              X           Y           Z
 ---------------------------------------------------------------------
    1          7             0         .498749     .000000    1.109406
    2          1             0         .492779     .000000   -2.026306
    3          6             0       -1.013301     .000000    -.536092
    4          1             0       -1.889733     .000000   -1.147175
    5          6             0        -.837598     .000000     .802216
    6          1             0       -1.585296     .000000    1.567541
    7          1             0        2.172059     .000000    -.158093
    8          6             0        1.109421     .000000    -.023450
    9          7             0         .252776     .000000   -1.066122
 ---------------------------------------------------------------------
                    Distance matrix (angstroms):
                    1          2          3          4          5
     1  N     .000000
     2  H    3.135718    .000000
     3  C    2.234717   2.118729    .000000
     4  H    3.285880   2.539535   1.068436    .000000
     5  C    1.371200   3.125770   1.349792   2.215200    .000000
     6  H    2.133807   4.151401   2.180012   2.731733   1.069941
     7  H    2.099171   2.512011   3.207710   4.180483   3.159150
     8  C    1.286966   2.095633   2.183747   3.202762   2.114854
     9  N    2.189389    .989725   1.372546   2.144042   2.163239
                    6          7          8          9
     6  H     .000000
     7  H    4.134674    .000000
     8  C    3.129337   1.071134    .000000
     9  N    3.211649   2.123243   1.349446    .000000
 Stoichiometry    C3H4N2
 Framework group  CS[SG(C3H4N2)]
 Deg. of freedom   15
 Full point group                 CS      NOp   2
 Largest Abelian subgroup         CS      NOp   2
 Largest concise Abelian subgroup C1      NOp   1
                         Standard orientation:                         
 ---------------------------------------------------------------------
 Center     Atomic     Atomic              Coordinates (Angstroms)
 Number     Number      Type              X           Y           Z
 ---------------------------------------------------------------------
    1          7             0        -.741216    -.964569     .000000
    2          1             0        -.012022    2.085185     .000000
    3          6             0        1.109653     .287726     .000000
    4          1             0        2.103417     .680139     .000000
    5          6             0         .629952    -.973950     .000000
    6          1             0        1.180927   -1.891121     .000000
    7          1             0       -2.076989     .654761     .000000
    8          6             0       -1.074075     .278607     .000000
    9          7             0         .000000    1.095533     .000000
 ---------------------------------------------------------------------
 Rotational constants (GHZ):      9.9331353      9.6479863      4.8942423
 Isotopes: N-14,H-1,C-12,H-1,C-12,H-1,H-1,C-12,N-14
 Standard basis: 6-311G(d) (5D, 7F)
 There are    77 symmetry adapted basis functions of A'  symmetry.
 There are    25 symmetry adapted basis functions of A"  symmetry.
 Crude estimate of integral set expansion from redundant integrals=1.000.
 Integral buffers will be    262144 words long.
 Raffenetti 1 integral format.
 Two-electron integral symmetry is turned on.
   102 basis functions      180 primitive gaussians
    18 alpha electrons       18 beta electrons
       nuclear repulsion energy       165.0452996891 Hartrees.
 One-electron integrals computed using PRISM.
 NBasis=   102 RedAO= T  NBF=    77    25
 NBsUse=   102 1.00D-04 NBFU=    77    25
 Initial guess read from the read-write file:
 Initial guess orbital symmetries:
       Occupied  (A') (A') (A') (A') (A') (A') (A') (A') (A') (A')
                 (A') (A') (A') (A") (A') (A') (A") (A")
       Virtual   (A') (A') (A") (A') (A') (A") (A') (A') (A') (A')
                 (A') (A') (A') (A") (A') (A") (A') (A") (A') (A')
                 (A') (A') (A') (A") (A') (A') (A") (A') (A') (A')
                 (A') (A') (A') (A") (A') (A") (A") (A') (A') (A")
                 (A") (A') (A') (A') (A') (A') (A') (A") (A') (A')
                 (A') (A") (A') (A") (A") (A') (A') (A') (A") (A')
                 (A") (A') (A") (A') (A") (A') (A') (A') (A') (A')
                 (A') (A') (A') (A") (A") (A') (A') (A') (A') (A')
                 (A') (A') (A') (A')
 Requested convergence on RMS density matrix=1.00D-08 within  64 cycles.
 Requested convergence on MAX density matrix=1.00D-06.
 Keep R1 integrals in memory in canonical form, NReq=    17362054.
 SCF Done:  E(RHF) =  -224.860318699     A.U. after    8 cycles
             Convg  =     .8734D-08             -V/T =  1.9997
             S**2   =    .0000
 ***** Axes restored to original set *****
 -------------------------------------------------------------------
 Center     Atomic                   Forces (Hartrees/Bohr)
 Number     Number              X              Y              Z
 -------------------------------------------------------------------
    1          7            .000273623     .000000000     .000154547
    2          1           -.000009051     .000000000    -.000006311
    3          6            .000165906     .000000000    -.000285685
    4          1            .000009835     .000000000     .000044343
    5          6           -.000240909     .000000000    -.000079880
    6          1            .000077016     .000000000    -.000035212
    7          1           -.000053641     .000000000     .000026737
    8          6           -.000019972     .000000000    -.000154119
    9          7           -.000202806     .000000000     .000335580
 -------------------------------------------------------------------
 Cartesian Forces:  Max      .000335580 RMS      .000130973

 GradGradGradGradGradGradGradGradGradGradGradGradGradGradGradGradGradGrad
 Berny optimization.
 Internal  Forces:  Max      .000273134 RMS      .000072843
 Search for a local minimum.
 Step number   6 out of a maximum of  48
 All quantities printed in internal units (Hartrees-Bohrs-Radians)
 Update second derivatives using information from points  1  2  3  4  5
                                                        6
 Trust test= 1.08D+00 RLast= 4.90D-03 DXMaxT set to 4.80D-01
     Eigenvalues ---     .03204    .03262    .03287    .03304    .03349
     Eigenvalues ---     .03405    .15088    .15554    .16006    .16049
     Eigenvalues ---     .24049    .28683    .41762    .49255    .49632
     Eigenvalues ---     .50793    .56482    .59291    .62951    .74340
     Eigenvalues ---     .765861000.000001000.000001000.000001000.00000
     Eigenvalues --- 1000.000001000.000001000.000001000.000001000.00000
     Eigenvalues --- 1000.000001000.000001000.000001000.000001000.00000
     Eigenvalues --- 1000.000001000.000001000.00000
 RFO step:  Lambda=-4.31588831D-07.
 Quartic linear search produced a step of   .08214.
 Iteration  1 RMS(Cart)=   .00019998 RMS(Int)=   .00000003
 Iteration  2 RMS(Cart)=   .00000003 RMS(Int)=   .00000001
 Variable       Old X    -DE/DX   Delta X   Delta X   Delta X     New X
                                 (Linear)    (Quad)   (Total)
    R1        2.59119    .00021    .00006    .00030    .00036   2.59155
    R2        2.43201   -.00002   -.00001   -.00002   -.00002   2.43199
    R3        1.87031    .00000   -.00009    .00003   -.00006   1.87025
    R4        2.01905   -.00003   -.00016   -.00003   -.00019   2.01887
    R5        2.55074    .00002   -.00007    .00007    .00000   2.55074
    R6        2.59374   -.00027   -.00007   -.00042   -.00049   2.59325
    R7        2.02190   -.00008   -.00017   -.00012   -.00029   2.02160
    R8        2.02415   -.00006   -.00015   -.00008   -.00023   2.02392
    R9        2.55008   -.00007   -.00011   -.00012   -.00023   2.54986
    A1        1.83925   -.00015    .00001   -.00042   -.00041   1.83884
    A2        2.31021    .00000   -.00017    .00004   -.00013   2.31008
    A3        2.13625    .00006    .00008    .00036    .00044   2.13669
    A4        1.83673   -.00005    .00009   -.00039   -.00031   1.83642
    A5        1.92728    .00003   -.00009    .00036    .00026   1.92755
    A6        2.11860   -.00005    .00005   -.00038   -.00033   2.11826
    A7        2.23730    .00002    .00005    .00002    .00007   2.23737
    A8        2.19123   -.00003   -.00003   -.00015   -.00018   2.19105
    A9        1.95943    .00003    .00001    .00005    .00006   1.95948
   A10        2.13253    .00001    .00002    .00010    .00012   2.13265
   A11        2.21220   -.00008   -.00001   -.00027   -.00027   2.21193
   A12        2.20889   -.00006    .00002   -.00014   -.00012   2.20877
   A13        1.86209    .00014   -.00001    .00041    .00039   1.86248
    D1         .00000    .00000    .00000    .00000    .00000    .00000
    D2        3.14159    .00000    .00000    .00000    .00000   3.14159
    D3        3.14159    .00000    .00000    .00000    .00000   3.14159
    D4         .00000    .00000    .00000    .00000    .00000    .00000
    D5        3.14159    .00000    .00000    .00000    .00000   3.14159
    D6         .00000    .00000    .00000    .00000    .00000    .00000
    D7         .00000    .00000    .00000    .00000    .00000    .00000
    D8        3.14159    .00000    .00000    .00000    .00000   3.14159
    D9         .00000    .00000    .00000    .00000    .00000    .00000
   D10        3.14159    .00000    .00000    .00000    .00000   3.14159
   D11        3.14159    .00000    .00000    .00000    .00000   3.14159
   D12         .00000    .00000    .00000    .00000    .00000    .00000
   D13        3.14159    .00000    .00000    .00000    .00000   3.14159
   D14         .00000    .00000    .00000    .00000    .00000    .00000
   D15         .00000    .00000    .00000    .00000    .00000    .00000
   D16        3.14159    .00000    .00000    .00000    .00000   3.14159
         Item               Value     Threshold  Converged?
 Maximum Force             .000273      .000450     YES
 RMS     Force             .000073      .000300     YES
 Maximum Displacement      .000474      .001800     YES
 RMS     Displacement      .000200      .001200     YES
 Predicted change in Energy=-2.447783D-07
 Optimization completed.
    -- Stationary point found.
                         ----------------------------
                         !   Optimized Parameters   !
                         ! (Angstroms and Degrees)  !
 ------------------------                            -------------------------
 ! Name  Definition              Value          Derivative Info.             !
 -----------------------------------------------------------------------------
 ! R1    R(1,5)                  1.3712         -DE/DX =    0.0002           !
 ! R2    R(1,8)                  1.287          -DE/DX =    0.               !
 ! R3    R(2,9)                  0.9897         -DE/DX =    0.               !
 ! R4    R(3,4)                  1.0684         -DE/DX =    0.               !
 ! R5    R(3,5)                  1.3498         -DE/DX =    0.               !
 ! R6    R(3,9)                  1.3725         -DE/DX =   -0.0003           !
 ! R7    R(5,6)                  1.0699         -DE/DX =   -0.0001           !
 ! R8    R(7,8)                  1.0711         -DE/DX =   -0.0001           !
 ! R9    R(8,9)                  1.3494         -DE/DX =   -0.0001           !
 ! A1    A(5,1,8)              105.3812         -DE/DX =   -0.0001           !
 ! A2    A(4,3,5)              132.3651         -DE/DX =    0.               !
 ! A3    A(4,3,9)              122.3982         -DE/DX =    0.0001           !
 ! A4    A(5,3,9)              105.2367         -DE/DX =   -0.0001           !
 ! A5    A(1,5,3)              110.4253         -DE/DX =    0.               !
 ! A6    A(1,5,6)              121.3866         -DE/DX =    0.               !
 ! A7    A(3,5,6)              128.1881         -DE/DX =    0.               !
 ! A8    A(1,8,7)              125.5484         -DE/DX =    0.               !
 ! A9    A(1,8,9)              112.2669         -DE/DX =    0.               !
 ! A10   A(7,8,9)              122.1848         -DE/DX =    0.               !
 ! A11   A(2,9,3)              126.7499         -DE/DX =   -0.0001           !
 ! A12   A(2,9,8)              126.5601         -DE/DX =   -0.0001           !
 ! A13   A(3,9,8)              106.6899         -DE/DX =    0.0001           !
 ! D1    D(8,1,5,3)              0.             -DE/DX =    0.               !
 ! D2    D(8,1,5,6)            180.             -DE/DX =    0.               !
 ! D3    D(5,1,8,7)            180.             -DE/DX =    0.               !
[...]
   8   6      .05    .25    .00      .05   -.25    .00     -.06    .02    .00
   9   7     -.07   -.11    .00     -.12    .02    .00      .00    .00    .00
                    19                     20                     21
                    A'                     A'                     A'
 Frequencies --  3415.7888              3445.3359              3940.9435
 Red. masses --     1.0970                 1.1078                 1.0825
 Frc consts  --     7.5410                 7.7477                 9.9057
 IR Inten    --      .3811                 6.2879                74.5600
 Raman Activ --    93.0265               102.4011                79.9661
 Depolar     --      .3437                  .1778                  .2965
 Atom AN      X      Y      Z        X      Y      Z        X      Y      Z
   1   7      .00    .00    .00      .00    .00    .00      .00    .00    .00
   2   1     -.01    .01    .00     -.01   -.01    .00     -.01   1.00    .00
   3   6     -.03   -.01    .00     -.08   -.03    .00      .00    .00    .00
   4   1      .31    .12    .00      .83    .33    .00      .01    .00    .00
   5   6      .03   -.04    .00     -.02    .04    .00      .00    .00    .00
   6   1     -.29    .49    .00      .21   -.37    .00      .00    .00    .00
   7   1      .70   -.26    .00     -.06    .02    .00     -.01    .00    .00
   8   6     -.06    .03    .00      .01    .00    .00      .00    .00    .00
   9   7      .00    .00    .00      .00    .00    .00      .00   -.08    .00

 -------------------
 - Thermochemistry -
 -------------------
 Temperature   298.150 Kelvin.  Pressure   1.00000 Atm.
 Atom  1 has atomic number  7 and mass  14.00307
 Atom  2 has atomic number  1 and mass   1.00783
 Atom  3 has atomic number  6 and mass  12.00000
 Atom  4 has atomic number  1 and mass   1.00783
 Atom  5 has atomic number  6 and mass  12.00000
 Atom  6 has atomic number  1 and mass   1.00783
 Atom  7 has atomic number  1 and mass   1.00783
 Atom  8 has atomic number  6 and mass  12.00000
 Atom  9 has atomic number  7 and mass  14.00307
 Molecular mass:    68.03745 amu.
 Principal axes and moments of inertia in atomic units:
                           1         2         3
     EIGENVALUES --   181.68898 187.05885 368.74782
           X             .50822    .86122    .00000
           Y             .86122   -.50822    .00000
           Z             .00000    .00000   1.00000
 THIS MOLECULE IS AN ASYMMETRIC TOP.
 ROTATIONAL SYMMETRY NUMBER  1.
 ROTATIONAL TEMPERATURES (KELVIN)       .47671      .46303      .23489
 ROTATIONAL CONSTANTS (GHZ)            9.93314     9.64799     4.89424
 Zero-point vibrational energy     201173.1 (Joules/Mol)
                                   48.08153 (Kcal/Mol)
 WARNING-- EXPLICIT CONSIDERATION OF   1 DEGREES OF FREEDOM AS
           VIBRATIONS MAY CAUSE SIGNIFICANT ERROR
 VIBRATIONAL TEMPERATURES:    769.92   996.04  1052.96  1190.15  1382.22
          (KELVIN)           1418.80  1426.31  1471.16  1653.68  1697.37
                             1763.14  1796.93  2020.24  2144.72  2278.17
                             2380.47  2495.22  4911.68  4914.53  4957.04
                             5670.11
 
 Zero-point correction=                            .076623 (Hartree/Particle)
 Thermal correction to Energy=                     .080183
 Thermal correction to Enthalpy=                   .081128
 Thermal correction to Gibbs Free Energy=          .050450
 Sum of electronic and zero-point Energies=           -224.783696
 Sum of electronic and thermal Energies=              -224.780135
 Sum of electronic and thermal Enthalpies=            -224.779191
 Sum of electronic and thermal Free Energies=         -224.809869
 
                     E (Thermal)             CV                S
                      KCAL/MOL        CAL/MOL-KELVIN    CAL/MOL-KELVIN
 TOTAL                   50.316             12.045             64.567
 ELECTRONIC                .000               .000               .000
 TRANSLATIONAL             .889              2.981             38.570
 ROTATIONAL                .889              2.981             24.042
 VIBRATIONAL             48.538              6.084              1.954
 VIBRATION  1              .890              1.172               .576
                       Q            LOG10(Q)             LN(Q)
 TOTAL BOT        .623538D-23        -23.205137        -53.431803
 TOTAL V=0        .109311D+13         12.038662         27.720044
 VIB (BOT)        .705363D-35        -35.151587        -80.939521
 VIB (BOT)  1     .297439D+00          -.526602         -1.212546
 VIB (V=0)        .123655D+01           .092212           .212326
 VIB (V=0)  1     .108178D+01           .034140           .078609
 ELECTRONIC       .100000D+01           .000000           .000000
 TRANSLATIONAL    .220588D+08          7.343582         16.909224
 ROTATIONAL       .400744D+05          4.602868         10.598494
 ***** Axes restored to original set *****
 -------------------------------------------------------------------
 Center     Atomic                   Forces (Hartrees/Bohr)
 Number     Number              X              Y              Z
 -------------------------------------------------------------------
    1          7            .000273650     .000000000     .000154587
    2          1           -.000009044     .000000000    -.000006310
    3          6            .000165890     .000000000    -.000285617
    4          1            .000009846     .000000000     .000044343
    5          6           -.000240978     .000000000    -.000079936
    6          1            .000077029     .000000000    -.000035216
    7          1           -.000053621     .000000000     .000026738
    8          6           -.000019957     .000000000    -.000154130
    9          7           -.000202815     .000000000     .000335540
 -------------------------------------------------------------------
 Cartesian Forces:  Max      .000335540 RMS      .000130974

 GradGradGradGradGradGradGradGradGradGradGradGradGradGradGradGradGradGrad
 Berny optimization.
 Internal  Forces:  Max      .000273107 RMS      .000072842
 Search for a local minimum.
 Step number   1 out of a maximum of  48
 All quantities printed in internal units (Hartrees-Bohrs-Radians)
 Second derivative matrix not updated -- analytic derivatives used.
     Eigenvalues ---     .00532    .01427    .02629    .03312    .06846
     Eigenvalues ---     .07135    .11542    .12238    .12729    .13817
     Eigenvalues ---     .26298    .27632    .39680    .40992    .41293
     Eigenvalues ---     .41510    .47117    .49636    .55180    .55719
     Eigenvalues ---     .689371000.000001000.000001000.000001000.00000
     Eigenvalues --- 1000.000001000.000001000.000001000.000001000.00000
     Eigenvalues --- 1000.000001000.000001000.000001000.000001000.00000
     Eigenvalues --- 1000.000001000.000001000.00000
 Angle between quadratic step and forces=  23.70 degrees.
 Linear search not attempted -- first point.
 Iteration  1 RMS(Cart)=   .00015955 RMS(Int)=   .00000003
 Iteration  2 RMS(Cart)=   .00000003 RMS(Int)=   .00000001
 Variable       Old X    -DE/DX   Delta X   Delta X   Delta X     New X
                                 (Linear)    (Quad)   (Total)
    R1        2.59119    .00021    .00000    .00057    .00057   2.59176
    R2        2.43201   -.00002    .00000    .00004    .00004   2.43206
    R3        1.87031    .00000    .00000    .00002    .00002   1.87033
    R4        2.01905   -.00003    .00000   -.00009   -.00009   2.01897
    R5        2.55074    .00002    .00000    .00007    .00007   2.55081
    R6        2.59374   -.00027    .00000   -.00064   -.00064   2.59309
    R7        2.02190   -.00008    .00000   -.00020   -.00020   2.02170
    R8        2.02415   -.00006    .00000   -.00013   -.00013   2.02402
    R9        2.55008   -.00007    .00000   -.00022   -.00022   2.54986
    A1        1.83925   -.00015    .00000   -.00034   -.00034   1.83891
    A2        2.31021    .00000    .00000   -.00028   -.00028   2.30993
    A3        2.13625    .00006    .00000    .00038    .00038   2.13663
    A4        1.83673   -.00005    .00000   -.00010   -.00010   1.83663
    A5        1.92728    .00003    .00000    .00003    .00003   1.92731
    A6        2.11860   -.00005    .00000   -.00033   -.00033   2.11827
    A7        2.23730    .00002    .00000    .00030    .00030   2.23760
    A8        2.19123   -.00003    .00000   -.00013   -.00013   2.19110
    A9        1.95943    .00003    .00000    .00004    .00004   1.95946
   A10        2.13253    .00001    .00000    .00010    .00010   2.13262
   A11        2.21220   -.00008    .00000   -.00021   -.00021   2.21199
   A12        2.20889   -.00006    .00000   -.00016   -.00016   2.20873
   A13        1.86209    .00014    .00000    .00037    .00037   1.86246
    D1         .00000    .00000    .00000    .00000    .00000    .00000
    D2        3.14159    .00000    .00000    .00000    .00000   3.14159
    D3        3.14159    .00000    .00000    .00000    .00000   3.14159
    D4         .00000    .00000    .00000    .00000    .00000    .00000
    D5        3.14159    .00000    .00000    .00000    .00000   3.14159
    D6         .00000    .00000    .00000    .00000    .00000    .00000
    D7         .00000    .00000    .00000    .00000    .00000    .00000
    D8        3.14159    .00000    .00000    .00000    .00000   3.14159
    D9         .00000    .00000    .00000    .00000    .00000    .00000
   D10        3.14159    .00000    .00000    .00000    .00000   3.14159
   D11        3.14159    .00000    .00000    .00000    .00000   3.14159
   D12         .00000    .00000    .00000    .00000    .00000    .00000
   D13        3.14159    .00000    .00000    .00000    .00000   3.14159
   D14         .00000    .00000    .00000    .00000    .00000    .00000
   D15         .00000    .00000    .00000    .00000    .00000    .00000
   D16        3.14159    .00000    .00000    .00000    .00000   3.14159
         Item               Value     Threshold  Converged?
 Maximum Force             .000273      .000450     YES
 RMS     Force             .000073      .000300     YES
 Maximum Displacement      .000398      .001800     YES
 RMS     Displacement      .000160      .001200     YES
 Predicted change in Energy=-2.633021D-07
 Optimization completed.
    -- Stationary point found.
                         ----------------------------
                         !   Optimized Parameters   !
                         ! (Angstroms and Degrees)  !
 ------------------------                            -------------------------
 ! Name  Definition              Value          Derivative Info.             !
 -----------------------------------------------------------------------------
 ! R1    R(1,5)                  1.3712         -DE/DX =    0.0002           !
 ! R2    R(1,8)                  1.287          -DE/DX =    0.               !
 ! R3    R(2,9)                  0.9897         -DE/DX =    0.               !
 ! R4    R(3,4)                  1.0684         -DE/DX =    0.               !
 ! R5    R(3,5)                  1.3498         -DE/DX =    0.               !
 ! R6    R(3,9)                  1.3725         -DE/DX =   -0.0003           !
 ! R7    R(5,6)                  1.0699         -DE/DX =   -0.0001           !
 ! R8    R(7,8)                  1.0711         -DE/DX =   -0.0001           !
 ! R9    R(8,9)                  1.3494         -DE/DX =   -0.0001           !
 ! A1    A(5,1,8)              105.3812         -DE/DX =   -0.0001           !
 ! A2    A(4,3,5)              132.3651         -DE/DX =    0.               !
 ! A3    A(4,3,9)              122.3982         -DE/DX =    0.0001           !
 ! A4    A(5,3,9)              105.2367         -DE/DX =   -0.0001           !
 ! A5    A(1,5,3)              110.4253         -DE/DX =    0.               !
 ! A6    A(1,5,6)              121.3866         -DE/DX =    0.               !
 ! A7    A(3,5,6)              128.1881         -DE/DX =    0.               !
 ! A8    A(1,8,7)              125.5484         -DE/DX =    0.               !
 ! A9    A(1,8,9)              112.2669         -DE/DX =    0.               !
 ! A10   A(7,8,9)              122.1848         -DE/DX =    0.               !
 ! A11   A(2,9,3)              126.7499         -DE/DX =   -0.0001           !
 ! A12   A(2,9,8)              126.5601         -DE/DX =   -0.0001           !
 ! A13   A(3,9,8)              106.6899         -DE/DX =    0.0001           !
 ! D1    D(8,1,5,3)              0.             -DE/DX =    0.               !
 ! D2    D(8,1,5,6)            180.             -DE/DX =    0.               !
 ! D3    D(5,1,8,7)            180.             -DE/DX =    0.               !
 ! D4    D(5,1,8,9)              0.             -DE/DX =    0.               !
 ! D5    D(4,3,5,1)            180.             -DE/DX =    0.               !
 ! D6    D(4,3,5,6)              0.             -DE/DX =    0.               !
 ! D7    D(9,3,5,1)              0.             -DE/DX =    0.               !
 ! D8    D(9,3,5,6)            180.             -DE/DX =    0.               !
 ! D9    D(4,3,9,2)              0.             -DE/DX =    0.               !
 ! D10   D(4,3,9,8)            180.             -DE/DX =    0.               !
 ! D11   D(5,3,9,2)            180.             -DE/DX =    0.               !
 ! D12   D(5,3,9,8)              0.             -DE/DX =    0.               !
 ! D13   D(1,8,9,2)            180.             -DE/DX =    0.               !
 ! D14   D(1,8,9,3)              0.             -DE/DX =    0.               !
 ! D15   D(7,8,9,2)              0.             -DE/DX =    0.               !
 ! D16   D(7,8,9,3)            180.             -DE/DX =    0.               !
 -----------------------------------------------------------------------------
 GradGradGradGradGradGradGradGradGradGradGradGradGradGradGradGradGradGrad

 1\1\GINC-SCI-APPS\Freq\RHF\6-311G(d)\C3H4N2\RUS\24-Feb-2000\0\\#N GEOM
 =ALLCHECK GUESS=TCHECK RHF/6-311G(D) FREQ\\1H imidazole C3H4N2 casno=2
 88324\\0,1\N,0.4987043239,0.,1.1095449957\H,0.4927343626,0.,-2.0261669
 243\C,-1.0133458651,0.,-0.5359533908\H,-1.8897782275,0.,-1.1470363364\
 C,-0.837643155,0.,0.8023545483\H,-1.5853408905,0.,1.5676796936\H,2.172
 0139603,0.,-0.1579539511\C,1.1093758266,0.,-0.0233107865\N,0.252731384
 1,0.,-1.0659828111\\Version=IBM-RS6000-G98RevA.7\State=1-A'\HF=-224.86
 03187\RMSD=2.558e-09\RMSF=1.310e-04\Dipole=-0.0827593,0.,-1.5234557\Di
 poleDeriv=-0.5261659,0.,-0.0324416,0.,-0.3625041,0.,0.083786,0.,-0.659
 4051,0.1962472,0.,0.0025533,0.,0.3739069,0.,-0.0011614,0.,0.2312185,0.
 0248445,0.,-0.3053612,0.,-0.1284337,0.,-0.0281712,0.,0.2280967,-0.0034
 778,0.,-0.0552726,0.,0.1997291,0.,-0.0727479,0.,0.041203,0.2929735,0.,
 -0.0001718,0.,-0.1426192,0.,-0.1362552,0.,0.150507,-0.0199857,0.,0.078
 3141,0.,0.1702528,0.,0.0974826,0.,0.0143406,-0.0578089,0.,0.0371641,0.
 ,0.1517673,0.,0.0301523,0.,0.0728203,0.268085,0.,0.0703997,0.,0.101666
 6,0.,-0.0360049,0.,0.6693116,-0.1747121,0.,0.204816,0.,-0.3637656,0.,0
 .0629197,0.,-0.7480927\Polar=45.5062183,0.,21.68042,-0.559455,0.,44.55
 41948\PolarDeriv=-10.1196389,0.,-0.6883326,-1.0352026,0.,5.8274253,0.,
 0.4613304,0.,0.,2.8552574,0.,6.3726355,0.,0.8689483,2.0108791,0.,6.478
 7363,0.6948573,0.,-0.0806633,-1.6071384,0.,1.4629314,0.,0.2178851,0.,0
 .,-0.7969423,0.,-0.9801452,0.,0.1380471,1.7837155,0.,-8.7979025,0.8297
 28,0.,-0.138128,-1.2514828,0.,-1.4445778,0.,-3.2194841,0.,0.,-4.035487
 1,0.,-5.6588671,0.,-2.5461557,-1.9781803,0.,-4.3682178,-6.5747365,0.,0
 .0212262,-3.1747177,0.,-2.1750121,0.,-0.4774312,0.,0.,0.0237837,0.,-3.
 0378004,0.,0.1719966,-2.7939839,0.,-3.1099453,8.0016316,0.,0.0135511,3
 .1414465,0.,-1.894162,0.,-0.9172918,0.,0.,3.9661445,0.,6.1088153,0.,2.
 1582764,3.5636036,0.,3.1165474,-4.4494532,0.,-0.0002337,3.4676437,0.,-
 2.879021,0.,-0.9267527,0.,0.,0.3526841,0.,2.8930817,0.,-0.0544993,-3.0
 972555,0.,5.0294856,9.8671704,0.,0.1669902,-0.7469237,0.,0.8869484,0.,
 0.6410077,0.,0.,-0.0109559,0.,-0.9297975,0.,0.0246934,1.5193588,0.,-0.
 3584096,5.1173119,0.,1.6351363,-0.147928,0.,0.1918341,0.,3.9799247,0.,
 0.,-1.0173533,0.,-5.64227,0.,-0.5952931,-0.6753551,0.,1.9035286,-3.366
 8706,0.,-0.9295463,1.3543029,0.,0.0236337,0.,0.2408119,0.,0.,-1.337131
 1,0.,0.8743477,0.,-0.1660137,-0.3327823,0.,0.1061773\HyperPolar=37.879
 4621,0.,-1.0003475,0.,-15.7589265,0.,-5.6473072,-31.2351127,0.,-24.028
 535\PG=CS [SG(C3H4N2)]\NImag=0\\0.55896988,0.,0.12358780,-0.07444982,0
 .,0.71054182,-0.00313745,0.,-0.00997571,0.09937457,0.,0.00792794,0.,0.
 ,0.01202772,-0.00405364,0.,-0.00283377,-0.11271334,0.,0.52342308,-0.03
 524045,0.,-0.01271286,0.01109918,0.,-0.00150440,0.82728092,0.,0.019680
 42,0.,0.,-0.00908361,0.,0.,0.13704892,-0.10521746,0.,-0.02110171,0.031
 91761,0.,-0.00001054,0.19025641,0.,0.86715545,0.00255800,0.,0.00072846
 ,0.00003072,0.,0.00027439,-0.28453486,0.,-0.14982463,0.29941945,0.,0.0
 0876411,0.,0.,-0.00111311,0.,0.,-0.02904473,0.,0.,0.02350014,-0.004492
 14,0.,-0.00616196,-0.00126621,0.,0.00012745,-0.16043434,0.,-0.18624248
 ,0.16597909,0.,0.17534963,-0.27973993,0.,-0.04950012,-0.01017734,0.,0.
 00005368,-0.12693634,0.,-0.02557729,0.00640018,0.,-0.02549562,0.744328
 94,0.,-0.08386413,0.,0.,0.00215506,0.,0.,-0.08175588,0.,0.,0.00050683,
 0.,0.,0.16431604,-0.04798976,0.,-0.14113978,0.00387059,0.,0.00139659,-
 0.04829062,0.,-0.46718167,0.00090004,0.,0.00316687,-0.16849514,0.,0.92
 663820,-0.01964442,0.,0.02509164,0.00085879,0.,-0.00002378,0.01118664,
 0.,-0.00569211,-0.00030639,0.,0.00090571,-0.21683696,0.,0.15769087,0.2
 3141735,0.,-0.00444354,0.,0.,0.00256932,0.,0.,0.00151003,0.,0.,-0.0032
 7163,0.,0.,-0.03780760,0.,0.,0.02850723,-0.00771960,0.,0.01469035,0.00
 144150,0.,0.00025509,0.02386134,0.,-0.00760149,-0.00071010,0.,-0.00023
 607,0.16178217,0.,-0.24384817,-0.17346763,0.,0.24245072,-0.00954434,0.
 ,0.00391701,-0.00068574,0.,-0.00070610,0.00117736,0.,-0.00410430,-0.00
 044982,0.,0.00043714,0.00142324,0.,0.00336526,-0.00042153,0.,-0.000184
 68,0.40452327,0.,-0.00341911,0.,0.,-0.00168745,0.,0.,0.00321558,0.,0.,
 0.00193475,0.,0.,0.00906719,0.,0.,0.00089620,0.,0.,0.02845491,0.034822
 94,0.,0.00217141,0.00077970,0.,0.00038291,-0.00051348,0.,-0.00695148,-
 0.00121342,0.,0.00110872,0.00298415,0.,-0.00498731,0.00158550,0.,0.000
 73213,-0.04120623,0.,0.07291972,-0.21628937,0.,0.15467237,0.02388568,0
 .,0.01485208,-0.10465175,0.,0.00419687,-0.00370188,0.,0.00451009,-0.09
 316616,0.,0.01952990,-0.00732023,0.,-0.00398308,-0.38177706,0.,0.03747
 264,1.02958007,0.,-0.09549035,0.,0.,-0.00981302,0.,0.,0.01867376,0.,0.
 ,0.00292819,0.,0.,0.01177340,0.,0.,0.00559362,0.,0.,-0.03920918,0.,0.,
 0.17993723,0.15734518,0.,-0.42721943,-0.01898219,0.,-0.01159792,-0.057
 02585,0.,-0.01723293,0.00588674,0.,-0.00575815,0.10524123,0.,0.0136345
 3,-0.00311701,0.,0.00013994,0.03353911,0.,-0.07567560,-0.11650511,0.,0
 .77198631,0.00206808,0.,-0.03777096,-0.12124842,0.,0.10382112,-0.29938
 070,0.,0.06404491,-0.01941541,0.,0.01985627,-0.02529563,0.,0.07941886,
 0.00106676,0.,-0.00101992,-0.01424537,0.,-0.03471180,-0.24655930,0.,-0
 .10638211,0.72300998,0.,0.02725686,0.,0.,-0.00298284,0.,0.,-0.06024449
 ,0.,0.,-0.00420455,0.,0.,0.01560910,0.,0.,0.00644638,0.,0.,0.00074709,
 0.,0.,-0.07439366,0.,0.,0.09176610,0.05175429,0.,-0.12894692,0.1049280
 5,0.,-0.51114290,0.06636380,0.,-0.16083315,-0.02202057,0.,0.01864598,-
 0.00099306,0.,-0.08767926,-0.00297319,0.,-0.00658250,0.00494280,0.,0.0
 1029950,-0.11474577,0.,-0.24827675,-0.08725636,0.,1.11451601\\-0.00027
 365,0.,-0.00015459,0.00000904,0.,0.00000631,-0.00016589,0.,0.00028562,
 -0.00000985,0.,-0.00004434,0.00024098,0.,0.00007994,-0.00007703,0.,0.0
 0003522,0.00005362,0.,-0.00002674,0.00001996,0.,0.00015413,0.00020281,
 0.,-0.00033554\\\@


 TRUST EVERYONE, BUT CUT THE CARDS.
 Job cpu time:  0 days  0 hours  7 minutes 56.8 seconds.
 File lengths (MBytes):  RWF=   16 Int=    0 D2E=    0 Chk=    3 Scr=    1
 Normal termination of Gaussian 98.
