 Entering Gaussian System, Link 0=g98
 Initial command:
 /usr/local/apps/g98/g98/l1.exe /wrk/Gau-16084.inp -scrdir=/wrk/
 Entering Link 1 = /usr/local/apps/g98/g98/l1.exe PID=     15496.
  
 Copyright (c) 1988,1990,1992,1993,1995,1998 Gaussian, Inc.
                  All Rights Reserved.
  
 This is part of the Gaussian(R) 98 program.  It is based on
 the Gaussian 94(TM) system (copyright 1995 Gaussian, Inc.),
 the Gaussian 92(TM) system (copyright 1992 Gaussian, Inc.),
 the Gaussian 90(TM) system (copyright 1990 Gaussian, Inc.),
 the Gaussian 88(TM) system (copyright 1988 Gaussian, Inc.),
 the Gaussian 86(TM) system (copyright 1986 Carnegie Mellon
 University), and the Gaussian 82(TM) system (copyright 1983
 Carnegie Mellon University). Gaussian is a federally registered
 trademark of Gaussian, Inc.
  
 This software contains proprietary and confidential information,
 including trade secrets, belonging to Gaussian, Inc.
  
 This software is provided under written license and may be
 used, copied, transmitted, or stored only in accord with that
 written license.
  
 The following legend is applicable only to US Government
 contracts under DFARS:
  
                    RESTRICTED RIGHTS LEGEND
  
 Use, duplication or disclosure by the US Government is subject
 to restrictions as set forth in subparagraph (c)(1)(ii) of the
 Rights in Technical Data and Computer Software clause at DFARS
 252.227-7013.
  
 Gaussian, Inc.
 Carnegie Office Park, Building 6, Pittsburgh, PA 15106 USA
  
 The following legend is applicable only to US Government
 contracts under FAR:
  
                    RESTRICTED RIGHTS LEGEND
  
 Use, reproduction and disclosure by the US Government is subject
 to restrictions as set forth in subparagraph (c) of the
 Commercial Computer Software - Restricted Rights clause at FAR
 52.227-19.
  
 Gaussian, Inc.
 Carnegie Office Park, Building 6, Pittsburgh, PA 15106 USA
  
  
 ---------------------------------------------------------------
 Warning -- This program may not be used in any manner that
 competes with the business of Gaussian, Inc. or will provide
 assistance to any competitor of Gaussian, Inc.  The licensee
 of this program is prohibited from giving any competitor of
 Gaussian, Inc. access to this program.  By using this program,
 the user acknowledges that Gaussian, Inc. is engaged in the
 business of creating and licensing software in the field of
 computational chemistry and represents and warrants to the
 licensee that it is not a competitor of Gaussian, Inc. and that
 it will not use this program in any manner prohibited above.
 ---------------------------------------------------------------
  

 Cite this work as:
 Gaussian 98, Revision A.7,
 M. J. Frisch, G. W. Trucks, H. B. Schlegel, G. E. Scuseria, 
 M. A. Robb, J. R. Cheeseman, V. G. Zakrzewski, J. A. Montgomery, Jr., 
 R. E. Stratmann, J. C. Burant, S. Dapprich, J. M. Millam, 
 A. D. Daniels, K. N. Kudin, M. C. Strain, O. Farkas, J. Tomasi, 
 V. Barone, M. Cossi, R. Cammi, B. Mennucci, C. Pomelli, C. Adamo, 
 S. Clifford, J. Ochterski, G. A. Petersson, P. Y. Ayala, Q. Cui, 
 K. Morokuma, D. K. Malick, A. D. Rabuck, K. Raghavachari, 
 J. B. Foresman, J. Cioslowski, J. V. Ortiz, A. G. Baboul, 
 B. B. Stefanov, G. Liu, A. Liashenko, P. Piskorz, I. Komaromi, 
 R. Gomperts, R. L. Martin, D. J. Fox, T. Keith, M. A. Al-Laham, 
 C. Y. Peng, A. Nanayakkara, C. Gonzalez, M. Challacombe, 
 P. M. W. Gill, B. Johnson, W. Chen, M. W. Wong, J. L. Andres, 
 C. Gonzalez, M. Head-Gordon, E. S. Replogle, and J. A. Pople, 
 Gaussian, Inc., Pittsburgh PA, 1998.

 **********************************************
 Gaussian 98:  IBM-RS6000-G98RevA.7 11-Apr-1999
                   5-Apr-2000 
 **********************************************
 %mem=24000000
 -------------------
 #HF/3-21G* opt freq
 -------------------
 1/18=20,38=1/1,3;
 2/9=110,17=6,18=5/2;
 3/5=5,7=1,11=9,25=1,30=1/1,2,3;
 4//1;
 5/5=2,38=4/2;
 6/7=2,8=2,9=2,10=2,28=1/1;
 7//1,2,3,16;
 1/18=20/3(1);
 99//99;
 2/9=110/2;
 3/5=5,7=1,11=9,25=1,30=1/1,2,3;
 4/5=5,16=2/1;
 5/5=2,38=4/2;
 7//1,2,3,16;
 1/18=20/3(-5);
 2/9=110/2;
 6/7=2,8=2,9=2,10=2,19=2,28=1/1;
 99/9=1/99;
 --------------------------------
 1H imidazole C3H4N2 casno=288324
 --------------------------------
 Symbolic Z-matrix:
 Charge =  0 Multiplicity = 1
 N                     0.30938   0.        1.30938 
 H                     0.3125    0.       -1.6875 
 C                    -1.06875   0.       -0.28438 
 H                    -1.91875   0.       -0.79063 
 C                    -0.93438   0.        1.02812 
 H                    -1.675     0.        1.6875 
 H                     1.91875   0.        0.09063 
 C                     0.93438   0.        0.19063 
 N                     0.09688   0.       -0.775 

 GradGradGradGradGradGradGradGradGradGradGradGradGradGradGradGradGradGrad
 Berny optimization.
 Initialization pass.
                         ----------------------------
                         !    Initial Parameters    !
                         ! (Angstroms and Degrees)  !
 ------------------------                            -------------------------
 ! Name  Definition              Value          Derivative Info.             !
 -----------------------------------------------------------------------------
 ! R1    R(1,5)                  1.2752         estimate D2E/DX2             !
 ! R2    R(1,8)                  1.2815         estimate D2E/DX2             !
 ! R3    R(2,9)                  0.9376         estimate D2E/DX2             !
 ! R4    R(3,4)                  0.9893         estimate D2E/DX2             !
 ! R5    R(3,5)                  1.3194         estimate D2E/DX2             !
 ! R6    R(3,9)                  1.2647         estimate D2E/DX2             !
 ! R7    R(5,6)                  0.9916         estimate D2E/DX2             !
 ! R8    R(7,8)                  0.9894         estimate D2E/DX2             !
 ! R9    R(8,9)                  1.2782         estimate D2E/DX2             !
 ! A1    A(5,1,8)              106.4483         estimate D2E/DX2             !
 ! A2    A(4,3,5)              126.6232         estimate D2E/DX2             !
 ! A3    A(4,3,9)              126.3957         estimate D2E/DX2             !
 ! A4    A(5,3,9)              106.9812         estimate D2E/DX2             !
 ! A5    A(1,5,3)              108.5877         estimate D2E/DX2             !
 ! A6    A(1,5,6)              125.5794         estimate D2E/DX2             !
 ! A7    A(3,5,6)              125.8329         estimate D2E/DX2             !
 ! A8    A(1,8,7)              124.9909         estimate D2E/DX2             !
 ! A9    A(1,8,9)              109.8741         estimate D2E/DX2             !
 ! A10   A(7,8,9)              125.1349         estimate D2E/DX2             !
 ! A11   A(2,9,3)              126.122          estimate D2E/DX2             !
 ! A12   A(2,9,8)              125.7693         estimate D2E/DX2             !
 ! A13   A(3,9,8)              108.1088         estimate D2E/DX2             !
 ! D1    D(8,1,5,3)              0.             estimate D2E/DX2             !
 ! D2    D(8,1,5,6)            180.             estimate D2E/DX2             !
 ! D3    D(5,1,8,7)            180.             estimate D2E/DX2             !
 ! D4    D(5,1,8,9)              0.             estimate D2E/DX2             !
 ! D5    D(4,3,5,1)            180.             estimate D2E/DX2             !
 ! D6    D(4,3,5,6)              0.             estimate D2E/DX2             !
 ! D7    D(9,3,5,1)              0.             estimate D2E/DX2             !
 ! D8    D(9,3,5,6)            180.             estimate D2E/DX2             !
 ! D9    D(4,3,9,2)              0.             estimate D2E/DX2             !
 ! D10   D(4,3,9,8)            180.             estimate D2E/DX2             !
 ! D11   D(5,3,9,2)            180.             estimate D2E/DX2             !
 ! D12   D(5,3,9,8)              0.             estimate D2E/DX2             !
 ! D13   D(1,8,9,2)            180.             estimate D2E/DX2             !
 ! D14   D(1,8,9,3)              0.             estimate D2E/DX2             !
 ! D15   D(7,8,9,2)              0.             estimate D2E/DX2             !
 ! D16   D(7,8,9,3)            180.             estimate D2E/DX2             !
 -----------------------------------------------------------------------------
 Trust Radius=3.00D-01 FncErr=1.00D-07 GrdErr=1.00D-07
 Number of steps in this run=  48 maximum allowed number of steps= 100.
 GradGradGradGradGradGradGradGradGradGradGradGradGradGradGradGradGradGrad

                          Input orientation:                          
 ---------------------------------------------------------------------
 Center     Atomic     Atomic              Coordinates (Angstroms)
 Number     Number      Type              X           Y           Z
 ---------------------------------------------------------------------
    1          7             0         .309375     .000000    1.309375
    2          1             0         .312500     .000000   -1.687500
    3          6             0       -1.068750     .000000    -.284375
    4          1             0       -1.918750     .000000    -.790625
    5          6             0        -.934375     .000000    1.028125
    6          1             0       -1.675000     .000000    1.687500
    7          1             0        1.918750     .000000     .090625
    8          6             0         .934375     .000000     .190625
    9          7             0         .096875     .000000    -.775000
 ---------------------------------------------------------------------
                    Distance matrix (angstroms):
                    1          2          3          4          5
     1  N     .000000
     2  H    2.996877    .000000
     3  C    2.106957   1.968911    .000000
     4  H    3.061787   2.404758    .989338    .000000
     5  C    1.275153   2.988196   1.319361   2.068054    .000000
     6  H    2.020080   3.916731   2.062966   2.490084    .991615
     7  H    2.018772   2.396199   3.010944   3.937386   3.003203
     8  C    1.281494   1.978404   2.058673   3.017147   2.047836
     9  N    2.095179    .937630   1.264672   2.015686   2.077194
                    6          7          8          9
     6  H     .000000
     7  H    3.932563    .000000
     8  C    3.008234    .989441    .000000
     9  N    3.033718   2.017061   1.278217    .000000
 Stoichiometry    C3H4N2
 Framework group  CS[SG(C3H4N2)]
 Deg. of freedom   15
 Full point group                 CS      NOp   2
 Largest Abelian subgroup         CS      NOp   2
 Largest concise Abelian subgroup C1      NOp   1
                         Standard orientation:                         
 ---------------------------------------------------------------------
 Center     Atomic     Atomic              Coordinates (Angstroms)
 Number     Number      Type              X           Y           Z
 ---------------------------------------------------------------------
    1          7             0        -.674969    -.941702     .000000
    2          1             0        -.005288    1.979393     .000000
    3          6             0        1.025744     .302019     .000000
    4          1             0        1.967693     .604544     .000000
    5          6             0         .600174    -.946822     .000000
    6          1             0        1.173884   -1.755622     .000000
    7          1             0       -1.969692     .607211     .000000
    8          6             0       -1.032886     .288794     .000000
    9          7             0         .000000    1.041778     .000000
 ---------------------------------------------------------------------
 Rotational constants (GHZ):     11.1543393     10.4769603      5.4025219
 Isotopes: N-14,H-1,C-12,H-1,C-12,H-1,H-1,C-12,N-14
 Standard basis: 3-21G* (6D, 7F)
 There are    43 symmetry adapted basis functions of A'  symmetry.
 There are    10 symmetry adapted basis functions of A"  symmetry.
 Crude estimate of integral set expansion from redundant integrals=1.000.
 Integral buffers will be    262144 words long.
 Raffenetti 1 integral format.
 Two-electron integral symmetry is turned on.
    53 basis functions       87 primitive gaussians
    18 alpha electrons       18 beta electrons
       nuclear repulsion energy       173.5664837334 Hartrees.
 One-electron integrals computed using PRISM.
 NBasis=    53 RedAO= T  NBF=    43    10
 NBsUse=    53 1.00D-04 NBFU=    43    10
 Projected INDO Guess.
 Initial guess orbital symmetries:
       Occupied  (A') (A') (A') (A') (A') (A') (A') (A') (A') (A')
                 (A') (A") (A') (A') (A') (A") (A') (A")
       Virtual   (A") (A') (A') (A") (A') (A') (A') (A') (A') (A')
                 (A') (A') (A') (A') (A') (A') (A') (A') (A') (A')
                 (A') (A') (A') (A') (A') (A') (A') (A') (A') (A')
                 (A") (A") (A") (A") (A")
 Requested convergence on RMS density matrix=1.00D-08 within  64 cycles.
 Requested convergence on MAX density matrix=1.00D-06.
 Keep R1 integrals in memory in canonical form, NReq=     1438530.
 SCF Done:  E(RHF) =  -223.491670812     A.U. after   13 cycles
             Convg  =     .5823D-08             -V/T =  1.9943
             S**2   =    .0000

 **********************************************************************

            Population analysis using the SCF density.

 **********************************************************************

 Orbital Symmetries:
       Occupied  (A') (A') (A') (A') (A') (A') (A') (A') (A') (A')
                 (A') (A") (A') (A') (A') (A") (A') (A")
       Virtual   (A") (A') (A") (A') (A') (A') (A') (A') (A') (A')
                 (A') (A") (A') (A') (A") (A") (A') (A') (A') (A')
                 (A') (A') (A") (A') (A") (A') (A') (A') (A') (A')
                 (A') (A') (A') (A') (A')
  The electronic state is 1-A'.
 Alpha  occ. eigenvalues --  -15.54733 -15.44449 -11.20830 -11.17476 -11.15075
 Alpha  occ. eigenvalues --   -1.43355  -1.21671  -1.03987   -.87041   -.83371
 Alpha  occ. eigenvalues --    -.80349   -.64762   -.64382   -.61769   -.59694
 Alpha  occ. eigenvalues --    -.41347   -.40623   -.32118
 Alpha virt. eigenvalues --     .22141    .26809    .28684    .34399    .36092
 Alpha virt. eigenvalues --     .38213    .47182    .48222    .58226    .60209
 Alpha virt. eigenvalues --     .79346    .95997    .96987   1.01571   1.02476
 Alpha virt. eigenvalues --    1.07834   1.09427   1.12322   1.13837   1.23730
 Alpha virt. eigenvalues --    1.32842   1.35351   1.43583   1.48067   1.55491
 Alpha virt. eigenvalues --    1.57924   1.60850   1.65198   1.69918   1.84167
 Alpha virt. eigenvalues --    1.97948   2.03705   2.11439   3.05388   3.26588
          Condensed to atoms (all electrons):
              1          2          3          4          5          6
  1  N    7.063171    .003131   -.111673    .005826    .373650   -.029549
  2  H     .003131    .307637   -.016981   -.001028    .004220   -.000057
  3  C    -.111673   -.016981   5.200725    .380659    .539399   -.053971
  4  H     .005826   -.001028    .380659    .401444   -.017921    .000041
  5  C     .373650    .004220    .539399   -.017921   5.018762    .411744
  6  H    -.029549   -.000057   -.053971    .000041    .411744    .414876
  7  H    -.027163   -.000530    .002272    .000023    .003338    .000011
  8  C     .540730   -.017001   -.186312    .006009   -.262508    .005050
  9  N    -.148770    .346905    .157202   -.044735   -.042093    .004010
              7          8          9
  1  N    -.027163    .540730   -.148770
  2  H    -.000530   -.017001    .346905
  3  C     .002272   -.186312    .157202
  4  H     .000023    .006009   -.044735
  5  C     .003338   -.262508   -.042093
  6  H     .000011    .005050    .004010
  7  H     .398725    .403704   -.053122
  8  C     .403704   4.889192    .222434
  9  N    -.053122    .222434   7.511581
 Total atomic charges:
              1
  1  N    -.669353
  2  H     .373704
  3  C     .088679
  4  H     .269682
  5  C    -.028590
  6  H     .247846
  7  H     .272743
  8  C     .398703
  9  N    -.953413
 Sum of Mulliken charges=    .00000
 Atomic charges with hydrogens summed into heavy atoms:
              1
  1  N    -.669353
  2  H     .000000
  3  C     .358361
  4  H     .000000
  5  C     .219255
  6  H     .000000
  7  H     .000000
  8  C     .671446
  9  N    -.579709
 Sum of Mulliken charges=    .00000
 Electronic spatial extent (au):  <R**2>=   259.2737
 Charge=      .0000 electrons
 Dipole moment (Debye):
    X=     1.2573    Y=     3.9836    Z=      .0000  Tot=     4.1773
 Quadrupole moment (Debye-Ang):
   XX=   -26.6665   YY=   -25.9554   ZZ=   -31.1682
   XY=    -3.5010   XZ=      .0000   YZ=      .0000
 Octapole moment (Debye-Ang**2):
  XXX=      .4378  YYY=    16.2070  ZZZ=      .0000  XYY=     5.2160
  XXY=     5.5586  XXZ=      .0000  XZZ=     -.9590  YZZ=     1.2337
  YYZ=      .0000  XYZ=      .0000
 Hexadecapole moment (Debye-Ang**3):
 XXXX=  -133.3956 YYYY=  -123.3790 ZZZZ=   -29.1459 XXXY=    -2.8592
 XXXZ=      .0000 YYYX=    -7.3202 YYYZ=      .0000 ZZZX=      .0000
 ZZZY=      .0000 XXYY=   -49.9165 XXZZ=   -33.1681 YYZZ=   -31.0806
 XXYZ=      .0000 YYXZ=      .0000 ZZXY=      .9173
 N-N= 1.735664837334D+02 E-N=-8.701544629755D+02  KE= 2.247787798358D+02
 Symmetry A'   KE= 2.169710182112D+02
 Symmetry A"   KE= 7.807761624524D+00
 ***** Axes restored to original set *****
 -------------------------------------------------------------------
 Center     Atomic                   Forces (Hartrees/Bohr)
 Number     Number              X              Y              Z
 -------------------------------------------------------------------
    1          7            .091826827     .000000000     .071852456
    2          1            .015863804     .000000000    -.067112811
    3          6           -.093993430     .000000000     .024593747
    4          1           -.059726045     .000000000    -.044563773
    5          6           -.056278083     .000000000    -.012523638
    6          1           -.050029040     .000000000     .051276555
    7          1            .072166307     .000000000    -.009494946
    8          6            .041506868     .000000000     .051229426
    9          7            .038662793     .000000000    -.065257016
 -------------------------------------------------------------------
 Cartesian Forces:  Max      .093993430 RMS      .046026734

 GradGradGradGradGradGradGradGradGradGradGradGradGradGradGradGradGradGrad
 Berny optimization.
 Internal  Forces:  Max      .141337350 RMS      .045719113
 Search for a local minimum.
 Step number   1 out of a maximum of  48
 All quantities printed in internal units (Hartrees-Bohrs-Radians)
 Second derivative matrix not updated -- first step.
     Eigenvalues ---     .03211    .03261    .03288    .03318    .03352
     Eigenvalues ---     .03407    .16000    .16000    .16000    .16000
     Eigenvalues ---     .22000    .22917    .49193    .49594    .49613
     Eigenvalues ---     .54578    .60577    .63413    .68379    .73836
     Eigenvalues ---     .765081000.000001000.000001000.000001000.00000
     Eigenvalues --- 1000.000001000.000001000.000001000.000001000.00000
     Eigenvalues --- 1000.000001000.000001000.000001000.000001000.00000
     Eigenvalues --- 1000.000001000.000001000.00000
 RFO step:  Lambda=-1.03960638D-01.
 Linear search not attempted -- first point.
 Maximum step size (    .300) exceeded in Quadratic search.
    -- Step size scaled by    .798
 Iteration  1 RMS(Cart)=   .06698643 RMS(Int)=   .00043216
 Iteration  2 RMS(Cart)=   .00050389 RMS(Int)=   .00010478
 Iteration  3 RMS(Cart)=   .00000029 RMS(Int)=   .00010478
 Variable       Old X    -DE/DX   Delta X   Delta X   Delta X     New X
                                 (Linear)    (Quad)   (Total)
    R1        2.40969    .13004    .00000    .11940    .11938   2.52907
    R2        2.42167    .05449    .00000    .05033    .05014   2.47181
    R3        1.77186    .06896    .00000    .07754    .07754   1.84941
    R4        1.86958    .07412    .00000    .09857    .09857   1.96814
    R5        2.49323    .06944    .00000    .07689    .07706   2.57029
    R6        2.38988    .14134    .00000    .13037    .13050   2.52039
    R7        1.87388    .07146    .00000    .09570    .09570   1.96959
    R8        1.86977    .07276    .00000    .09679    .09679   1.96656
    R9        2.41548    .11552    .00000    .11114    .11104   2.52652
    A1        1.85787    .01269    .00000    .01552    .01525   1.87313
    A2        2.20999    .01469    .00000    .03577    .03563   2.24562
    A3        2.20602    .00025    .00000   -.00789   -.00804   2.19798
    A4        1.86717   -.01493    .00000   -.02788   -.02759   1.83959
    A5        1.89521    .00577    .00000    .01016    .01031   1.90552
    A6        2.19177   -.00760    .00000   -.01933   -.01941   2.17237
    A7        2.19620    .00183    .00000    .00917    .00910   2.20529
    A8        2.18150    .00485    .00000    .01314    .01326   2.19476
    A9        1.91767   -.00568    .00000   -.01412   -.01435   1.90331
   A10        2.18402    .00083    .00000    .00097    .00109   2.18511
   A11        2.20124   -.00107    .00000   -.00815   -.00817   2.19307
   A12        2.19509   -.00108    .00000   -.00817   -.00820   2.18689
   A13        1.88685    .00214    .00000    .01632    .01637   1.90323
    D1         .00000    .00000    .00000    .00000    .00000    .00000
    D2        3.14159    .00000    .00000    .00000    .00000   3.14159
    D3        3.14159    .00000    .00000    .00000    .00000   3.14159
    D4         .00000    .00000    .00000    .00000    .00000    .00000
    D5        3.14159    .00000    .00000    .00000    .00000   3.14159
    D6         .00000    .00000    .00000    .00000    .00000    .00000
    D7         .00000    .00000    .00000    .00000    .00000    .00000
    D8        3.14159    .00000    .00000    .00000    .00000   3.14159
    D9         .00000    .00000    .00000    .00000    .00000    .00000
   D10        3.14159    .00000    .00000    .00000    .00000   3.14159
   D11        3.14159    .00000    .00000    .00000    .00000   3.14159
   D12         .00000    .00000    .00000    .00000    .00000    .00000
   D13        3.14159    .00000    .00000    .00000    .00000   3.14159
   D14         .00000    .00000    .00000    .00000    .00000    .00000
   D15         .00000    .00000    .00000    .00000    .00000    .00000
   D16        3.14159    .00000    .00000    .00000    .00000   3.14159
         Item               Value     Threshold  Converged?
 Maximum Force             .141337      .000450     NO 
 RMS     Force             .045719      .000300     NO 
 Maximum Displacement      .200865      .001800     NO 
 RMS     Displacement      .066966      .001200     NO 
 Predicted change in Energy=-2.842871D-02
 GradGradGradGradGradGradGradGradGradGradGradGradGradGradGradGradGradGrad

                          Input orientation:                          
 ---------------------------------------------------------------------
 Center     Atomic     Atomic              Coordinates (Angstroms)
 Number     Number      Type              X           Y           Z
 ---------------------------------------------------------------------
    1          7             0         .478279     .000000    1.101407
    2          1             0         .474539     .000000   -1.991824
    3          6             0        -.988934     .000000    -.536998
    4          1             0       -1.873125     .000000   -1.087380
    5          6             0        -.828751     .000000     .813678
    6          1             0       -1.589554     .000000    1.526057
    7          1             0        2.162023     .000000    -.143386
    8          6             0        1.127090     .000000    -.034364
    9          7             0         .246246     .000000   -1.040159
 ---------------------------------------------------------------------
                    Distance matrix (angstroms):
                    1          2          3          4          5
     1  N     .000000
     2  H    3.093233    .000000
     3  C    2.199337   2.063557    .000000
     4  H    3.212458   2.515858   1.041497    .000000
     5  C    1.338325   3.093445   1.360141   2.169041    .000000
     6  H    2.110985   4.078721   2.148707   2.628777   1.042260
     7  H    2.093920   2.502863   3.175446   4.144097   3.140175
     8  C    1.308027   2.063364   2.174902   3.179644   2.131781
     9  N    2.154100    .978664   1.333731   2.119897   2.142972
                    6          7          8          9
     6  H     .000000
     7  H    4.106259    .000000
     8  C    3.132901   1.040658    .000000
     9  N    3.155254   2.115279   1.336978    .000000
 Stoichiometry    C3H4N2
 Framework group  CS[SG(C3H4N2)]
 Deg. of freedom   15
 Full point group                 CS      NOp   2
 Largest Abelian subgroup         CS      NOp   2
 Largest concise Abelian subgroup C1      NOp   1
                         Standard orientation:                         
 ---------------------------------------------------------------------
 Center     Atomic     Atomic              Coordinates (Angstroms)
 Number     Number      Type              X           Y           Z
 ---------------------------------------------------------------------
    1          7             0        -.711673    -.959847     .000000
    2          1             0        -.006516    2.051937     .000000
    3          6             0        1.088883     .303117     .000000
    4          1             0        2.074857     .638633     .000000
    5          6             0         .626554    -.976037     .000000
    6          1             0        1.205972   -1.842397     .000000
    7          1             0       -2.069238     .634367     .000000
    8          6             0       -1.085998     .293474     .000000
    9          7             0         .000000    1.073295     .000000
 ---------------------------------------------------------------------
 Rotational constants (GHZ):     10.0532202      9.8975003      4.9873763
 Isotopes: N-14,H-1,C-12,H-1,C-12,H-1,H-1,C-12,N-14
 Standard basis: 3-21G* (6D, 7F)
 There are    43 symmetry adapted basis functions of A'  symmetry.
 There are    10 symmetry adapted basis functions of A"  symmetry.
 Crude estimate of integral set expansion from redundant integrals=1.000.
 Integral buffers will be    262144 words long.
 Raffenetti 1 integral format.
 Two-electron integral symmetry is turned on.
    53 basis functions       87 primitive gaussians
    18 alpha electrons       18 beta electrons
       nuclear repulsion energy       166.6576899579 Hartrees.
 One-electron integrals computed using PRISM.
 NBasis=    53 RedAO= T  NBF=    43    10
 NBsUse=    53 1.00D-04 NBFU=    43    10
 Initial guess read from the read-write file:
 Initial guess orbital symmetries:
       Occupied  (A') (A') (A') (A') (A') (A') (A') (A') (A') (A')
                 (A') (A") (A') (A') (A') (A") (A') (A")
       Virtual   (A") (A') (A") (A') (A') (A') (A') (A') (A') (A')
                 (A') (A") (A') (A') (A") (A") (A') (A') (A') (A')
                 (A') (A') (A") (A') (A") (A') (A') (A') (A') (A')
                 (A') (A') (A') (A') (A')
 Requested convergence on RMS density matrix=1.00D-08 within  64 cycles.
 Requested convergence on MAX density matrix=1.00D-06.
 Keep R1 integrals in memory in canonical form, NReq=     1438530.
 SCF Done:  E(RHF) =  -223.542142037     A.U. after   13 cycles
             Convg  =     .2758D-08             -V/T =  2.0001
             S**2   =    .0000
 ***** Axes restored to original set *****
 -------------------------------------------------------------------
 Center     Atomic                   Forces (Hartrees/Bohr)
 Number     Number              X              Y              Z
 -------------------------------------------------------------------
    1          7            .038695015     .000000000     .020203118
    2          1            .003512732     .000000000    -.017382060
    3          6           -.027240559     .000000000     .028063317
    4          1           -.012330053     .000000000    -.014849144
    5          6           -.023510917     .000000000    -.020202598
    6          1           -.010088751     .000000000     .015403548
    7          1            .017784616     .000000000    -.004306824
    8          6           -.006006123     .000000000     .027379588
    9          7            .019184040     .000000000    -.034308947
 -------------------------------------------------------------------
 Cartesian Forces:  Max      .038695015 RMS      .017307372

 GradGradGradGradGradGradGradGradGradGradGradGradGradGradGradGradGradGrad
 Berny optimization.
 Internal  Forces:  Max      .041060966 RMS      .012508581
 Search for a local minimum.
 Step number   2 out of a maximum of  48
 All quantities printed in internal units (Hartrees-Bohrs-Radians)
 Update second derivatives using information from points  1  2
 Trust test= 1.78D+00 RLast= 3.00D-01 DXMaxT set to 4.24D-01
     Eigenvalues ---     .03209    .03263    .03288    .03314    .03352
     Eigenvalues ---     .03406    .15891    .16000    .16000    .16001
     Eigenvalues ---     .22277    .22891    .49306    .49603    .51302
     Eigenvalues ---     .55825    .60948    .63729    .69736    .73505
     Eigenvalues ---     .777681000.000001000.000001000.000001000.00000
     Eigenvalues --- 1000.000001000.000001000.000001000.000001000.00000
     Eigenvalues --- 1000.000001000.000001000.000001000.000001000.00000
     Eigenvalues --- 1000.000001000.000001000.00000
 RFO step:  Lambda=-3.84059931D-03.
 Quartic linear search produced a step of   .43948.
 Iteration  1 RMS(Cart)=   .03348302 RMS(Int)=   .00060331
 Iteration  2 RMS(Cart)=   .00074436 RMS(Int)=   .00010650
 Iteration  3 RMS(Cart)=   .00000046 RMS(Int)=   .00010650
 Variable       Old X    -DE/DX   Delta X   Delta X   Delta X     New X
                                 (Linear)    (Quad)   (Total)
    R1        2.52907    .03960    .05246    .01473    .06700   2.59607
    R2        2.47181    .00556    .02204   -.01564    .00637   2.47818
    R3        1.84941    .01772    .03408    .00385    .03793   1.88734
    R4        1.96814    .01831    .04332    .00479    .04811   2.01625
    R5        2.57029    .00882    .03387   -.01706    .01672   2.58701
    R6        2.52039    .04106    .05735    .01350    .07099   2.59138
    R7        1.96959    .01789    .04206    .00542    .04748   2.01707
    R8        1.96656    .01814    .04254    .00517    .04770   2.01426
    R9        2.52652    .03108    .04880    .00697    .05595   2.58247
    A1        1.87313   -.00244    .00670   -.03673   -.03030   1.84282
    A2        2.24562    .00621    .01566    .03338    .04900   2.29462
    A3        2.19798   -.00578   -.00353   -.05250   -.05607   2.14192
    A4        1.83959   -.00042   -.01212    .01912    .00707   1.84665
    A5        1.90552    .00361    .00453    .01271    .01700   1.92253
    A6        2.17237   -.00609   -.00853   -.03763   -.04604   2.12633
    A7        2.20529    .00248    .00400    .02492    .02904   2.23433
    A8        2.19476   -.00122    .00583   -.00770   -.00194   2.19282
    A9        1.90331    .00719   -.00631    .05179    .04562   1.94893
   A10        2.18511   -.00598    .00048   -.04409   -.04368   2.14143
   A11        2.19307    .00338   -.00359    .01825    .01450   2.20757
   A12        2.18689    .00456   -.00360    .02864    .02488   2.21177
   A13        1.90323   -.00794    .00720   -.04688   -.03938   1.86384
    D1         .00000    .00000    .00000    .00000    .00000    .00000
    D2        3.14159    .00000    .00000    .00000    .00000   3.14159
    D3        3.14159    .00000    .00000    .00000    .00000   3.14159
    D4         .00000    .00000    .00000    .00000    .00000    .00000
    D5        3.14159    .00000    .00000    .00000    .00000   3.14159
    D6         .00000    .00000    .00000    .00000    .00000    .00000
    D7         .00000    .00000    .00000    .00000    .00000    .00000
    D8        3.14159    .00000    .00000    .00000    .00000   3.14159
    D9         .00000    .00000    .00000    .00000    .00000    .00000
   D10        3.14159    .00000    .00000    .00000    .00000   3.14159
   D11        3.14159    .00000    .00000    .00000    .00000   3.14159
   D12         .00000    .00000    .00000    .00000    .00000    .00000
   D13        3.14159    .00000    .00000    .00000    .00000   3.14159
   D14         .00000    .00000    .00000    .00000    .00000    .00000
   D15         .00000    .00000    .00000    .00000    .00000    .00000
   D16        3.14159    .00000    .00000    .00000    .00000   3.14159
         Item               Value     Threshold  Converged?
 Maximum Force             .041061      .000450     NO 
 RMS     Force             .012509      .000300     NO 
 Maximum Displacement      .104071      .001800     NO 
 RMS     Displacement      .033431      .001200     NO 
 Predicted change in Energy=-7.842934D-03
 GradGradGradGradGradGradGradGradGradGradGradGradGradGradGradGradGradGrad

                          Input orientation:                          
 ---------------------------------------------------------------------
 Center     Atomic     Atomic              Coordinates (Angstroms)
 Number     Number      Type              X           Y           Z
 ---------------------------------------------------------------------
    1          7             0         .493816     .000000    1.130372
    2          1             0         .484673     .000000   -2.042923
    3          6             0       -1.013314     .000000    -.538707
    4          1             0       -1.893838     .000000   -1.141260
    5          6             0        -.844400     .000000     .819818
    6          1             0       -1.597766     .000000    1.575960
    7          1             0        2.180579     .000000    -.150143
    8          6             0        1.122595     .000000    -.020453
    9          7             0         .249971     .000000   -1.072157
 ---------------------------------------------------------------------
                    Distance matrix (angstroms):
                    1          2          3          4          5
     1  N     .000000
     2  H    3.173308    .000000
     3  C    2.248837   2.122882    .000000
     4  H    3.295634   2.543681   1.066955    .000000
     5  C    1.373779   3.156220   1.368987   2.224219    .000000
     6  H    2.138520   4.175269   2.193947   2.733303   1.067385
     7  H    2.117755   2.541399   3.217442   4.193231   3.176684
     8  C    1.311397   2.120690   2.197884   3.217931   2.138955
     9  N    2.215986    .998735   1.371297   2.144922   2.185685
                    6          7          8          9
     6  H     .000000
     7  H    4.153952    .000000
     8  C    3.154188   1.065902    .000000
     9  N    3.229033   2.139476   1.366585    .000000
 Stoichiometry    C3H4N2
 Framework group  CS[SG(C3H4N2)]
 Deg. of freedom   15
 Full point group                 CS      NOp   2
 Largest Abelian subgroup         CS      NOp   2
 Largest concise Abelian subgroup C1      NOp   1
                         Standard orientation:                         
 ---------------------------------------------------------------------
 Center     Atomic     Atomic              Coordinates (Angstroms)
 Number     Number      Type              X           Y           Z
 ---------------------------------------------------------------------
    1          7             0        -.736602    -.983110     .000000
    2          1             0        -.008619    2.105567     .000000
    3          6             0        1.109542     .301032     .000000
    4          1             0        2.103701     .688381     .000000
    5          6             0         .637177    -.983879     .000000
    6          1             0        1.199602   -1.891066     .000000
    7          1             0       -2.089318     .646320     .000000
    8          6             0       -1.088244     .280262     .000000
    9          7             0         .000000    1.106869     .000000
 ---------------------------------------------------------------------
 Rotational constants (GHZ):      9.8229968      9.4345767      4.8124348
 Isotopes: N-14,H-1,C-12,H-1,C-12,H-1,H-1,C-12,N-14
 Standard basis: 3-21G* (6D, 7F)
 There are    43 symmetry adapted basis functions of A'  symmetry.
 There are    10 symmetry adapted basis functions of A"  symmetry.
 Crude estimate of integral set expansion from redundant integrals=1.000.
 Integral buffers will be    262144 words long.
 Raffenetti 1 integral format.
 Two-electron integral symmetry is turned on.
    53 basis functions       87 primitive gaussians
    18 alpha electrons       18 beta electrons
       nuclear repulsion energy       163.6994683505 Hartrees.
 One-electron integrals computed using PRISM.
 NBasis=    53 RedAO= T  NBF=    43    10
 NBsUse=    53 1.00D-04 NBFU=    43    10
 Initial guess read from the read-write file:
 Initial guess orbital symmetries:
       Occupied  (A') (A') (A') (A') (A') (A') (A') (A') (A') (A')
                 (A') (A') (A") (A') (A') (A') (A") (A")
       Virtual   (A") (A') (A") (A') (A') (A') (A') (A') (A') (A')
                 (A') (A") (A') (A') (A") (A') (A") (A') (A') (A')
                 (A') (A') (A') (A") (A') (A") (A') (A') (A') (A')
                 (A') (A') (A') (A') (A')
 Requested convergence on RMS density matrix=1.00D-08 within  64 cycles.
 Requested convergence on MAX density matrix=1.00D-06.
 Keep R1 integrals in memory in canonical form, NReq=     1438530.
 SCF Done:  E(RHF) =  -223.548212284     A.U. after   12 cycles
             Convg  =     .9739D-08             -V/T =  2.0024
             S**2   =    .0000
 ***** Axes restored to original set *****
 -------------------------------------------------------------------
 Center     Atomic                   Forces (Hartrees/Bohr)
 Number     Number              X              Y              Z
 -------------------------------------------------------------------
    1          7            .012065255     .000000000    -.013184161
    2          1           -.000630054     .000000000     .004304034
    3          6           -.011452427     .000000000     .012889939
    4          1            .002333582     .000000000     .002247689
    5          6           -.019188318     .000000000    -.010006305
    6          1            .002246205     .000000000    -.002745419
    7          1           -.002106124     .000000000     .000073317
    8          6            .009147316     .000000000     .006165279
    9          7            .007584564     .000000000     .000255626
 -------------------------------------------------------------------
 Cartesian Forces:  Max      .019188318 RMS      .006967483

 GradGradGradGradGradGradGradGradGradGradGradGradGradGradGradGradGradGrad
 Berny optimization.
 Internal  Forces:  Max      .014562254 RMS      .004703220
 Search for a local minimum.
 Step number   3 out of a maximum of  48
 All quantities printed in internal units (Hartrees-Bohrs-Radians)
 Update second derivatives using information from points  1  2  3
 Trust test= 7.74D-01 RLast= 1.93D-01 DXMaxT set to 5.80D-01
     Eigenvalues ---     .03205    .03262    .03287    .03305    .03349
     Eigenvalues ---     .03404    .15326    .16000    .16001    .16007
     Eigenvalues ---     .22391    .26988    .42177    .49326    .49617
     Eigenvalues ---     .55880    .56454    .62283    .64782    .74767
     Eigenvalues ---     .804411000.000001000.000001000.000001000.00000
     Eigenvalues --- 1000.000001000.000001000.000001000.000001000.00000
     Eigenvalues --- 1000.000001000.000001000.000001000.000001000.00000
     Eigenvalues --- 1000.000001000.000001000.00000
 RFO step:  Lambda=-1.67178001D-03.
 Quartic linear search produced a step of  -.03510.
 Iteration  1 RMS(Cart)=   .01187868 RMS(Int)=   .00006931
 Iteration  2 RMS(Cart)=   .00006506 RMS(Int)=   .00001768
 Iteration  3 RMS(Cart)=   .00000000 RMS(Int)=   .00001768
 Variable       Old X    -DE/DX   Delta X   Delta X   Delta X     New X
                                 (Linear)    (Quad)   (Total)
    R1        2.59607    .01350   -.00235    .02786    .02554   2.62161
    R2        2.47818   -.00915   -.00022   -.01138   -.01160   2.46658
    R3        1.88734   -.00433   -.00133   -.00121   -.00254   1.88479
    R4        2.01625   -.00320   -.00169    .00092   -.00077   2.01548
    R5        2.58701   -.01456   -.00059   -.02000   -.02057   2.56644
    R6        2.59138    .01122   -.00249    .02494    .02243   2.61380
    R7        2.01707   -.00353   -.00167    .00010   -.00156   2.01550
    R8        2.01426   -.00210   -.00167    .00300    .00133   2.01559
    R9        2.58247   -.00101   -.00196    .00710    .00511   2.58758
    A1        1.84282    .00727    .00106    .02405    .02516   1.86798
    A2        2.29462    .00030   -.00172    .00638    .00466   2.29928
    A3        2.14192    .00138    .00197   -.00177    .00020   2.14212
    A4        1.84665   -.00168   -.00025   -.00461   -.00487   1.84179
    A5        1.92253   -.00315   -.00060   -.01011   -.01067   1.91186
    A6        2.12633    .00193    .00162    .00191    .00350   2.12983
    A7        2.23433    .00123   -.00102    .00821    .00717   2.24150
    A8        2.19282    .00386    .00007    .01689    .01697   2.20979
    A9        1.94893   -.00734   -.00160   -.02567   -.02729   1.92164
   A10        2.14143    .00349    .00153    .00878    .01032   2.15175
   A11        2.20757   -.00207   -.00051   -.00664   -.00713   2.20044
   A12        2.21177   -.00282   -.00087   -.00969   -.01054   2.20123
   A13        1.86384    .00490    .00138    .01634    .01767   1.88151
    D1         .00000    .00000    .00000    .00000    .00000    .00000
    D2        3.14159    .00000    .00000    .00000    .00000   3.14159
    D3        3.14159    .00000    .00000    .00000    .00000   3.14159
    D4         .00000    .00000    .00000    .00000    .00000    .00000
    D5        3.14159    .00000    .00000    .00000    .00000   3.14159
    D6         .00000    .00000    .00000    .00000    .00000    .00000
    D7         .00000    .00000    .00000    .00000    .00000    .00000
    D8        3.14159    .00000    .00000    .00000    .00000   3.14159
    D9         .00000    .00000    .00000    .00000    .00000    .00000
   D10        3.14159    .00000    .00000    .00000    .00000   3.14159
   D11        3.14159    .00000    .00000    .00000    .00000   3.14159
   D12         .00000    .00000    .00000    .00000    .00000    .00000
   D13        3.14159    .00000    .00000    .00000    .00000   3.14159
   D14         .00000    .00000    .00000    .00000    .00000    .00000
   D15         .00000    .00000    .00000    .00000    .00000    .00000
   D16        3.14159    .00000    .00000    .00000    .00000   3.14159
         Item               Value     Threshold  Converged?
 Maximum Force             .014562      .000450     NO 
 RMS     Force             .004703      .000300     NO 
 Maximum Displacement      .033084      .001800     NO 
 RMS     Displacement      .011872      .001200     NO 
 Predicted change in Energy=-8.406331D-04
 GradGradGradGradGradGradGradGradGradGradGradGradGradGradGradGradGradGrad

                          Input orientation:                          
 ---------------------------------------------------------------------
 Center     Atomic     Atomic              Coordinates (Angstroms)
 Number     Number      Type              X           Y           Z
 ---------------------------------------------------------------------
    1          7             0         .497522     .000000    1.108904
    2          1             0         .486028     .000000   -2.039844
    3          6             0       -1.023804     .000000    -.538821
    4          1             0       -1.900843     .000000   -1.145718
    5          6             0        -.856968     .000000     .808995
    6          1             0       -1.604729     .000000    1.569520
    7          1             0        2.198934     .000000    -.158820
    8          6             0        1.140508     .000000    -.026997
    9          7             0         .253306     .000000   -1.069984
 ---------------------------------------------------------------------
                    Distance matrix (angstroms):
                    1          2          3          4          5
     1  N     .000000
     2  H    3.148769    .000000
     3  C    2.242639   2.129005    .000000
     4  H    3.291728   2.548845   1.066547    .000000
     5  C    1.387295   3.149527   1.358102   2.215983    .000000
     6  H    2.152121   4.171184   2.186910   2.731337   1.066558
     7  H    2.121775   2.544072   3.245065   4.216888   3.205496
     8  C    1.305259   2.116577   2.224007   3.240579   2.165361
     9  N    2.192532    .997390   1.383165   2.155480   2.182492
                    6          7          8          9
     6  H     .000000
     7  H    4.177920    .000000
     8  C    3.175719   1.066604    .000000
     9  N    3.227891   2.148415   1.369288    .000000
 Stoichiometry    C3H4N2
 Framework group  CS[SG(C3H4N2)]
 Deg. of freedom   15
 Full point group                 CS      NOp   2
 Largest Abelian subgroup         CS      NOp   2
 Largest concise Abelian subgroup C1      NOp   1
                         Standard orientation:                         
 ---------------------------------------------------------------------
 Center     Atomic     Atomic              Coordinates (Angstroms)
 Number     Number      Type              X           Y           Z
 ---------------------------------------------------------------------
    1          7             0        -.740445    -.965291     .000000
    2          1             0        -.002625    2.095815     .000000
    3          6             0        1.120063     .286883     .000000
    4          1             0        2.113482     .675005     .000000
    5          6             0         .646694    -.986052     .000000
    6          1             0        1.198766   -1.898610     .000000
    7          1             0       -2.103382     .660850     .000000
    8          6             0       -1.103944     .288332     .000000
    9          7             0         .000000    1.098428     .000000
 ---------------------------------------------------------------------
 Rotational constants (GHZ):      9.6294295      9.5714324      4.8001717
 Isotopes: N-14,H-1,C-12,H-1,C-12,H-1,H-1,C-12,N-14
 Standard basis: 3-21G* (6D, 7F)
 There are    43 symmetry adapted basis functions of A'  symmetry.
 There are    10 symmetry adapted basis functions of A"  symmetry.
 Crude estimate of integral set expansion from redundant integrals=1.000.
 Integral buffers will be    262144 words long.
 Raffenetti 1 integral format.
 Two-electron integral symmetry is turned on.
    53 basis functions       87 primitive gaussians
    18 alpha electrons       18 beta electrons
       nuclear repulsion energy       163.4840332607 Hartrees.
 One-electron integrals computed using PRISM.
 NBasis=    53 RedAO= T  NBF=    43    10
 NBsUse=    53 1.00D-04 NBFU=    43    10
 Initial guess read from the read-write file:
 Initial guess orbital symmetries:
       Occupied  (A') (A') (A') (A') (A') (A') (A') (A') (A') (A')
                 (A') (A') (A') (A") (A') (A') (A") (A")
       Virtual   (A") (A") (A') (A') (A') (A') (A') (A') (A') (A')
                 (A') (A') (A") (A') (A") (A') (A") (A') (A') (A')
                 (A') (A') (A') (A") (A') (A') (A") (A') (A') (A')
                 (A') (A') (A') (A') (A')
 Requested convergence on RMS density matrix=1.00D-08 within  64 cycles.
 Requested convergence on MAX density matrix=1.00D-06.
 Keep R1 integrals in memory in canonical form, NReq=     1438530.
 SCF Done:  E(RHF) =  -223.548849517     A.U. after   11 cycles
             Convg  =     .5726D-08             -V/T =  2.0025
             S**2   =    .0000
 ***** Axes restored to original set *****
 -------------------------------------------------------------------
 Center     Atomic                   Forces (Hartrees/Bohr)
 Number     Number              X              Y              Z
 -------------------------------------------------------------------
    1          7            .007711123     .000000000     .001977683
    2          1           -.001232887     .000000000     .002361428
    3          6            .000512447     .000000000     .003931710
    4          1            .002600093     .000000000     .001425006
    5          6           -.003513935     .000000000    -.004645831
    6          1            .002781595     .000000000    -.001821893
    7          1           -.003066353     .000000000     .000386902
    8          6           -.009726089     .000000000     .004098579
    9          7            .003934006     .000000000    -.007713584
 -------------------------------------------------------------------
 Cartesian Forces:  Max      .009726089 RMS      .003527103

 GradGradGradGradGradGradGradGradGradGradGradGradGradGradGradGradGradGrad
 Berny optimization.
 Internal  Forces:  Max      .006137945 RMS      .002235100
 Search for a local minimum.
 Step number   4 out of a maximum of  48
 All quantities printed in internal units (Hartrees-Bohrs-Radians)
 Update second derivatives using information from points  1  2  3  4
 Trust test= 7.58D-01 RLast= 6.50D-02 DXMaxT set to 5.80D-01
     Eigenvalues ---     .03204    .03263    .03287    .03306    .03350
     Eigenvalues ---     .03405    .15137    .15998    .16001    .16029
     Eigenvalues ---     .22397    .32136    .49020    .49593    .49953
     Eigenvalues ---     .52644    .56660    .61251    .64228    .74509
     Eigenvalues ---     .789991000.000001000.000001000.000001000.00000
     Eigenvalues --- 1000.000001000.000001000.000001000.000001000.00000
     Eigenvalues --- 1000.000001000.000001000.000001000.000001000.00000
     Eigenvalues --- 1000.000001000.000001000.00000
 RFO step:  Lambda=-2.95089225D-04.
 Quartic linear search produced a step of  -.19578.
 Iteration  1 RMS(Cart)=   .00456698 RMS(Int)=   .00001680
 Iteration  2 RMS(Cart)=   .00001577 RMS(Int)=   .00000944
 Iteration  3 RMS(Cart)=   .00000000 RMS(Int)=   .00000944
 Variable       Old X    -DE/DX   Delta X   Delta X   Delta X     New X
                                 (Linear)    (Quad)   (Total)
    R1        2.62161    .00111   -.00500    .01110    .00609   2.62769
    R2        2.46658   -.00472    .00227   -.00872   -.00644   2.46014
    R3        1.88479   -.00258    .00050   -.00369   -.00319   1.88160
    R4        2.01548   -.00295    .00015   -.00400   -.00385   2.01163
    R5        2.56644   -.00321    .00403   -.01016   -.00615   2.56029
    R6        2.61380   -.00175   -.00439    .00723    .00284   2.61665
    R7        2.01550   -.00325    .00031   -.00487   -.00456   2.01094
    R8        2.01559   -.00309   -.00026   -.00349   -.00375   2.01184
    R9        2.58758   -.00113   -.00100    .00127    .00029   2.58787
    A1        1.86798   -.00489   -.00493   -.00614   -.01107   1.85692
    A2        2.29928   -.00034   -.00091    .00054   -.00037   2.29891
    A3        2.14212   -.00096   -.00004   -.00281   -.00284   2.13928
    A4        1.84179    .00130    .00095    .00227    .00321   1.84500
    A5        1.91186    .00169    .00209    .00223    .00429   1.91615
    A6        2.12983   -.00156   -.00069   -.00477   -.00544   2.12439
    A7        2.24150   -.00014   -.00140    .00254    .00115   2.24265
    A8        2.20979   -.00307   -.00332   -.00359   -.00692   2.20287
    A9        1.92164    .00614    .00534    .00877    .01413   1.93577
   A10        2.15175   -.00306   -.00202   -.00518   -.00721   2.14454
   A11        2.20044    .00151    .00140    .00133    .00271   2.20316
   A12        2.20123    .00273    .00206    .00580    .00786   2.20909
   A13        1.88151   -.00424   -.00346   -.00713   -.01057   1.87094
    D1         .00000    .00000    .00000    .00000    .00000    .00000
    D2        3.14159    .00000    .00000    .00000    .00000   3.14159
    D3        3.14159    .00000    .00000    .00000    .00000   3.14159
    D4         .00000    .00000    .00000    .00000    .00000    .00000
    D5        3.14159    .00000    .00000    .00000    .00000   3.14159
    D6         .00000    .00000    .00000    .00000    .00000    .00000
    D7         .00000    .00000    .00000    .00000    .00000    .00000
    D8        3.14159    .00000    .00000    .00000    .00000   3.14159
    D9         .00000    .00000    .00000    .00000    .00000    .00000
   D10        3.14159    .00000    .00000    .00000    .00000   3.14159
   D11        3.14159    .00000    .00000    .00000    .00000   3.14159
   D12         .00000    .00000    .00000    .00000    .00000    .00000
   D13        3.14159    .00000    .00000    .00000    .00000   3.14159
   D14         .00000    .00000    .00000    .00000    .00000    .00000
   D15         .00000    .00000    .00000    .00000    .00000    .00000
   D16        3.14159    .00000    .00000    .00000    .00000   3.14159
         Item               Value     Threshold  Converged?
 Maximum Force             .006138      .000450     NO 
 RMS     Force             .002235      .000300     NO 
 Maximum Displacement      .015581      .001800     NO 
 RMS     Displacement      .004570      .001200     NO 
 Predicted change in Energy=-1.875726D-04
 GradGradGradGradGradGradGradGradGradGradGradGradGradGradGradGradGradGrad

                          Input orientation:                          
 ---------------------------------------------------------------------
 Center     Atomic     Atomic              Coordinates (Angstroms)
 Number     Number      Type              X           Y           Z
 ---------------------------------------------------------------------
    1          7             0         .501125     .000000    1.113914
    2          1             0         .486115     .000000   -2.041273
    3          6             0       -1.022099     .000000    -.536679
    4          1             0       -1.897852     .000000   -1.141852
    5          6             0        -.855292     .000000     .807860
    6          1             0       -1.600276     .000000    1.567728
    7          1             0        2.190867     .000000    -.155231
    8          6             0        1.134428     .000000    -.023516
    9          7             0         .254538     .000000   -1.072876
 ---------------------------------------------------------------------
                    Distance matrix (angstroms):
                    1          2          3          4          5
     1  N     .000000
     2  H    3.155223    .000000
     3  C    2.246034   2.130379    .000000
     4  H    3.292957   2.547990   1.064508    .000000
     5  C    1.390516   3.149117   1.354847   2.210952    .000000
     6  H    2.149844   4.168682   2.182388   2.725871   1.064142
     7  H    2.113281   2.542310   3.235530   4.206072   3.194782
     8  C    1.301853   2.119353   2.216743   3.231934   2.156426
     9  N    2.200649    .995701   1.384669   2.153494   2.183779
                    6          7          8          9
     6  H     .000000
     7  H    4.164295    .000000
     8  C    3.163963   1.064618    .000000
     9  N    3.226937   2.142766   1.369440    .000000
 Stoichiometry    C3H4N2
 Framework group  CS[SG(C3H4N2)]
 Deg. of freedom   15
 Full point group                 CS      NOp   2
 Largest Abelian subgroup         CS      NOp   2
 Largest concise Abelian subgroup C1      NOp   1
                         Standard orientation:                         
 ---------------------------------------------------------------------
 Center     Atomic     Atomic              Coordinates (Angstroms)
 Number     Number      Type              X           Y           Z
 ---------------------------------------------------------------------
    1          7             0        -.744151    -.968354     .000000
    2          1             0        -.002054    2.098359     .000000
    3          6             0        1.118608     .286556     .000000
    4          1             0        2.110298     .673501     .000000
    5          6             0         .646285    -.983295     .000000
    6          1             0        1.195993   -1.894459     .000000
    7          1             0       -2.095738     .656198     .000000
    8          6             0       -1.098134     .284450     .000000
    9          7             0         .000000    1.102660     .000000
 ---------------------------------------------------------------------
 Rotational constants (GHZ):      9.6608412      9.5529838      4.8033049
 Isotopes: N-14,H-1,C-12,H-1,C-12,H-1,H-1,C-12,N-14
 Standard basis: 3-21G* (6D, 7F)
 There are    43 symmetry adapted basis functions of A'  symmetry.
 There are    10 symmetry adapted basis functions of A"  symmetry.
 Crude estimate of integral set expansion from redundant integrals=1.000.
 Integral buffers will be    262144 words long.
 Raffenetti 1 integral format.
 Two-electron integral symmetry is turned on.
    53 basis functions       87 primitive gaussians
    18 alpha electrons       18 beta electrons
       nuclear repulsion energy       163.5600473947 Hartrees.
 One-electron integrals computed using PRISM.
 NBasis=    53 RedAO= T  NBF=    43    10
 NBsUse=    53 1.00D-04 NBFU=    43    10
 Initial guess read from the read-write file:
 Initial guess orbital symmetries:
       Occupied  (A') (A') (A') (A') (A') (A') (A') (A') (A') (A')
                 (A') (A') (A') (A") (A') (A') (A") (A")
       Virtual   (A") (A") (A') (A') (A') (A') (A') (A') (A') (A')
                 (A') (A') (A") (A') (A") (A') (A") (A') (A') (A')
                 (A') (A') (A') (A") (A') (A') (A") (A') (A') (A')
                 (A') (A') (A') (A') (A')
 Requested convergence on RMS density matrix=1.00D-08 within  64 cycles.
 Requested convergence on MAX density matrix=1.00D-06.
 Keep R1 integrals in memory in canonical form, NReq=     1438530.
 SCF Done:  E(RHF) =  -223.549081744     A.U. after   11 cycles
             Convg  =     .9293D-08             -V/T =  2.0024
             S**2   =    .0000
 ***** Axes restored to original set *****
 -------------------------------------------------------------------
 Center     Atomic                   Forces (Hartrees/Bohr)
 Number     Number              X              Y              Z
 -------------------------------------------------------------------
    1          7            .002798927     .000000000    -.000614537
    2          1           -.000383089     .000000000     .001182393
    3          6            .000586707     .000000000     .001366298
    4          1            .001039133     .000000000     .000761479
    5          6           -.003216779     .000000000    -.001319023
    6          1            .001072968     .000000000    -.000744856
    7          1           -.001152202     .000000000     .000091732
    8          6           -.002189537     .000000000     .000455637
    9          7            .001443872     .000000000    -.001179122
 -------------------------------------------------------------------
 Cartesian Forces:  Max      .003216779 RMS      .001174315

 GradGradGradGradGradGradGradGradGradGradGradGradGradGradGradGradGradGrad
 Berny optimization.
 Internal  Forces:  Max      .001791576 RMS      .000722234
 Search for a local minimum.
 Step number   5 out of a maximum of  48
 All quantities printed in internal units (Hartrees-Bohrs-Radians)
 Update second derivatives using information from points  1  2  3  4  5

 Trust test= 1.24D+00 RLast= 2.92D-02 DXMaxT set to 5.80D-01
     Eigenvalues ---     .03204    .03263    .03287    .03305    .03350
     Eigenvalues ---     .03404    .14895    .15924    .16002    .16033
     Eigenvalues ---     .21398    .30013    .47244    .49217    .49604
     Eigenvalues ---     .50105    .56621    .60102    .64652    .70122
     Eigenvalues ---     .764791000.000001000.000001000.000001000.00000
     Eigenvalues --- 1000.000001000.000001000.000001000.000001000.00000
     Eigenvalues --- 1000.000001000.000001000.000001000.000001000.00000
     Eigenvalues --- 1000.000001000.000001000.00000
 RFO step:  Lambda=-2.48389293D-05.
 Quartic linear search produced a step of   .31175.
 Iteration  1 RMS(Cart)=   .00182126 RMS(Int)=   .00000367
 Iteration  2 RMS(Cart)=   .00000241 RMS(Int)=   .00000308
 Iteration  3 RMS(Cart)=   .00000000 RMS(Int)=   .00000308
 Variable       Old X    -DE/DX   Delta X   Delta X   Delta X     New X
                                 (Linear)    (Quad)   (Total)
    R1        2.62769    .00125    .00190    .00310    .00499   2.63269
    R2        2.46014   -.00165   -.00201   -.00159   -.00360   2.45655
    R3        1.88160   -.00124   -.00100   -.00152   -.00251   1.87909
    R4        2.01163   -.00129   -.00120   -.00175   -.00295   2.00868
    R5        2.56029   -.00179   -.00192   -.00252   -.00444   2.55585
    R6        2.61665   -.00045    .00089    .00046    .00135   2.61799
    R7        2.01094   -.00128   -.00142   -.00164   -.00307   2.00787
    R8        2.01184   -.00115   -.00117   -.00130   -.00247   2.00937
    R9        2.58787   -.00145    .00009   -.00202   -.00192   2.58594
    A1        1.85692   -.00068   -.00345    .00188   -.00157   1.85534
    A2        2.29891   -.00035   -.00012   -.00175   -.00187   2.29704
    A3        2.13928   -.00028   -.00089   -.00064   -.00152   2.13775
    A4        1.84500    .00064    .00100    .00239    .00339   1.84839
    A5        1.91615   -.00043    .00134   -.00336   -.00204   1.91411
    A6        2.12439   -.00003   -.00170    .00044   -.00126   2.12313
    A7        2.24265    .00046    .00036    .00293    .00329   2.24595
    A8        2.20287   -.00049   -.00216    .00079   -.00137   2.20150
    A9        1.93577    .00109    .00441   -.00052    .00389   1.93967
   A10        2.14454   -.00060   -.00225   -.00027   -.00252   2.14202
   A11        2.20316    .00021    .00085    .00027    .00112   2.20427
   A12        2.20909    .00040    .00245    .00011    .00256   2.21164
   A13        1.87094   -.00061   -.00329   -.00038   -.00367   1.86727
    D1         .00000    .00000    .00000    .00000    .00000    .00000
    D2        3.14159    .00000    .00000    .00000    .00000   3.14159
    D3        3.14159    .00000    .00000    .00000    .00000   3.14159
    D4         .00000    .00000    .00000    .00000    .00000    .00000
    D5        3.14159    .00000    .00000    .00000    .00000   3.14159
    D6         .00000    .00000    .00000    .00000    .00000    .00000
    D7         .00000    .00000    .00000    .00000    .00000    .00000
    D8        3.14159    .00000    .00000    .00000    .00000   3.14159
    D9         .00000    .00000    .00000    .00000    .00000    .00000
   D10        3.14159    .00000    .00000    .00000    .00000   3.14159
   D11        3.14159    .00000    .00000    .00000    .00000   3.14159
   D12         .00000    .00000    .00000    .00000    .00000    .00000
   D13        3.14159    .00000    .00000    .00000    .00000   3.14159
   D14         .00000    .00000    .00000    .00000    .00000    .00000
   D15         .00000    .00000    .00000    .00000    .00000    .00000
   D16        3.14159    .00000    .00000    .00000    .00000   3.14159
         Item               Value     Threshold  Converged?
 Maximum Force             .001792      .000450     NO 
 RMS     Force             .000722      .000300     NO 
 Maximum Displacement      .006089      .001800     NO 
 RMS     Displacement      .001822      .001200     NO 
 Predicted change in Energy=-2.629070D-05
 GradGradGradGradGradGradGradGradGradGradGradGradGradGradGradGradGradGrad

                          Input orientation:                          
 ---------------------------------------------------------------------
 Center     Atomic     Atomic              Coordinates (Angstroms)
 Number     Number      Type              X           Y           Z
 ---------------------------------------------------------------------
    1          7             0         .501872     .000000    1.113342
    2          1             0         .486129     .000000   -2.041192
    3          6             0       -1.021205     .000000    -.535562
    4          1             0       -1.895679     .000000   -1.139837
    5          6             0        -.857177     .000000     .806952
    6          1             0       -1.599933     .000000    1.566729
    7          1             0        2.187347     .000000    -.155490
    8          6             0        1.132256     .000000    -.023533
    9          7             0         .255265     .000000   -1.073992
 ---------------------------------------------------------------------
                    Distance matrix (angstroms):
                    1          2          3          4          5
     1  N     .000000
     2  H    3.154574    .000000
     3  C    2.244693   2.130488    .000000
     4  H    3.290147   2.546655   1.062946    .000000
     5  C    1.393158   3.149032   1.352497   2.206462    .000000
     6  H    2.150149   4.167583   2.180493   2.722676   1.062519
     7  H    2.109683   2.539688   3.230984   4.200005   3.193028
     8  C    1.299950   2.118591   2.213497   3.227155   2.155818
     9  N    2.201192    .994372   1.385381   2.151952   2.185287
                    6          7          8          9
     6  H     .000000
     7  H    4.160472    .000000
     8  C    3.161296   1.063311    .000000
     9  N    3.227253   2.139296   1.368421    .000000
 Stoichiometry    C3H4N2
 Framework group  CS[SG(C3H4N2)]
 Deg. of freedom   15
 Full point group                 CS      NOp   2
 Largest Abelian subgroup         CS      NOp   2
 Largest concise Abelian subgroup C1      NOp   1
                         Standard orientation:                         
 ---------------------------------------------------------------------
 Center     Atomic     Atomic              Coordinates (Angstroms)
 Number     Number      Type              X           Y           Z
 ---------------------------------------------------------------------
    1          7             0        -.745748    -.967306     .000000
    2          1             0        -.000939    2.098081     .000000
    3          6             0        1.117356     .284687     .000000
    4          1             0        2.107867     .670359     .000000
    5          6             0         .647316    -.983504     .000000
    6          1             0        1.194238   -1.894450     .000000
    7          1             0       -2.092116     .656903     .000000
    8          6             0       -1.096140     .284531     .000000
    9          7             0         .000000    1.103709     .000000
 ---------------------------------------------------------------------
 Rotational constants (GHZ):      9.6631778      9.5641350      4.8067007
 Isotopes: N-14,H-1,C-12,H-1,C-12,H-1,H-1,C-12,N-14
 Standard basis: 3-21G* (6D, 7F)
 There are    43 symmetry adapted basis functions of A'  symmetry.
 There are    10 symmetry adapted basis functions of A"  symmetry.
 Crude estimate of integral set expansion from redundant integrals=1.000.
 Integral buffers will be    262144 words long.
 Raffenetti 1 integral format.
 Two-electron integral symmetry is turned on.
    53 basis functions       87 primitive gaussians
    18 alpha electrons       18 beta electrons
       nuclear repulsion energy       163.6293103619 Hartrees.
 One-electron integrals computed using PRISM.
 NBasis=    53 RedAO= T  NBF=    43    10
 NBsUse=    53 1.00D-04 NBFU=    43    10
 Initial guess read from the read-write file:
 Initial guess orbital symmetries:
       Occupied  (A') (A') (A') (A') (A') (A') (A') (A') (A') (A')
                 (A') (A') (A') (A") (A') (A') (A") (A")
       Virtual   (A") (A") (A') (A') (A') (A') (A') (A') (A') (A')
                 (A') (A') (A") (A') (A") (A') (A") (A') (A') (A')
                 (A') (A') (A') (A") (A') (A') (A") (A') (A') (A')
                 (A') (A') (A') (A') (A')
 Requested convergence on RMS density matrix=1.00D-08 within  64 cycles.
 Requested convergence on MAX density matrix=1.00D-06.
 Keep R1 integrals in memory in canonical form, NReq=     1438530.
 SCF Done:  E(RHF) =  -223.549107733     A.U. after   10 cycles
             Convg  =     .4951D-08             -V/T =  2.0023
             S**2   =    .0000
 ***** Axes restored to original set *****
 -------------------------------------------------------------------
 Center     Atomic                   Forces (Hartrees/Bohr)
 Number     Number              X              Y              Z
 -------------------------------------------------------------------
    1          7            .000686051     .000000000     .000322778
    2          1           -.000043588     .000000000     .000023501
    3          6            .000135805     .000000000    -.000631466
    4          1           -.000047946     .000000000    -.000002055
    5          6           -.000321765     .000000000    -.000338686
    6          1            .000082609     .000000000    -.000006206
    7          1            .000020753     .000000000     .000047955
    8          6           -.000168067     .000000000    -.000344281
    9          7           -.000343853     .000000000     .000928460
 -------------------------------------------------------------------
 Cartesian Forces:  Max      .000928460 RMS      .000295126

 GradGradGradGradGradGradGradGradGradGradGradGradGradGradGradGradGradGrad
 Berny optimization.
 Internal  Forces:  Max      .000541124 RMS      .000182023
 Search for a local minimum.
 Step number   6 out of a maximum of  48
 All quantities printed in internal units (Hartrees-Bohrs-Radians)
 Update second derivatives using information from points  1  2  3  4  5
                                                        6
 Trust test= 9.89D-01 RLast= 1.32D-02 DXMaxT set to 5.80D-01
     Eigenvalues ---     .03204    .03263    .03287    .03305    .03350
     Eigenvalues ---     .03404    .14699    .15787    .16004    .16040
     Eigenvalues ---     .24706    .27766    .45281    .49358    .49610
     Eigenvalues ---     .50161    .56907    .59237    .63805    .71344
     Eigenvalues ---     .762321000.000001000.000001000.000001000.00000
     Eigenvalues --- 1000.000001000.000001000.000001000.000001000.00000
     Eigenvalues --- 1000.000001000.000001000.000001000.000001000.00000
     Eigenvalues --- 1000.000001000.000001000.00000
 RFO step:  Lambda=-3.17307545D-06.
 Quartic linear search produced a step of  -.01454.
 Iteration  1 RMS(Cart)=   .00057440 RMS(Int)=   .00000019
 Iteration  2 RMS(Cart)=   .00000023 RMS(Int)=   .00000004
 Variable       Old X    -DE/DX   Delta X   Delta X   Delta X     New X
                                 (Linear)    (Quad)   (Total)
    R1        2.63269    .00054   -.00007    .00114    .00107   2.63376
    R2        2.45655   -.00013    .00005   -.00042   -.00037   2.45618
    R3        1.87909   -.00003    .00004   -.00023   -.00019   1.87890
    R4        2.00868    .00004    .00004   -.00013   -.00009   2.00859
    R5        2.55585    .00004    .00006   -.00020   -.00014   2.55571
    R6        2.61799   -.00054   -.00002   -.00068   -.00070   2.61729
    R7        2.00787   -.00006    .00004   -.00035   -.00030   2.00757
    R8        2.00937    .00001    .00004   -.00016   -.00012   2.00925
    R9        2.58594   -.00021    .00003   -.00051   -.00048   2.58546
    A1        1.85534   -.00034    .00002   -.00112   -.00110   1.85424
    A2        2.29704    .00012    .00003    .00046    .00049   2.29753
    A3        2.13775    .00017    .00002    .00073    .00075   2.13851
    A4        1.84839   -.00029   -.00005   -.00119   -.00124   1.84714
    A5        1.91411    .00016    .00003    .00102    .00105   1.91516
    A6        2.12313   -.00014    .00002   -.00103   -.00101   2.12212
    A7        2.24595   -.00003   -.00005    .00001   -.00004   2.24591
    A8        2.20150   -.00006    .00002   -.00036   -.00034   2.20116
    A9        1.93967    .00002   -.00006    .00020    .00014   1.93981
   A10        2.14202    .00004    .00004    .00016    .00020   2.14222
   A11        2.20427   -.00026   -.00002   -.00083   -.00084   2.20343
   A12        2.21164   -.00019   -.00004   -.00028   -.00031   2.21133
   A13        1.86727    .00045    .00005    .00110    .00116   1.86843
    D1         .00000    .00000    .00000    .00000    .00000    .00000
    D2        3.14159    .00000    .00000    .00000    .00000   3.14159
    D3        3.14159    .00000    .00000    .00000    .00000   3.14159
    D4         .00000    .00000    .00000    .00000    .00000    .00000
    D5        3.14159    .00000    .00000    .00000    .00000   3.14159
    D6         .00000    .00000    .00000    .00000    .00000    .00000
    D7         .00000    .00000    .00000    .00000    .00000    .00000
    D8        3.14159    .00000    .00000    .00000    .00000   3.14159
    D9         .00000    .00000    .00000    .00000    .00000    .00000
   D10        3.14159    .00000    .00000    .00000    .00000   3.14159
   D11        3.14159    .00000    .00000    .00000    .00000   3.14159
   D12         .00000    .00000    .00000    .00000    .00000    .00000
   D13        3.14159    .00000    .00000    .00000    .00000   3.14159
   D14         .00000    .00000    .00000    .00000    .00000    .00000
   D15         .00000    .00000    .00000    .00000    .00000    .00000
   D16        3.14159    .00000    .00000    .00000    .00000   3.14159
         Item               Value     Threshold  Converged?
 Maximum Force             .000541      .000450     NO 
 RMS     Force             .000182      .000300     YES
 Maximum Displacement      .001468      .001800     YES
 RMS     Displacement      .000574      .001200     YES
 Predicted change in Energy=-1.592097D-06
 GradGradGradGradGradGradGradGradGradGradGradGradGradGradGradGradGradGrad

                          Input orientation:                          
 ---------------------------------------------------------------------
 Center     Atomic     Atomic              Coordinates (Angstroms)
 Number     Number      Type              X           Y           Z
 ---------------------------------------------------------------------
    1          7             0         .502447     .000000    1.113862
    2          1             0         .485746     .000000   -2.040216
    3          6             0       -1.021597     .000000    -.535828
    4          1             0       -1.896008     .000000   -1.140109
    5          6             0        -.856971     .000000     .806541
    6          1             0       -1.599299     .000000    1.566511
    7          1             0        2.187171     .000000    -.155283
    8          6             0        1.132165     .000000    -.023159
    9          7             0         .254955     .000000   -1.073103
 ---------------------------------------------------------------------
                    Distance matrix (angstroms):
                    1          2          3          4          5
     1  N     .000000
     2  H    3.154122    .000000
     3  C    2.245927   2.129616    .000000
     4  H    3.291348   2.546162   1.062898    .000000
     5  C    1.393724   3.147524   1.352425   2.206590    .000000
     6  H    2.149937   4.166040   2.180268   2.722835   1.062358
     7  H    2.109271   2.539255   3.231254   4.200265   3.192477
     8  C    1.299755   2.118106   2.213937   3.227601   2.155242
     9  N    2.200925    .994269   1.385009   2.152006   2.183905
                    6          7          8          9
     6  H     .000000
     7  H    4.159558    .000000
     8  C    3.160371   1.063247    .000000
     9  N    3.225805   2.139124   1.368166    .000000
 Stoichiometry    C3H4N2
 Framework group  CS[SG(C3H4N2)]
 Deg. of freedom   15
 Full point group                 CS      NOp   2
 Largest Abelian subgroup         CS      NOp   2
 Largest concise Abelian subgroup C1      NOp   1
                         Standard orientation:                         
 ---------------------------------------------------------------------
 Center     Atomic     Atomic              Coordinates (Angstroms)
 Number     Number      Type              X           Y           Z
 ---------------------------------------------------------------------
    1          7             0        -.746242    -.967544     .000000
    2          1             0        -.001024    2.097278     .000000
    3          6             0        1.117815     .285244     .000000
    4          1             0        2.108213     .671072     .000000
    5          6             0         .647399    -.982731     .000000
    6          1             0        1.193984   -1.893692     .000000
    7          1             0       -2.092028     .656612     .000000
    8          6             0       -1.096122     .284233     .000000
    9          7             0         .000000    1.103009     .000000
 ---------------------------------------------------------------------
 Rotational constants (GHZ):      9.6693997      9.5604789      4.8073154
 Isotopes: N-14,H-1,C-12,H-1,C-12,H-1,H-1,C-12,N-14
 Standard basis: 3-21G* (6D, 7F)
 There are    43 symmetry adapted basis functions of A'  symmetry.
 There are    10 symmetry adapted basis functions of A"  symmetry.
 Crude estimate of integral set expansion from redundant integrals=1.000.
 Integral buffers will be    262144 words long.
 Raffenetti 1 integral format.
 Two-electron integral symmetry is turned on.
    53 basis functions       87 primitive gaussians
    18 alpha electrons       18 beta electrons
       nuclear repulsion energy       163.6404943417 Hartrees.
 One-electron integrals computed using PRISM.
 NBasis=    53 RedAO= T  NBF=    43    10
 NBsUse=    53 1.00D-04 NBFU=    43    10
 Initial guess read from the read-write file:
 Initial guess orbital symmetries:
       Occupied  (A') (A') (A') (A') (A') (A') (A') (A') (A') (A')
                 (A') (A') (A') (A") (A') (A') (A") (A")
       Virtual   (A") (A") (A') (A') (A') (A') (A') (A') (A') (A')
                 (A') (A') (A") (A') (A") (A') (A") (A') (A') (A')
                 (A') (A') (A') (A") (A') (A') (A") (A') (A') (A')
                 (A') (A') (A') (A') (A')
 Requested convergence on RMS density matrix=1.00D-08 within  64 cycles.
 Requested convergence on MAX density matrix=1.00D-06.
 Keep R1 integrals in memory in canonical form, NReq=     1438530.
 SCF Done:  E(RHF) =  -223.549108936     A.U. after    9 cycles
             Convg  =     .4878D-08             -V/T =  2.0023
             S**2   =    .0000
 ***** Axes restored to original set *****
 -------------------------------------------------------------------
 Center     Atomic                   Forces (Hartrees/Bohr)
 Number     Number              X              Y              Z
 -------------------------------------------------------------------
    1          7           -.000012325     .000000000     .000112751
    2          1            .000048637     .000000000    -.000083966
    3          6            .000460595     .000000000    -.000097349
    4          1           -.000048661     .000000000    -.000014655
    5          6           -.000412530     .000000000     .000255169
[...]
   5   6      .03   -.13    .00     -.10   -.18    .00     -.02    .04    .00
   6   1     -.05   -.22    .00      .41    .09    .00      .26   -.45    .00
   7   1     -.32   -.54    .00      .22    .20    .00      .73   -.27    .00
   8   6     -.01    .25    .00      .06   -.16    .00     -.07    .02    .00
   9   7      .01   -.10    .00     -.13   -.01    .00      .00    .00    .00
                    19                     20                     21
                    A'                     A'                     A'
 Frequencies --  3468.1020              3495.0649              3857.4574
 Red. masses --     1.0948                 1.1099                 1.0823
 Frc consts  --     7.7583                 7.9879                 9.4888
 IR Inten    --      .0967                 1.9280               103.9868
 Raman Activ --    51.5448               105.6110                78.6808
 Depolar     --      .5404                  .1144                  .3002
 Atom AN      X      Y      Z        X      Y      Z        X      Y      Z
   1   7      .00    .00    .00      .00    .00    .00      .00    .00    .00
   2   1     -.01    .00    .00      .00   -.02    .00      .00   1.00    .00
   3   6     -.05   -.02    .00     -.06   -.03    .00      .00    .00    .00
   4   1      .58    .23    .00      .65    .26    .00      .02    .00    .00
   5   6      .02   -.04    .00     -.03    .06    .00      .00    .00    .00
   6   1     -.25    .43    .00      .35   -.60    .00      .00    .00    .00
   7   1      .56   -.21    .00     -.15    .05    .00     -.02    .00    .00
   8   6     -.05    .02    .00      .02   -.01    .00      .00    .00    .00
   9   7      .00    .00    .00      .00    .00    .00      .00   -.08    .00

 -------------------
 - Thermochemistry -
 -------------------
 Temperature   298.150 Kelvin.  Pressure   1.00000 Atm.
 Atom  1 has atomic number  7 and mass  14.00307
 Atom  2 has atomic number  1 and mass   1.00783
 Atom  3 has atomic number  6 and mass  12.00000
 Atom  4 has atomic number  1 and mass   1.00783
 Atom  5 has atomic number  6 and mass  12.00000
 Atom  6 has atomic number  1 and mass   1.00783
 Atom  7 has atomic number  1 and mass   1.00783
 Atom  8 has atomic number  6 and mass  12.00000
 Atom  9 has atomic number  7 and mass  14.00307
 Molecular mass:    68.03745 amu.
 Principal axes and moments of inertia in atomic units:
                           1         2         3
     EIGENVALUES --   186.64459 188.77100 375.41559
           X             .68487    .72866    .00000
           Y             .72866   -.68487    .00000
           Z             .00000    .00000   1.00000
 THIS MOLECULE IS AN ASYMMETRIC TOP.
 ROTATIONAL SYMMETRY NUMBER  1.
 ROTATIONAL TEMPERATURES (KELVIN)       .46406      .45883      .23071
 ROTATIONAL CONSTANTS (GHZ)            9.66940     9.56048     4.80732
 Zero-point vibrational energy     202695.8 (Joules/Mol)
                                   48.44547 (Kcal/Mol)
 VIBRATIONAL TEMPERATURES:   1014.47  1056.89  1070.47  1305.95  1444.68
          (KELVIN)           1464.18  1503.77  1550.68  1615.36  1654.40
                             1680.44  1799.62  2008.28  2081.74  2203.79
                             2316.25  2429.51  4988.26  4989.80  5028.59
                             5549.99
 
 Zero-point correction=                            .077203 (Hartree/Particle)
 Thermal correction to Energy=                     .080622
 Thermal correction to Enthalpy=                   .081566
 Thermal correction to Gibbs Free Energy=          .051064
 Sum of electronic and zero-point Energies=           -223.471906
 Sum of electronic and thermal Energies=              -223.468487
 Sum of electronic and thermal Enthalpies=            -223.467543
 Sum of electronic and thermal Free Energies=         -223.498045
 
                     E (Thermal)             CV                S
                      KCAL/MOL        CAL/MOL-KELVIN    CAL/MOL-KELVIN
 TOTAL                   50.591             11.399             64.197
 ELECTRONIC                .000               .000               .000
 TRANSLATIONAL             .889              2.981             38.570
 ROTATIONAL                .889              2.981             24.096
 VIBRATIONAL             48.814              5.437              1.531
                       Q            LOG10(Q)             LN(Q)
 TOTAL BOT        .325242D-23        -23.487793        -54.082642
 TOTAL V=0        .105384D+13         12.022775         27.683463
 VIB (BOT)        .358132D-35        -35.445956        -81.617331
 VIB (V=0)        .116041D+01           .064612           .148775
 ELECTRONIC       .100000D+01           .000000           .000000
 TRANSLATIONAL    .220588D+08          7.343582         16.909224
 ROTATIONAL       .411700D+05          4.614581         10.625465
 ***** Axes restored to original set *****
 -------------------------------------------------------------------
 Center     Atomic                   Forces (Hartrees/Bohr)
 Number     Number              X              Y              Z
 -------------------------------------------------------------------
    1          7           -.000012326     .000000000     .000112756
    2          1            .000048638     .000000000    -.000083966
    3          6            .000460593     .000000000    -.000097350
    4          1           -.000048659     .000000000    -.000014653
    5          6           -.000412528     .000000000     .000255165
    6          1           -.000049517     .000000000     .000073381
    7          1            .000072640     .000000000    -.000018459
    8          6            .000023817     .000000000    -.000395072
    9          7           -.000082658     .000000000     .000168198
 -------------------------------------------------------------------
 Cartesian Forces:  Max      .000460593 RMS      .000159513

 GradGradGradGradGradGradGradGradGradGradGradGradGradGradGradGradGradGrad
 Berny optimization.
 Internal  Forces:  Max      .000312972 RMS      .000103073
 Search for a local minimum.
 Step number   1 out of a maximum of  48
 All quantities printed in internal units (Hartrees-Bohrs-Radians)
 Second derivative matrix not updated -- analytic derivatives used.
     Eigenvalues ---     .00975    .01781    .02912    .03568    .07609
     Eigenvalues ---     .07716    .11616    .12309    .12922    .13565
     Eigenvalues ---     .25263    .26517    .35218    .41952    .42368
     Eigenvalues ---     .42465    .45194    .48340    .53007    .55732
     Eigenvalues ---     .652361000.000001000.000001000.000001000.00000
     Eigenvalues --- 1000.000001000.000001000.000001000.000001000.00000
     Eigenvalues --- 1000.000001000.000001000.000001000.000001000.00000
     Eigenvalues --- 1000.000001000.000001000.00000
 Angle between quadratic step and forces=  22.53 degrees.
 Linear search not attempted -- first point.
 Iteration  1 RMS(Cart)=   .00027093 RMS(Int)=   .00000006
 Iteration  2 RMS(Cart)=   .00000006 RMS(Int)=   .00000003
 Variable       Old X    -DE/DX   Delta X   Delta X   Delta X     New X
                                 (Linear)    (Quad)   (Total)
    R1        2.63376    .00015    .00000    .00052    .00052   2.63427
    R2        2.45618    .00031    .00000    .00046    .00046   2.45664
    R3        1.87890    .00009    .00000    .00018    .00018   1.87907
    R4        2.00859    .00005    .00000    .00015    .00015   2.00874
    R5        2.55571    .00016    .00000    .00030    .00030   2.55601
    R6        2.61729   -.00009    .00000   -.00056   -.00056   2.61672
    R7        2.00757    .00009    .00000    .00016    .00016   2.00772
    R8        2.00925    .00007    .00000    .00017    .00017   2.00941
    R9        2.58546   -.00019    .00000   -.00038   -.00038   2.58508
    A1        1.85424    .00007    .00000    .00015    .00015   1.85440
    A2        2.29753   -.00013    .00000   -.00050   -.00050   2.29703
    A3        2.13851   -.00009    .00000   -.00009   -.00009   2.13841
    A4        1.84714    .00022    .00000    .00059    .00059   1.84774
    A5        1.91516   -.00027    .00000   -.00074   -.00074   1.91442
    A6        2.12212    .00012    .00000    .00018    .00018   2.12230
    A7        2.24591    .00015    .00000    .00055    .00055   2.24646
    A8        2.20116    .00002    .00000   -.00005   -.00005   2.20111
    A9        1.93981   -.00003    .00000   -.00006   -.00006   1.93974
   A10        2.14222    .00000    .00000    .00011    .00011   2.14233
   A11        2.20343    .00002    .00000    .00011    .00011   2.20354
   A12        2.21133   -.00003    .00000   -.00016   -.00016   2.21117
   A13        1.86843    .00001    .00000    .00006    .00006   1.86848
    D1         .00000    .00000    .00000    .00000    .00000    .00000
    D2        3.14159    .00000    .00000    .00000    .00000   3.14159
    D3        3.14159    .00000    .00000    .00000    .00000   3.14159
    D4         .00000    .00000    .00000    .00000    .00000    .00000
    D5        3.14159    .00000    .00000    .00000    .00000   3.14159
    D6         .00000    .00000    .00000    .00000    .00000    .00000
    D7         .00000    .00000    .00000    .00000    .00000    .00000
    D8        3.14159    .00000    .00000    .00000    .00000   3.14159
    D9         .00000    .00000    .00000    .00000    .00000    .00000
   D10        3.14159    .00000    .00000    .00000    .00000   3.14159
   D11        3.14159    .00000    .00000    .00000    .00000   3.14159
   D12         .00000    .00000    .00000    .00000    .00000    .00000
   D13        3.14159    .00000    .00000    .00000    .00000   3.14159
   D14         .00000    .00000    .00000    .00000    .00000    .00000
   D15         .00000    .00000    .00000    .00000    .00000    .00000
   D16        3.14159    .00000    .00000    .00000    .00000   3.14159
         Item               Value     Threshold  Converged?
 Maximum Force             .000313      .000450     YES
 RMS     Force             .000103      .000300     YES
 Maximum Displacement      .000735      .001800     YES
 RMS     Displacement      .000271      .001200     YES
 Predicted change in Energy=-4.829164D-07
 Optimization completed.
    -- Stationary point found.
                         ----------------------------
                         !   Optimized Parameters   !
                         ! (Angstroms and Degrees)  !
 ------------------------                            -------------------------
 ! Name  Definition              Value          Derivative Info.             !
 -----------------------------------------------------------------------------
 ! R1    R(1,5)                  1.3937         -DE/DX =    0.0001           !
 ! R2    R(1,8)                  1.2998         -DE/DX =    0.0003           !
 ! R3    R(2,9)                  0.9943         -DE/DX =    0.0001           !
 ! R4    R(3,4)                  1.0629         -DE/DX =    0.               !
 ! R5    R(3,5)                  1.3524         -DE/DX =    0.0002           !
 ! R6    R(3,9)                  1.385          -DE/DX =   -0.0001           !
 ! R7    R(5,6)                  1.0624         -DE/DX =    0.0001           !
 ! R8    R(7,8)                  1.0632         -DE/DX =    0.0001           !
 ! R9    R(8,9)                  1.3682         -DE/DX =   -0.0002           !
 ! A1    A(5,1,8)              106.2404         -DE/DX =    0.0001           !
 ! A2    A(4,3,5)              131.639          -DE/DX =   -0.0001           !
 ! A3    A(4,3,9)              122.5274         -DE/DX =   -0.0001           !
 ! A4    A(5,3,9)              105.8335         -DE/DX =    0.0002           !
 ! A5    A(1,5,3)              109.7304         -DE/DX =   -0.0003           !
 ! A6    A(1,5,6)              121.5885         -DE/DX =    0.0001           !
 ! A7    A(3,5,6)              128.6811         -DE/DX =    0.0002           !
 ! A8    A(1,8,7)              126.1173         -DE/DX =    0.               !
 ! A9    A(1,8,9)              111.1428         -DE/DX =    0.               !
 ! A10   A(7,8,9)              122.7399         -DE/DX =    0.               !
 ! A11   A(2,9,3)              126.2472         -DE/DX =    0.               !
 ! A12   A(2,9,8)              126.6998         -DE/DX =    0.               !
 ! A13   A(3,9,8)              107.0529         -DE/DX =    0.               !
 ! D1    D(8,1,5,3)              0.             -DE/DX =    0.               !
 ! D2    D(8,1,5,6)            180.             -DE/DX =    0.               !
 ! D3    D(5,1,8,7)            180.             -DE/DX =    0.               !
 ! D4    D(5,1,8,9)              0.             -DE/DX =    0.               !
 ! D5    D(4,3,5,1)            180.             -DE/DX =    0.               !
 ! D6    D(4,3,5,6)              0.             -DE/DX =    0.               !
 ! D7    D(9,3,5,1)              0.             -DE/DX =    0.               !
 ! D8    D(9,3,5,6)            180.             -DE/DX =    0.               !
 ! D9    D(4,3,9,2)              0.             -DE/DX =    0.               !
 ! D10   D(4,3,9,8)            180.             -DE/DX =    0.               !
 ! D11   D(5,3,9,2)            180.             -DE/DX =    0.               !
 ! D12   D(5,3,9,8)              0.             -DE/DX =    0.               !
 ! D13   D(1,8,9,2)            180.             -DE/DX =    0.               !
 ! D14   D(1,8,9,3)              0.             -DE/DX =    0.               !
 ! D15   D(7,8,9,2)              0.             -DE/DX =    0.               !
 ! D16   D(7,8,9,3)            180.             -DE/DX =    0.               !
 -----------------------------------------------------------------------------
 GradGradGradGradGradGradGradGradGradGradGradGradGradGradGradGradGradGrad

 1\1\GINC-PECOS\Freq\RHF\3-21G*\C3H4N2\RUS\05-Apr-2000\0\\#N GEOM=ALLCH
 ECK GUESS=TCHECK RHF/3-21G* FREQ\\1H imidazole C3H4N2 casno=288324\\0,
 1\N,0.5024195026,0.,1.1138193345\H,0.4857176542,0.,-2.0402582192\C,-1.
 0216247282,0.,-0.5358702606\H,-1.8960359041,0.,-1.1401518233\C,-0.8569
 994766,0.,0.8064978432\H,-1.5993266892,0.,1.5664682283\H,2.1871427757,
 0.,-0.155326125\C,1.1321370417,0.,-0.0232021031\N,0.2549269462,0.,-1.0
 731457542\\Version=IBM-RS6000-G98RevA.7\State=1-A'\HF=-223.5491089\RMS
 D=7.182e-10\RMSF=1.595e-04\Dipole=-0.1519565,0.,-1.5577377\DipoleDeriv
 =-0.4613317,0.,0.0263832,0.,-0.3772775,0.,0.1047643,0.,-0.545728,0.222
 4068,0.,-0.0052981,0.,0.4302879,0.,-0.0098144,0.,0.2762441,-0.0267397,
 0.,-0.2988958,0.,-0.0820019,0.,-0.0288741,0.,0.2732539,0.0264411,0.,-0
 .0398432,0.,0.2094851,0.,-0.0555327,0.,0.0592257,0.1993648,0.,-0.12017
 42,0.,-0.1460651,0.,-0.1447201,0.,0.0675518,0.0105536,0.,0.0725857,0.,
 0.1797933,0.,0.0649547,0.,0.0393286,-0.0187126,0.,0.0148406,0.,0.17230
 74,0.,0.0338518,0.,0.0822905,0.2264343,0.,0.1286593,0.,0.111266,0.,-0.
 0895147,0.,0.5420248,-0.1784165,0.,0.2217425,0.,-0.4977952,0.,0.124885
 2,0.,-0.7941912\Polar=41.5605649,0.,12.180142,-1.2992835,0.,40.0474281
 \PolarDeriv=-8.1248027,0.,-0.2638885,-0.7326768,0.,6.1889505,0.,0.0928
 503,0.,0.,3.0187624,0.,6.0995152,0.,-0.1087513,2.3863077,0.,6.4447199,
 0.7450229,0.,-0.0895201,-1.7166455,0.,1.3543945,0.,0.2727473,0.,0.,-1.
 1118055,0.,-0.7170201,0.,0.1085171,1.7945577,0.,-8.774412,-0.8127854,0
 .,0.9939103,-1.0893425,0.,-2.244688,0.,-3.4666558,0.,0.,-4.5642493,0.,
 -4.8019214,0.,-0.3412888,-1.7183308,0.,-2.7418937,-6.3085099,0.,-0.422
 2527,-2.9816182,0.,-1.6429511,0.,-0.9553221,0.,0.,-0.274216,0.,-2.5730
 619,0.,-0.1608874,-2.7263244,0.,-3.0327604,5.7353736,0.,0.5232188,3.07
 83498,0.,-2.2265959,0.,-0.2879084,0.,0.,4.6755316,0.,5.3619195,0.,-0.2
 697408,2.508394,0.,1.6885448,-4.2154066,0.,-0.3548618,3.4605649,0.,-2.
 6056827,0.,-1.3994008,0.,0.,0.7311542,0.,2.292094,0.,0.2534632,-2.8904
 564,0.,5.0183119,9.6421345,0.,0.4526715,-0.4788082,0.,0.5740312,0.,1.3
 2923,0.,0.,-0.0213056,0.,-0.8729437,0.,-0.0550249,1.7830825,0.,-0.3471
 644,4.9673279,0.,-0.1889996,-0.5595264,0.,0.2095092,0.,3.9875969,0.,0.
 ,-1.1384337,0.,-5.1517407,0.,-0.1914423,-0.810991,0.,1.9354858,-1.6283
 543,0.,-0.6502778,1.019703,0.,0.3930322,0.,0.4268628,0.,0.,-1.315438,0
 .,0.363159,0.,0.7651552,-0.3262393,0.,-0.190832\HyperPolar=20.1307344,
 0.,1.3421725,0.,-12.5409264,0.,-7.0107724,-25.0823773,0.,-32.3791235\P
 G=CS [SG(C3H4N2)]\NImag=0\\0.49188718,0.,0.12872874,-0.07901017,0.,0.6
 4505745,-0.00322921,0.,-0.00910677,0.09763069,0.,0.00651674,0.,0.,0.01
 845417,-0.00408110,0.,-0.00133661,-0.10258530,0.,0.50404430,-0.0403906
 8,0.,-0.02082601,0.00792043,0.,-0.00397771,0.80831922,0.,0.02288834,0.
 ,0.,-0.00368532,0.,0.,0.17163881,-0.10050108,0.,-0.02969096,0.03430452
 ,0.,-0.00152893,0.21459977,0.,0.85332101,0.00244381,0.,0.00130836,-0.0
 0000596,0.,0.00045823,-0.29209774,0.,-0.15627143,0.30709968,0.,0.00837
 823,0.,0.,-0.00151636,0.,0.,-0.03983803,0.,0.,0.02857528,-0.00361797,0
 .,-0.00499186,-0.00108862,0.,0.00018598,-0.16697622,0.,-0.18805362,0.1
 6972080,0.,0.17917046,-0.21192061,0.,-0.01515626,-0.00929465,0.,-0.000
 49932,-0.12644263,0.,-0.02848345,0.00609173,0.,-0.02772553,0.70620183,
 0.,-0.09005577,0.,0.,0.00334523,0.,0.,-0.09848434,0.,0.,0.00452279,0.,
 0.,0.18574897,-0.03673811,0.,-0.12248273,0.00312346,0.,0.00248984,-0.0
 4117599,0.,-0.44645897,0.00317887,0.,0.00185881,-0.20599956,0.,0.91036
 733,-0.01892878,0.,0.02431433,0.00078295,0.,0.00002670,0.01090135,0.,-
 0.00809665,-0.00018953,0.,0.00117232,-0.22508326,0.,0.16752817,0.23752
 507,0.,-0.00373517,0.,0.,0.00182835,0.,0.,0.00399291,0.,0.,-0.00402177
 ,0.,0.,-0.04456925,0.,0.,0.03191766,-0.01126011,0.,0.01340108,0.001224
 78,0.,0.00018660,0.02610181,0.,-0.00841540,-0.00081924,0.,-0.00029098,
 0.17048087,0.,-0.25161856,-0.17988222,0.,0.25199093,-0.00754272,0.,0.0
 0015119,-0.00063023,0.,-0.00086280,0.00175059,0.,-0.00324804,-0.000374
 20,0.,0.00032253,0.00197321,0.,0.00208396,-0.00035085,0.,-0.00008422,0
 .41670847,0.,-0.00260996,0.,0.,-0.00178374,0.,0.,0.00380230,0.,0.,0.00
 151097,0.,0.,0.00982606,0.,0.,0.00064045,0.,0.,0.03120517,0.03493178,0
 .,-0.00018513,0.00065466,0.,0.00027245,-0.00023779,0.,-0.00722183,-0.0
 0109790,0.,0.00128024,0.00210493,0.,-0.00417981,0.00149270,0.,0.000805
 59,-0.04213468,0.,0.07286627,-0.20645002,0.,0.13117391,0.02121398,0.,0
 .01642675,-0.11563570,0.,-0.00365040,-0.00268120,0.,0.00533813,-0.1112
 7452,0.,0.02911932,-0.00576130,0.,-0.00494872,-0.39771073,0.,0.0412092
 5,1.03441218,0.,-0.10047285,0.,0.,-0.00377028,0.,0.,0.02155409,0.,0.,0
 .00406211,0.,0.,0.01214397,0.,0.,0.00611411,0.,0.,-0.04452600,0.,0.,0.
 19704554,0.15990345,0.,-0.36554814,-0.02179733,0.,-0.01286081,-0.05351
 454,0.,-0.01679552,0.00558753,0.,-0.00622688,0.09853119,0.,-0.00046807
 ,-0.00308769,0.,-0.00018880,0.03764818,0.,-0.07098496,-0.14061114,0.,0
 .68456870,-0.00586897,0.,-0.03284858,-0.11438801,0.,0.09509455,-0.2543
 2484,0.,0.05134677,-0.02028659,0.,0.02285455,-0.03025109,0.,0.07887988
 ,0.00110436,0.,-0.00081295,-0.01382355,0.,-0.03692298,-0.21611271,0.,-
 0.08265965,0.65395138,0.,0.03036171,0.,0.,-0.01938879,0.,0.,-0.0818687
 5,0.,0.,-0.00167322,0.,0.,0.01752234,0.,0.,0.00783271,0.,0.,0.00193476
 ,0.,0.,-0.09215069,0.,0.,0.13742993,0.04037330,0.,-0.13422311,0.095270
 60,0.,-0.49145281,0.04600667,0.,-0.15515579,-0.02206521,0.,0.01706785,
 0.00674712,0.,-0.08950785,-0.00346766,0.,-0.00587045,0.00612388,0.,0.0
 0734717,-0.07405711,0.,-0.21149553,-0.09493160,0.,1.06329051\\0.000012
 33,0.,-0.00011276,-0.00004864,0.,0.00008397,-0.00046059,0.,0.00009735,
 0.00004866,0.,0.00001465,0.00041253,0.,-0.00025516,0.00004952,0.,-0.00
 007338,-0.00007264,0.,0.00001846,-0.00002382,0.,0.00039507,0.00008266,
 0.,-0.00016820\\\@


 LEARN FROM YESTERDAY,
 LIVE FOR TODAY,
 LOOK TO TOMORROW,
 REST THIS AFTERNOON.

           -- SNOOPY
 Job cpu time:  0 days  0 hours  0 minutes 52.7 seconds.
 File lengths (MBytes):  RWF=   10 Int=    0 D2E=    0 Chk=    3 Scr=    1
 Normal termination of Gaussian 98.
