 Entering Gaussian System, Link 0=g98
 Initial command:
 /usr/local/apps/g98a6/g98/l1.exe /wrk/rdj3/Gau-16818.inp -scrdir=/wrk/rdj3/
 Entering Link 1 = /usr/local/apps/g98a6/g98/l1.exe PID=     16320.
  
 Copyright (c) 1988,1990,1992,1993,1995,1998 Gaussian, Inc.
                  All Rights Reserved.
  
 This is part of the Gaussian(R) 98 program.  It is based on
 the Gaussian 94(TM) system (copyright 1995 Gaussian, Inc.),
 the Gaussian 92(TM) system (copyright 1992 Gaussian, Inc.),
 the Gaussian 90(TM) system (copyright 1990 Gaussian, Inc.),
 the Gaussian 88(TM) system (copyright 1988 Gaussian, Inc.),
 the Gaussian 86(TM) system (copyright 1986 Carnegie Mellon
 University), and the Gaussian 82(TM) system (copyright 1983
 Carnegie Mellon University). Gaussian is a federally registered
 trademark of Gaussian, Inc.
  
 This software contains proprietary and confidential information,
 including trade secrets, belonging to Gaussian, Inc.
  
 This software is provided under written license and may be
 used, copied, transmitted, or stored only in accord with that
 written license.
  
 The following legend is applicable only to US Government
 contracts under DFARS:
  
                    RESTRICTED RIGHTS LEGEND
  
 Use, duplication or disclosure by the US Government is subject
 to restrictions as set forth in subparagraph (c)(1)(ii) of the
 Rights in Technical Data and Computer Software clause at DFARS
 252.227-7013.
  
 Gaussian, Inc.
 Carnegie Office Park, Building 6, Pittsburgh, PA 15106 USA
  
 The following legend is applicable only to US Government
 contracts under FAR:
  
                    RESTRICTED RIGHTS LEGEND
  
 Use, reproduction and disclosure by the US Government is subject
 to restrictions as set forth in subparagraph (c) of the
 Commercial Computer Software - Restricted Rights clause at FAR
 52.227-19.
  
 Gaussian, Inc.
 Carnegie Office Park, Building 6, Pittsburgh, PA 15106 USA
  
  
 ---------------------------------------------------------------
 Warning -- This program may not be used in any manner that
 competes with the business of Gaussian, Inc. or will provide
 assistance to any competitor of Gaussian, Inc.  The licensee
 of this program is prohibited from giving any competitor of
 Gaussian, Inc. access to this program.  By using this program,
 the user acknowledges that Gaussian, Inc. is engaged in the
 business of creating and licensing software in the field of
 computational chemistry and represents and warrants to the
 licensee that it is not a competitor of Gaussian, Inc. and that
 it will not use this program in any manner prohibited above.
 ---------------------------------------------------------------
  

 Cite this work as:
 Gaussian 98, Revision A.6,
 M. J. Frisch, G. W. Trucks, H. B. Schlegel, G. E. Scuseria, 
 M. A. Robb, J. R. Cheeseman, V. G. Zakrzewski, J. A. Montgomery, Jr., 
 R. E. Stratmann, J. C. Burant, S. Dapprich, J. M. Millam, 
 A. D. Daniels, K. N. Kudin, M. C. Strain, O. Farkas, J. Tomasi, 
 V. Barone, M. Cossi, R. Cammi, B. Mennucci, C. Pomelli, C. Adamo, 
 S. Clifford, J. Ochterski, G. A. Petersson, P. Y. Ayala, Q. Cui, 
 K. Morokuma, D. K. Malick, A. D. Rabuck, K. Raghavachari, 
 J. B. Foresman, J. Cioslowski, J. V. Ortiz, B. B. Stefanov, G. Liu, 
 A. Liashenko, P. Piskorz, I. Komaromi, R. Gomperts, R. L. Martin, 
 D. J. Fox, T. Keith, M. A. Al-Laham, C. Y. Peng, A. Nanayakkara, 
 C. Gonzalez, M. Challacombe, P. M. W. Gill, B. Johnson, W. Chen, 
 M. W. Wong, J. L. Andres, C. Gonzalez, M. Head-Gordon, 
 E. S. Replogle, and J. A. Pople, 
 Gaussian, Inc., Pittsburgh PA, 1998.

 **********************************************
 Gaussian 98:  IBM-RS6000-G98RevA.6 19-Oct-1998
                  15-Jan-2002 
 **********************************************
 %mem=24000000
 --------------------
 #MP2/6-311+G(3df,2p)
 --------------------
 1/38=1/1;
 2/17=6,18=5/2;
 3/5=4,6=6,7=216,11=9,25=1,30=1/1,2,3;
 4//1;
 5/5=2,38=4/2;
 8/10=1,23=2/1;
 9/16=-3/6;
 6/7=2,8=2,9=2,10=2/1;
 99/5=1,9=1/99;
 --------------------------------
 1H imidazole C3H4N2 casno=288324
 --------------------------------
 Symbolic Z-matrix:
 Charge =  0 Multiplicity = 1
 N                     0.30938   0.        1.30938 
 H                     0.3125    0.       -1.6875 
 C                    -1.06875   0.       -0.28438 
 H                    -1.91875   0.       -0.79063 
 C                    -0.93438   0.        1.02812 
 H                    -1.675     0.        1.6875 
 H                     1.91875   0.        0.09063 
 C                     0.93438   0.        0.19063 
 N                     0.09688   0.       -0.775 
 ------------------------------------------------------------------------
                         Z-MATRIX (ANGSTROMS AND DEGREES)
 CD Cent Atom  N1     Length/X     N2    Alpha/Y     N3     Beta/Z      J
 ------------------------------------------------------------------------
   1   1  N     0   0.309375          0.000000          1.309375
   2   2  H     0   0.312500          0.000000         -1.687500
   3   3  C     0  -1.068750          0.000000         -0.284375
   4   4  H     0  -1.918750          0.000000         -0.790625
   5   5  C     0  -0.934375          0.000000          1.028125
   6   6  H     0  -1.675000          0.000000          1.687500
   7   7  H     0   1.918750          0.000000          0.090625
   8   8  C     0   0.934375          0.000000          0.190625
   9   9  N     0   0.096875          0.000000         -0.775000
 ------------------------------------------------------------------------
                         Z-Matrix orientation:                         
 ---------------------------------------------------------------------
 Center     Atomic     Atomic              Coordinates (Angstroms)
 Number     Number      Type              X           Y           Z
 ---------------------------------------------------------------------
    1          7             0        0.309375    0.000000    1.309375
    2          1             0        0.312500    0.000000   -1.687500
    3          6             0       -1.068750    0.000000   -0.284375
    4          1             0       -1.918750    0.000000   -0.790625
    5          6             0       -0.934375    0.000000    1.028125
    6          1             0       -1.675000    0.000000    1.687500
    7          1             0        1.918750    0.000000    0.090625
    8          6             0        0.934375    0.000000    0.190625
    9          7             0        0.096875    0.000000   -0.775000
 ---------------------------------------------------------------------
                    Distance matrix (angstroms):
                    1          2          3          4          5
     1  N    0.000000
     2  H    2.996877   0.000000
     3  C    2.106957   1.968911   0.000000
     4  H    3.061787   2.404758   0.989338   0.000000
     5  C    1.275153   2.988196   1.319361   2.068054   0.000000
     6  H    2.020080   3.916731   2.062966   2.490084   0.991615
     7  H    2.018772   2.396199   3.010944   3.937386   3.003203
     8  C    1.281494   1.978404   2.058673   3.017147   2.047836
     9  N    2.095179   0.937630   1.264672   2.015686   2.077194
                    6          7          8          9
     6  H    0.000000
     7  H    3.932563   0.000000
     8  C    3.008234   0.989441   0.000000
     9  N    3.033718   2.017061   1.278217   0.000000
                           Interatomic angles:
       N1-C3-H2= 94.6          N1-H2-H4= 68.0421       N1-C3-H4=161.6277
       H2-C3-H4=103.7723       N1-C5-H2= 78.0799       N1-C5-C3=108.5877
       H2-C3-C5=129.6045       N1-C5-H4=131.1659       H2-H4-C5= 83.4743
       H4-C3-C5=126.6232       H2-N1-H6=100.8482       N1-H6-C3= 62.1216
       H2-C3-H6=152.5401       N1-H6-H4= 84.8291       H2-H4-H6=106.2806
       H4-C3-H6=103.6876       N1-C5-H6=125.5794       H2-C5-H6=156.3407
       C3-C5-H6=125.8329       H4-C5-H6=103.2546       N1-H7-H2= 85.0432
       C3-N1-H7= 93.7142       C3-H2-H7= 86.6426       H4-H2-H7=110.1945
       H4-C3-H7=156.377        C5-N1-H7=130.122        C5-H2-H7= 66.7549
       C3-C5-H7= 77.6558       H4-C5-H7=100.234        H6-N1-H7=153.6525
       H6-C3-H7= 99.9354       H6-C5-H7=156.5113       N1-C8-H2=132.4892
       N1-C8-C3= 74.1498       C3-H2-C8= 62.8703       H4-H2-C8= 86.4223
       H4-C3-C8=162.5626       C5-N1-C8=106.4483       H2-C8-C5= 95.8196
       C3-C5-C8= 71.7056       H4-C5-C8= 94.2839       H6-N1-C8=129.9788
       H2-C8-H6=101.5204       H6-C3-C8= 93.7498       H4-H6-C8= 65.7767
       H6-C5-C8=162.4615       N1-C8-H7=124.9909       H2-C8-H7=102.5198
       C3-C8-H7=160.8593       C5-C8-H7=161.6606       H6-C8-H7=155.9598
       N1-N9-H2=160.8837       N1-N9-C3= 72.9944       H2-N9-C3=126.122 
       N1-N9-H4= 96.2653       H2-N9-H4=102.851        H4-C3-N9=126.3957
       N1-C5-N9= 72.9758       H2-N9-C5=163.5289       C5-C3-N9=106.9812
       C5-H4-N9= 61.132        H6-N1-N9= 94.9673       H6-C3-N9=129.9168
       H6-H4-N9= 83.9383       H6-C5-N9=161.4448       N1-H7-N9= 62.5497
       H2-N9-H7=102.1185       C3-N9-H7=131.7595       H4-N9-H7=155.0304
       C5-N9-H7= 94.3525       N1-C8-N9=109.8741       H2-N9-C8=125.7693
       C3-N9-C8=108.1088       H4-N9-C8=131.3797       C5-C8-N9= 73.2045
       H6-C8-N9= 78.9053       H7-C8-N9=125.1349
 Stoichiometry    C3H4N2
 Framework group  CS[SG(C3H4N2)]
 Deg. of freedom   15
 Full point group                 CS      NOp   2
 Largest Abelian subgroup         CS      NOp   2
 Largest concise Abelian subgroup C1      NOp   1
                         Standard orientation:                         
 ---------------------------------------------------------------------
 Center     Atomic     Atomic              Coordinates (Angstroms)
 Number     Number      Type              X           Y           Z
 ---------------------------------------------------------------------
    1          7             0       -0.674969   -0.941702    0.000000
    2          1             0       -0.005288    1.979393    0.000000
    3          6             0        1.025744    0.302019    0.000000
    4          1             0        1.967693    0.604544    0.000000
    5          6             0        0.600174   -0.946822    0.000000
    6          1             0        1.173884   -1.755622    0.000000
    7          1             0       -1.969692    0.607211    0.000000
    8          6             0       -1.032886    0.288794    0.000000
    9          7             0        0.000000    1.041778    0.000000
 ---------------------------------------------------------------------
 Rotational constants (GHZ):     11.1543393     10.4769603      5.4025219
 Isotopes: N-14,H-1,C-12,H-1,C-12,H-1,H-1,C-12,N-14
 Standard basis: 6-311+G(3df,2p) (5D, 7F)
 There are   158 symmetry adapted basis functions of A'  symmetry.
 There are    73 symmetry adapted basis functions of A"  symmetry.
 Crude estimate of integral set expansion from redundant integrals=1.000.
 Integral buffers will be    262144 words long.
 Raffenetti 1 integral format.
 Two-electron integral symmetry is turned on.
   231 basis functions      334 primitive gaussians
    18 alpha electrons       18 beta electrons
       nuclear repulsion energy       173.5664837334 Hartrees.
 One-electron integrals computed using PRISM.
 NBasis=   231 RedAO= T  NBF=   158    73
 NBsUse=   231 1.00D-04 NBFU=   158    73
 Projected INDO Guess.
 Initial guess orbital symmetries:
       Occupied  (A') (A') (A') (A') (A') (A') (A') (A') (A') (A')
                 (A') (A") (A') (A') (A') (A") (A') (A")
       Virtual   (A") (A') (A') (A") (A') (A') (A') (A') (A') (A')
                 (A') (A') (A') (A') (A') (A') (A') (A') (A') (A')
                 (A') (A') (A') (A') (A') (A') (A') (A') (A') (A')
                 (A') (A') (A') (A') (A') (A') (A') (A') (A') (A')
                 (A') (A') (A') (A') (A') (A') (A') (A') (A') (A')
                 (A') (A') (A') (A') (A') (A') (A') (A') (A') (A')
                 (A') (A') (A') (A') (A') (A') (A') (A') (A') (A')
                 (A') (A') (A') (A') (A') (A') (A') (A') (A') (A')
                 (A') (A') (A') (A') (A') (A') (A') (A') (A') (A')
                 (A') (A') (A') (A') (A') (A') (A') (A') (A') (A')
                 (A') (A') (A') (A') (A') (A') (A') (A') (A') (A')
                 (A') (A') (A') (A') (A') (A') (A') (A') (A') (A')
                 (A') (A') (A') (A') (A') (A') (A') (A') (A') (A')
                 (A') (A') (A') (A') (A') (A') (A') (A') (A') (A')
                 (A') (A') (A') (A') (A') (A") (A") (A") (A") (A")
                 (A") (A") (A") (A") (A") (A") (A") (A") (A") (A")
                 (A") (A") (A") (A") (A") (A") (A") (A") (A") (A")
                 (A") (A") (A") (A") (A") (A") (A") (A") (A") (A")
                 (A") (A") (A") (A") (A") (A") (A") (A") (A") (A")
                 (A") (A") (A") (A") (A") (A") (A") (A") (A") (A")
                 (A") (A") (A") (A") (A") (A") (A") (A") (A") (A")
                 (A") (A") (A")
 Requested convergence on RMS density matrix=1.00D-08 within  64 cycles.
 Requested convergence on MAX density matrix=1.00D-06.
 SCF Done:  E(RHF) =  -224.849133938     A.U. after   13 cycles
             Convg  =    0.6717D-08             -V/T =  1.9934
             S**2   =   0.0000
 Range of M.O.s used for correlation:     6   231
 NBasis=   231 NAE=    18 NBE=    18 NFC=     5 NFV=     0
 NROrb=    226 NOA=    13 NOB=    13 NVA=   213 NVB=   213

 **** Warning!!: The largest alpha MO coefficient is  0.70878036D+02

 Fully direct method using O(OVN) memory.
 JobTyp=1 Pass  1:  I=   1 to  13.
 Spin components of T(2) and E(2):
     alpha-alpha T2 =       0.3580011027D-01 E2=     -0.1135601845D+00
     alpha-beta  T2 =       0.1848942701D+00 E2=     -0.6399198538D+00
     beta-beta   T2 =       0.3580011027D-01 E2=     -0.1135601845D+00
 ANorm=    0.1120934650D+01
 E2 =    -0.8670402229D+00 EUMP2 =    -0.22571617416055D+03

 **********************************************************************

            Population analysis using the SCF density.

 **********************************************************************

 Orbital Symmetries:
       Occupied  (A') (A') (A') (A') (A') (A') (A') (A') (A') (A')
                 (A') (A') (A") (A') (A') (A') (A") (A")
       Virtual   (A') (A') (A') (A") (A') (A') (A') (A") (A') (A")
                 (A') (A') (A') (A") (A") (A") (A') (A') (A') (A')
                 (A") (A') (A') (A') (A') (A') (A') (A') (A") (A')
                 (A') (A") (A') (A') (A") (A') (A") (A') (A") (A')
                 (A") (A') (A') (A') (A") (A') (A') (A') (A") (A")
                 (A') (A') (A") (A') (A') (A') (A') (A") (A') (A')
                 (A") (A') (A') (A") (A') (A') (A') (A") (A") (A')
                 (A") (A') (A') (A") (A') (A') (A") (A') (A') (A")
                 (A') (A') (A') (A') (A') (A') (A") (A') (A') (A')
                 (A') (A") (A') (A") (A') (A') (A") (A") (A') (A")
                 (A') (A') (A') (A') (A') (A") (A") (A') (A') (A")
                 (A') (A") (A') (A") (A') (A') (A") (A') (A") (A')
                 (A") (A') (A") (A') (A') (A") (A') (A') (A") (A')
                 (A") (A') (A") (A') (A') (A') (A") (A") (A') (A')
                 (A') (A") (A') (A") (A') (A') (A') (A') (A") (A')
                 (A") (A') (A') (A') (A') (A') (A") (A') (A") (A")
                 (A') (A') (A') (A") (A') (A") (A') (A") (A') (A")
                 (A") (A") (A') (A') (A') (A') (A') (A') (A') (A')
                 (A') (A') (A") (A") (A') (A") (A") (A') (A") (A')
                 (A') (A") (A') (A') (A') (A') (A') (A') (A") (A")
                 (A") (A') (A") (A') (A') (A') (A') (A') (A') (A')
                 (A') (A') (A')
  The electronic state is 1-A'.
 Alpha  occ. eigenvalues --  -15.61309 -15.51857 -11.25872 -11.21978 -11.20231
 Alpha  occ. eigenvalues --   -1.41499  -1.20834  -1.03691  -0.86988  -0.83329
 Alpha  occ. eigenvalues --   -0.80326  -0.64494  -0.64438  -0.61705  -0.59816
 Alpha  occ. eigenvalues --   -0.42550  -0.41845  -0.31824
 Alpha virt. eigenvalues --    0.05211   0.07310   0.08578   0.09544   0.10418
 Alpha virt. eigenvalues --    0.11182   0.13449   0.13633   0.14885   0.14921
 Alpha virt. eigenvalues --    0.18240   0.19535   0.20063   0.20096   0.23702
 Alpha virt. eigenvalues --    0.26745   0.26793   0.28735   0.29296   0.30029
 Alpha virt. eigenvalues --    0.30690   0.31568   0.32726   0.33720   0.36880
 Alpha virt. eigenvalues --    0.37955   0.43037   0.44917   0.47704   0.51051
 Alpha virt. eigenvalues --    0.57317   0.57992   0.58229   0.60669   0.61209
 Alpha virt. eigenvalues --    0.63043   0.63292   0.63703   0.65709   0.70209
 Alpha virt. eigenvalues --    0.70414   0.71504   0.73759   0.74531   0.75926
 Alpha virt. eigenvalues --    0.76295   0.78044   0.81121   0.82358   0.86018
 Alpha virt. eigenvalues --    0.86708   0.87513   0.87841   0.87857   0.90072
 Alpha virt. eigenvalues --    0.94875   0.98638   0.99007   1.01726   1.08736
 Alpha virt. eigenvalues --    1.09757   1.11902   1.16508   1.18023   1.18941
 Alpha virt. eigenvalues --    1.20978   1.23039   1.24043   1.28343   1.29348
 Alpha virt. eigenvalues --    1.30463   1.32080   1.37089   1.39502   1.40325
 Alpha virt. eigenvalues --    1.41950   1.43766   1.44333   1.46417   1.48010
 Alpha virt. eigenvalues --    1.48843   1.59404   1.66513   1.69075   1.73763
 Alpha virt. eigenvalues --    1.75209   1.75959   1.79249   1.82657   1.87985
 Alpha virt. eigenvalues --    1.90155   1.90619   1.93626   2.01527   2.06543
 Alpha virt. eigenvalues --    2.13667   2.18173   2.23815   2.25681   2.37926
 Alpha virt. eigenvalues --    2.38304   2.41587   2.49907   2.55467   2.59734
 Alpha virt. eigenvalues --    2.67497   2.71642   2.72285   2.81434   2.83053
 Alpha virt. eigenvalues --    2.90921   3.00380   3.02708   3.05530   3.06212
 Alpha virt. eigenvalues --    3.12659   3.20195   3.20201   3.23957   3.26943
 Alpha virt. eigenvalues --    3.29453   3.29723   3.40121   3.40812   3.43985
 Alpha virt. eigenvalues --    3.53311   3.53431   3.56241   3.62823   3.67830
 Alpha virt. eigenvalues --    3.71451   3.73927   3.80930   3.85822   3.89504
 Alpha virt. eigenvalues --    3.96620   3.98626   4.02973   4.05908   4.22145
 Alpha virt. eigenvalues --    4.27107   4.28890   4.30911   4.38840   4.40005
 Alpha virt. eigenvalues --    4.43386   4.46376   4.50368   4.51490   4.54039
 Alpha virt. eigenvalues --    4.59394   4.60803   4.62667   4.70896   4.73926
 Alpha virt. eigenvalues --    4.76814   4.77210   4.80262   4.88395   4.95480
 Alpha virt. eigenvalues --    5.03072   5.15316   5.19797   5.25464   5.30448
 Alpha virt. eigenvalues --    5.33258   5.39633   5.54992   5.57477   5.58328
 Alpha virt. eigenvalues --    5.61891   5.66765   5.76917   5.81487   5.90249
 Alpha virt. eigenvalues --    6.12475   6.20827   6.43590   7.02691   7.06455
 Alpha virt. eigenvalues --    7.18100   7.52868   7.62325   7.68198   7.74694
 Alpha virt. eigenvalues --    7.75771   7.82697   7.86035   7.90801   7.92552
 Alpha virt. eigenvalues --    8.02176   8.06621   8.36462   8.50837   8.58137
 Alpha virt. eigenvalues --    8.74117   8.92952   9.00155  11.06934  11.12942
 Alpha virt. eigenvalues --   11.25305  11.26551  11.39761  11.40151  11.81247
 Alpha virt. eigenvalues --   11.93030  12.14954  12.77810  26.23427  26.86880
 Alpha virt. eigenvalues --   27.40051  37.98481  38.36280
          Condensed to atoms (all electrons):
              1          2          3          4          5          6
  1  N    8.306425   0.007628   0.034637   0.001405  -0.041463  -0.077673
  2  H    0.007628   0.438685  -0.061509  -0.001412   0.010257   0.000114
  3  C    0.034637  -0.061509   5.510318   0.532644   0.063669  -0.134085
  4  H    0.001405  -0.001412   0.532644   0.461761  -0.111925  -0.001443
  5  C   -0.041463   0.010257   0.063669  -0.111925   5.361531   0.567497
  6  H   -0.077673   0.000114  -0.134085  -0.001443   0.567497   0.468653
  7  H   -0.076474  -0.001458  -0.007502  -0.000155   0.010797  -0.000071
  8  C    0.238562  -0.043879  -0.264967   0.007000  -0.092312   0.013531
  9  N   -0.253606   0.475330   0.082128  -0.045619  -0.090119   0.007541
              7          8          9
  1  N   -0.076474   0.238562  -0.253606
  2  H   -0.001458  -0.043879   0.475330
  3  C   -0.007502  -0.264967   0.082128
  4  H   -0.000155   0.007000  -0.045619
  5  C    0.010797  -0.092312  -0.090119
  6  H   -0.000071   0.013531   0.007541
  7  H    0.460314   0.509682  -0.063413
  8  C    0.509682   4.513363   0.249449
  9  N   -0.063413   0.249449   7.593381
 Total atomic charges:
              1
  1  N   -1.139440
  2  H    0.176244
  3  C    0.244666
  4  H    0.157744
  5  C    0.322070
  6  H    0.155936
  7  H    0.168280
  8  C    0.869571
  9  N   -0.955070
 Sum of Mulliken charges=   0.00000
 Atomic charges with hydrogens summed into heavy atoms:
              1
  1  N   -1.139440
  2  H    0.000000
  3  C    0.402410
  4  H    0.000000
  5  C    0.478006
  6  H    0.000000
  7  H    0.000000
  8  C    1.037850
  9  N   -0.778826
 Sum of Mulliken charges=   0.00000
 Electronic spatial extent (au):  <R**2>=   259.7072
 Charge=     0.0000 electrons
 Dipole moment (Debye):
    X=     1.0775    Y=     3.8032    Z=     0.0000  Tot=     3.9529
 Quadrupole moment (Debye-Ang):
   XX=   -27.0780   YY=   -25.8975   ZZ=   -31.3976
   XY=    -3.4279   XZ=     0.0000   YZ=     0.0000
 Octapole moment (Debye-Ang**2):
  XXX=     0.0340  YYY=    16.1162  ZZZ=     0.0000  XYY=     5.4103
  XXY=     5.8256  XXZ=     0.0000  XZZ=    -0.9092  YZZ=     1.5957
  YYZ=     0.0000  XYZ=     0.0000
 Hexadecapole moment (Debye-Ang**3):
 XXXX=  -142.2173 YYYY=  -130.4391 ZZZZ=   -34.9223 XXXY=    -3.7595
 XXXZ=     0.0000 YYYX=    -8.2757 YYYZ=     0.0000 ZZZX=     0.0000
 ZZZY=     0.0000 XXYY=   -52.9973 XXZZ=   -36.2293 YYZZ=   -33.5777
 XXYZ=     0.0000 YYXZ=     0.0000 ZZXY=     0.5144
 N-N= 1.735664837334D+02 E-N=-8.738810279789D+02  KE= 2.263415284154D+02
 Symmetry A'   KE= 2.185159543518D+02
 Symmetry A"   KE= 7.825574063605D+00
 1\1\GINC-PLUMBUM\SP\RMP2-FC\6-311+G(3df,2p)\C3H4N2\RDJ3\15-Jan-2002\0\
 \#MP2/6-311+G(3DF,2P)\\1H imidazole C3H4N2 casno=288324\\0,1\N,0,0.309
 375,0.,1.309375\H,0,0.3125,0.,-1.6875\C,0,-1.06875,0.,-0.284375\H,0,-1
 .91875,0.,-0.790625\C,0,-0.934375,0.,1.028125\H,0,-1.675,0.,1.6875\H,0
 ,1.91875,0.,0.090625\C,0,0.934375,0.,0.190625\N,0,0.096875,0.,-0.775\\
 Version=IBM-RS6000-G98RevA.6\State=1-A'\HF=-224.8491339\MP2=-225.71617
 42\RMSD=6.717e-09\PG=CS [SG(C3H4N2)]\\@


 IF NO USE IS MADE OF THE LABOR OF PAST AGES,
 THE WORLD MUST REMAIN ALWAYS IN THE INFANCY OF KNOWLEDGE.

                          -- CICERO
 Job cpu time:  0 days  1 hours  4 minutes 58.8 seconds.
 File lengths (MBytes):  RWF=   33 Int=    0 D2E=    0 Chk=    7 Scr=    1
 Normal termination of Gaussian 98.
