 Entering Link 1 = C:\G03W\l1.exe PID=      2132.
  
 Copyright (c) 1988,1990,1992,1993,1995,1998,2003, Gaussian, Inc.
                  All Rights Reserved.
  
 This is the Gaussian(R) 03 program.  It is based on the
 the Gaussian(R) 98 system (copyright 1998, Gaussian, Inc.),
 the Gaussian(R) 94 system (copyright 1995, Gaussian, Inc.),
 the Gaussian 92(TM) system (copyright 1992, Gaussian, Inc.),
 the Gaussian 90(TM) system (copyright 1990, Gaussian, Inc.),
 the Gaussian 88(TM) system (copyright 1988, Gaussian, Inc.),
 the Gaussian 86(TM) system (copyright 1986, Carnegie Mellon
 University), and the Gaussian 82(TM) system (copyright 1983,
 Carnegie Mellon University). Gaussian is a federally registered
 trademark of Gaussian, Inc.
  
 This software contains proprietary and confidential information,
 including trade secrets, belonging to Gaussian, Inc.
  
 This software is provided under written license and may be
 used, copied, transmitted, or stored only in accord with that
 written license.
  
 The following legend is applicable only to US Government
 contracts under DFARS:
  
                    RESTRICTED RIGHTS LEGEND
  
 Use, duplication or disclosure by the US Government is subject
 to restrictions as set forth in subparagraph (c)(1)(ii) of the
 Rights in Technical Data and Computer Software clause at DFARS
 252.227-7013.
  
 Gaussian, Inc.
 Carnegie Office Park, Building 6, Pittsburgh, PA 15106 USA
  
 The following legend is applicable only to US Government
 contracts under FAR:
  
                    RESTRICTED RIGHTS LEGEND
  
 Use, reproduction and disclosure by the US Government is subject
 to restrictions as set forth in subparagraph (c) of the
 Commercial Computer Software - Restricted Rights clause at FAR
 52.227-19.
  
 Gaussian, Inc.
 Carnegie Office Park, Building 6, Pittsburgh, PA 15106 USA
  
  
 ---------------------------------------------------------------
 Warning -- This program may not be used in any manner that
 competes with the business of Gaussian, Inc. or will provide
 assistance to any competitor of Gaussian, Inc.  The licensee
 of this program is prohibited from giving any competitor of
 Gaussian, Inc. access to this program.  By using this program,
 the user acknowledges that Gaussian, Inc. is engaged in the
 business of creating and licensing software in the field of
 computational chemistry and represents and warrants to the
 licensee that it is not a competitor of Gaussian, Inc. and that
 it will not use this program in any manner prohibited above.
 ---------------------------------------------------------------
  

 Cite this work as:
 Gaussian 03, Revision B.05,
 M. J. Frisch, G. W. Trucks, H. B. Schlegel, G. E. Scuseria, 
 M. A. Robb, J. R. Cheeseman, J. A. Montgomery, Jr., T. Vreven, 
 K. N. Kudin, J. C. Burant, J. M. Millam, S. S. Iyengar, J. Tomasi, 
 V. Barone, B. Mennucci, M. Cossi, G. Scalmani, N. Rega, 
 G. A. Petersson, H. Nakatsuji, M. Hada, M. Ehara, K. Toyota, 
 R. Fukuda, J. Hasegawa, M. Ishida, T. Nakajima, Y. Honda, O. Kitao, 
 H. Nakai, M. Klene, X. Li, J. E. Knox, H. P. Hratchian, J. B. Cross, 
 C. Adamo, J. Jaramillo, R. Gomperts, R. E. Stratmann, O. Yazyev, 
 A. J. Austin, R. Cammi, C. Pomelli, J. W. Ochterski, P. Y. Ayala, 
 K. Morokuma, G. A. Voth, P. Salvador, J. J. Dannenberg, 
 V. G. Zakrzewski, S. Dapprich, A. D. Daniels, M. C. Strain, 
 O. Farkas, D. K. Malick, A. D. Rabuck, K. Raghavachari, 
 J. B. Foresman, J. V. Ortiz, Q. Cui, A. G. Baboul, S. Clifford, 
 J. Cioslowski, B. B. Stefanov, G. Liu, A. Liashenko, P. Piskorz, 
 I. Komaromi, R. L. Martin, D. J. Fox, T. Keith, M. A. Al-Laham, 
 C. Y. Peng, A. Nanayakkara, M. Challacombe, P. M. W. Gill, 
 B. Johnson, W. Chen, M. W. Wong, C. Gonzalez, and J. A. Pople, 
 Gaussian, Inc., Pittsburgh PA, 2003.
 
 **********************************************
 Gaussian 03:  x86-Win32-G03RevB.05  8-Nov-2003
                  30-Jul-2004 
 **********************************************
 %mem=56000000
 Default route:  MaxDisk=200GB
 -------------------------------
 #mPW1PW91/6-31G(2df,p) opt freq
 -------------------------------
 1/14=-1,18=20,26=3,38=1/1,3;
 2/9=110,17=6,18=5,40=1/2;
 3/5=1,6=6,7=104,11=2,16=1,25=1,30=1,74=-7/1,2,3;
 4//1;
 5/5=2,38=5/2;
 6/7=2,8=2,9=2,10=2,28=1/1;
 7//1,2,3,16;
 1/14=-1,18=20/3(1);
 99//99;
 2/9=110/2;
 3/5=1,6=6,7=104,11=2,16=1,25=1,30=1,74=-7/1,2,3;
 4/5=5,16=3/1;
 5/5=2,38=5/2;
 7//1,2,3,16;
 1/14=-1,18=20/3(-5);
 2/9=110/2;
 6/7=2,8=2,9=2,10=2,19=2,28=1/1;
 99/9=1/99;
 ----------------------------------------
 1himidaz casno=288324 method=25 basis=19
 ----------------------------------------
 Symbolic Z-matrix:
 Charge =  0 Multiplicity = 1
 N                    -0.74106  -0.96596   0. 
 H                    -0.01273   2.08825   0. 
 C                     1.10986   0.28827   0. 
 H                     2.10334   0.68144   0. 
 C                     0.63018  -0.97392   0. 
 H                     1.18224  -1.89044   0. 
 H                    -2.07716   0.65597   0. 
 C                    -1.07476   0.2791    0. 
 N                     0.        1.09512   0. 
 

 GradGradGradGradGradGradGradGradGradGradGradGradGradGradGradGradGradGrad
 Berny optimization.
 Initialization pass.
                           ----------------------------
                           !    Initial Parameters    !
                           ! (Angstroms and Degrees)  !
 --------------------------                            --------------------------
 ! Name  Definition              Value          Derivative Info.                !
 --------------------------------------------------------------------------------
 ! R1    R(1,5)                  1.3713         estimate D2E/DX2                !
 ! R2    R(1,8)                  1.289          estimate D2E/DX2                !
 ! R3    R(2,9)                  0.9932         estimate D2E/DX2                !
 ! R4    R(3,4)                  1.0684         estimate D2E/DX2                !
 ! R5    R(3,5)                  1.3503         estimate D2E/DX2                !
 ! R6    R(3,9)                  1.3721         estimate D2E/DX2                !
 ! R7    R(5,6)                  1.0699         estimate D2E/DX2                !
 ! R8    R(7,8)                  1.0709         estimate D2E/DX2                !
 ! R9    R(8,9)                  1.3494         estimate D2E/DX2                !
 ! A1    A(5,1,8)              105.3363         estimate D2E/DX2                !
 ! A2    A(4,3,5)              132.3996         estimate D2E/DX2                !
 ! A3    A(4,3,9)              122.3927         estimate D2E/DX2                !
 ! A4    A(5,3,9)              105.2077         estimate D2E/DX2                !
 ! A5    A(1,5,3)              110.476          estimate D2E/DX2                !
 ! A6    A(1,5,6)              121.3948         estimate D2E/DX2                !
 ! A7    A(3,5,6)              128.1292         estimate D2E/DX2                !
 ! A8    A(1,8,7)              125.6083         estimate D2E/DX2                !
 ! A9    A(1,8,9)              112.2043         estimate D2E/DX2                !
 ! A10   A(7,8,9)              122.1873         estimate D2E/DX2                !
 ! A11   A(2,9,3)              126.7509         estimate D2E/DX2                !
 ! A12   A(2,9,8)              126.4734         estimate D2E/DX2                !
 ! A13   A(3,9,8)              106.7757         estimate D2E/DX2                !
 ! D1    D(8,1,5,3)              0.0            estimate D2E/DX2                !
 ! D2    D(8,1,5,6)            180.0            estimate D2E/DX2                !
 ! D3    D(5,1,8,7)            180.0            estimate D2E/DX2                !
 ! D4    D(5,1,8,9)              0.0            estimate D2E/DX2                !
 ! D5    D(4,3,5,1)            180.0            estimate D2E/DX2                !
 ! D6    D(4,3,5,6)              0.0            estimate D2E/DX2                !
 ! D7    D(9,3,5,1)              0.0            estimate D2E/DX2                !
 ! D8    D(9,3,5,6)            180.0            estimate D2E/DX2                !
 ! D9    D(4,3,9,2)              0.0            estimate D2E/DX2                !
 ! D10   D(4,3,9,8)            180.0            estimate D2E/DX2                !
 ! D11   D(5,3,9,2)            180.0            estimate D2E/DX2                !
 ! D12   D(5,3,9,8)              0.0            estimate D2E/DX2                !
 ! D13   D(1,8,9,2)            180.0            estimate D2E/DX2                !
 ! D14   D(1,8,9,3)              0.0            estimate D2E/DX2                !
 ! D15   D(7,8,9,2)              0.0            estimate D2E/DX2                !
 ! D16   D(7,8,9,3)            180.0            estimate D2E/DX2                !
 --------------------------------------------------------------------------------
 Trust Radius=3.00D-01 FncErr=1.00D-07 GrdErr=1.00D-06
 Number of steps in this run=  48 maximum allowed number of steps= 100.
 GradGradGradGradGradGradGradGradGradGradGradGradGradGradGradGradGradGrad

                          Input orientation:                          
 ---------------------------------------------------------------------
 Center     Atomic     Atomic              Coordinates (Angstroms)
 Number     Number      Type              X           Y           Z
 ---------------------------------------------------------------------
    1          7             0       -0.741059   -0.965959    0.000000
    2          1             0       -0.012734    2.088247    0.000000
    3          6             0        1.109862    0.288272    0.000000
    4          1             0        2.103339    0.681436    0.000000
    5          6             0        0.630182   -0.973920    0.000000
    6          1             0        1.182239   -1.890444    0.000000
    7          1             0       -2.077162    0.655969    0.000000
    8          6             0       -1.074756    0.279096    0.000000
    9          7             0        0.000000    1.095117    0.000000
 ---------------------------------------------------------------------
                    Distance matrix (angstroms):
                    1          2          3          4          5
     1  N    0.000000
     2  H    3.139846   0.000000
     3  C    2.235845   2.121351   0.000000
     4  H    3.287021   2.541040   1.068445   0.000000
     5  C    1.371264   3.128931   1.350267   2.215941   0.000000
     6  H    2.133951   4.154268   2.179918   2.731848   1.069945
     7  H    2.101386   2.512625   3.208165   4.180579   3.160103
     8  C    1.288998   2.097837   2.184637   3.203461   2.115860
     9  N    2.190252   0.993212   1.372149   2.143634   2.162879
                    6          7          8          9
     6  H    0.000000
     7  H    4.136171   0.000000
     8  C    3.130644   1.070911   0.000000
     9  N    3.211116   2.123076   1.349441   0.000000
 Stoichiometry    C3H4N2
 Framework group  CS[SG(C3H4N2)]
 Deg. of freedom    15
 Full point group                 CS      NOp   2
 Largest Abelian subgroup         CS      NOp   2
 Largest concise Abelian subgroup C1      NOp   1
                         Standard orientation:                         
 ---------------------------------------------------------------------
 Center     Atomic     Atomic              Coordinates (Angstroms)
 Number     Number      Type              X           Y           Z
 ---------------------------------------------------------------------
    1          7             0       -0.741059   -0.965959    0.000000
    2          1             0       -0.012734    2.088247    0.000000
    3          6             0        1.109862    0.288272    0.000000
    4          1             0        2.103339    0.681436    0.000000
    5          6             0        0.630182   -0.973920    0.000000
    6          1             0        1.182239   -1.890444    0.000000
    7          1             0       -2.077162    0.655969    0.000000
    8          6             0       -1.074756    0.279096    0.000000
    9          7             0        0.000000    1.095117    0.000000
 ---------------------------------------------------------------------
 Rotational constants (GHZ):      9.9280198      9.6396664      4.8908592
 Standard basis: 6-31G(2df,p) (6D, 7F)
 There are   111 symmetry adapted basis functions of A'  symmetry.
 There are    49 symmetry adapted basis functions of A"  symmetry.
 Integral buffers will be    262144 words long.
 Raffenetti 2 integral format.
 Two-electron integral symmetry is turned on.
   160 basis functions,   248 primitive gaussians,   175 cartesian basis functions
    18 alpha electrons       18 beta electrons
       nuclear repulsion energy       164.9791768016 Hartrees.
 NAtoms=    9 NActive=    9 NUniq=    9 SFac= 1.00D+00 NAtFMM=   60 Big=F
 One-electron integrals computed using PRISM.
 NBasis=   160 RedAO= T  NBF=   111    49
 NBsUse=   160 1.00D-06 NBFU=   111    49
 Harris functional with IExCor=  908 diagonalized for initial guess.
 ExpMin= 1.61D-01 ExpMax= 4.17D+03 ExpMxC= 6.27D+02 IAcc=1 IRadAn=         1 AccDes= 1.00D-06
 HarFok:  IExCor= 908 AccDes= 1.00D-06 IRadAn=         1 IDoV=1
 ScaDFX=  1.000000  1.000000  1.000000  1.000000
 Initial guess orbital symmetries:
       Occupied  (A') (A') (A') (A') (A') (A') (A') (A') (A') (A')
                 (A') (A') (A') (A") (A') (A') (A") (A")
       Virtual   (A") (A") (A') (A') (A') (A') (A') (A') (A') (A')
                 (A') (A') (A') (A") (A') (A') (A") (A') (A') (A")
                 (A") (A') (A') (A') (A") (A") (A') (A') (A") (A')
                 (A") (A') (A') (A") (A") (A') (A') (A') (A') (A')
                 (A') (A") (A") (A') (A') (A") (A') (A") (A') (A')
                 (A') (A') (A") (A') (A') (A') (A') (A") (A') (A')
                 (A') (A") (A') (A") (A') (A") (A') (A') (A") (A')
                 (A") (A') (A') (A') (A') (A") (A") (A') (A') (A")
                 (A") (A') (A') (A') (A') (A") (A') (A') (A") (A')
                 (A") (A') (A') (A') (A') (A") (A') (A') (A") (A')
                 (A") (A") (A') (A") (A") (A') (A") (A") (A") (A')
                 (A") (A') (A") (A") (A') (A") (A") (A') (A") (A')
                 (A') (A') (A') (A') (A') (A') (A") (A') (A') (A')
                 (A') (A') (A') (A') (A') (A') (A') (A') (A') (A')
                 (A') (A')
 The electronic state of the initial guess is 1-A'.
 Requested convergence on RMS density matrix=1.00D-08 within 128 cycles.
 Requested convergence on MAX density matrix=1.00D-06.
 Requested convergence on             energy=1.00D-06.
 No special actions if energy rises.
 Integral accuracy reduced to 1.0D-05 until final iterations.
 Initial convergence to 1.0D-05 achieved.  Increase integral accuracy.
 SCF Done:  E(RmPW+HF-PW91) =  -226.179503724     A.U. after   14 cycles
             Convg  =    0.1250D-08             -V/T =  2.0063
             S**2   =   0.0000

 **********************************************************************

            Population analysis using the SCF density.

 **********************************************************************

 Orbital symmetries:
       Occupied  (A') (A') (A') (A') (A') (A') (A') (A') (A') (A')
                 (A') (A') (A") (A') (A') (A") (A') (A")
       Virtual   (A") (A") (A') (A') (A') (A') (A') (A') (A') (A')
                 (A') (A') (A") (A') (A') (A") (A') (A') (A") (A')
                 (A") (A') (A') (A") (A') (A") (A') (A') (A') (A")
                 (A") (A') (A') (A") (A") (A') (A') (A') (A') (A')
                 (A') (A") (A") (A') (A") (A') (A') (A") (A') (A')
                 (A') (A') (A") (A') (A') (A') (A') (A") (A') (A')
                 (A') (A") (A') (A") (A') (A") (A') (A') (A') (A")
                 (A") (A') (A') (A') (A') (A") (A') (A") (A') (A")
                 (A") (A') (A') (A') (A') (A") (A') (A') (A") (A')
                 (A") (A') (A') (A') (A') (A") (A') (A') (A") (A')
                 (A") (A") (A') (A") (A") (A") (A') (A") (A') (A")
                 (A") (A') (A") (A") (A') (A") (A") (A') (A") (A')
                 (A') (A') (A') (A') (A') (A") (A') (A') (A') (A')
                 (A') (A') (A') (A') (A') (A') (A') (A') (A') (A')
                 (A') (A')
 The electronic state is 1-A'.
 Alpha  occ. eigenvalues --  -14.45922 -14.37551 -10.28609 -10.26405 -10.24528
 Alpha  occ. eigenvalues --   -1.04523  -0.89352  -0.76516  -0.63126  -0.60565
 Alpha  occ. eigenvalues --   -0.57832  -0.45049  -0.44746  -0.44618  -0.41390
 Alpha  occ. eigenvalues --   -0.29009  -0.27466  -0.23861
 Alpha virt. eigenvalues --    0.04545   0.08650   0.09428   0.15293   0.16968
 Alpha virt. eigenvalues --    0.18905   0.23182   0.25667   0.29377   0.34052
 Alpha virt. eigenvalues --    0.41345   0.47047   0.49199   0.50402   0.54638
 Alpha virt. eigenvalues --    0.55720   0.58203   0.59655   0.60583   0.61268
 Alpha virt. eigenvalues --    0.66379   0.71081   0.72551   0.75035   0.75275
 Alpha virt. eigenvalues --    0.81020   0.81285   0.83488   0.84068   0.86190
 Alpha virt. eigenvalues --    0.87566   0.90181   0.92626   1.03852   1.05318
 Alpha virt. eigenvalues --    1.05857   1.12376   1.18886   1.23321   1.28163
 Alpha virt. eigenvalues --    1.34032   1.35586   1.36298   1.45026   1.46810
 Alpha virt. eigenvalues --    1.49101   1.53008   1.54467   1.58907   1.65096
 Alpha virt. eigenvalues --    1.70368   1.75509   1.76239   1.80169   1.88898
 Alpha virt. eigenvalues --    1.96876   2.00418   2.10092   2.15036   2.22312
 Alpha virt. eigenvalues --    2.28763   2.37717   2.39875   2.49995   2.53101
 Alpha virt. eigenvalues --    2.64511   2.67278   2.74619   2.85664   2.86671
 Alpha virt. eigenvalues --    2.88974   2.91409   3.00687   3.02917   3.07025
 Alpha virt. eigenvalues --    3.08504   3.11923   3.13264   3.19174   3.19844
 Alpha virt. eigenvalues --    3.20974   3.22136   3.24965   3.33749   3.38700
 Alpha virt. eigenvalues --    3.44016   3.46434   3.56150   3.61851   3.64516
 Alpha virt. eigenvalues --    3.66812   3.81453   3.82497   3.88414   3.96365
 Alpha virt. eigenvalues --    3.99389   4.04504   4.10419   4.11809   4.13151
 Alpha virt. eigenvalues --    4.17375   4.21652   4.26923   4.35655   4.42623
 Alpha virt. eigenvalues --    4.45622   4.46645   4.47666   4.53111   4.53111
 Alpha virt. eigenvalues --    4.56631   4.60447   4.61213   4.65573   4.69816
 Alpha virt. eigenvalues --    4.72016   4.76161   4.80406   4.81973   4.88681
 Alpha virt. eigenvalues --    4.89986   5.00663   5.03969   5.16384   5.23733
 Alpha virt. eigenvalues --    5.28128   5.29346   5.38847   5.46970   5.53735
 Alpha virt. eigenvalues --    5.65248   5.69637   5.96078   6.08588   6.30678
 Alpha virt. eigenvalues --   10.07390  10.45158  10.80086  11.37569  11.47437
 Alpha virt. eigenvalues --   14.52047  15.34585
          Condensed to atoms (all electrons):
              1          2          3          4          5          6
     1  N    6.315808   0.006149  -0.041782   0.005314   0.512410  -0.024781
     2  H    0.006149   0.410546  -0.030166  -0.000452   0.004269  -0.000126
     3  C   -0.041782  -0.030166   4.893849   0.376948   0.619862  -0.047899
     4  H    0.005314  -0.000452   0.376948   0.519104  -0.028480   0.000808
     5  C    0.512410   0.004269   0.619862  -0.028480   4.758648   0.391848
     6  H   -0.024781  -0.000126  -0.047899   0.000808   0.391848   0.535345
     7  H   -0.024931   0.000083   0.004463  -0.000117   0.006266  -0.000189
     8  C    0.606504  -0.031681  -0.090807   0.003412  -0.133344   0.005447
     9  N   -0.079718   0.352997   0.428271  -0.031237  -0.037258   0.002607
              7          8          9
     1  N   -0.024931   0.606504  -0.079718
     2  H    0.000083  -0.031681   0.352997
     3  C    0.004463  -0.090807   0.428271
     4  H   -0.000117   0.003412  -0.031237
     5  C    0.006266  -0.133344  -0.037258
     6  H   -0.000189   0.005447   0.002607
     7  H    0.518128   0.385346  -0.041862
     8  C    0.385346   4.754653   0.470282
     9  N   -0.041862   0.470282   6.217010
 Mulliken atomic charges:
              1
     1  N   -0.274972
     2  H    0.288382
     3  C   -0.112738
     4  H    0.154700
     5  C   -0.094221
     6  H    0.136940
     7  H    0.152815
     8  C    0.030189
     9  N   -0.281093
 Sum of Mulliken charges=   0.00000
 Atomic charges with hydrogens summed into heavy atoms:
              1
     1  N   -0.274972
     2  H    0.000000
     3  C    0.041962
     4  H    0.000000
     5  C    0.042718
     6  H    0.000000
     7  H    0.000000
     8  C    0.183003
     9  N    0.007289
 Sum of Mulliken charges=   0.00000
 Electronic spatial extent (au):  <R**2>=   278.7700
 Charge=     0.0000 electrons
 Dipole moment (field-independent basis, Debye):
    X=     1.0880    Y=     3.4438    Z=     0.0000  Tot=     3.6116
 Quadrupole moment (field-independent basis, Debye-Ang):
   XX=   -25.9372   YY=   -24.8282   ZZ=   -30.7254
   XY=    -3.0679   XZ=     0.0000   YZ=     0.0000
 Traceless Quadrupole moment (field-independent basis, Debye-Ang):
   XX=     1.2264   YY=     2.3354   ZZ=    -3.5618
   XY=    -3.0679   XZ=     0.0000   YZ=     0.0000
 Octapole moment (field-independent basis, Debye-Ang**2):
  XXX=     0.2388  YYY=    15.1390  ZZZ=     0.0000  XYY=     5.0407
  XXY=     5.9221  XXZ=     0.0000  XZZ=    -0.9597  YZZ=     1.0326
  YYZ=     0.0000  XYZ=     0.0000
 Hexadecapole moment (field-independent basis, Debye-Ang**3):
 XXXX=  -150.4996 YYYY=  -131.7813 ZZZZ=   -29.2702 XXXY=    -2.1086
 XXXZ=     0.0000 YYYX=    -8.0089 YYYZ=     0.0000 ZZZX=     0.0000
 ZZZY=     0.0000 XXYY=   -54.6720 XXZZ=   -36.2896 YYZZ=   -33.5631
 XXYZ=     0.0000 YYXZ=     0.0000 ZZXY=     0.7167
 N-N= 1.649791768016D+02 E-N=-8.564524905580D+02  KE= 2.247742908484D+02
 Symmetry A'   KE= 2.166810048317D+02
 Symmetry A"   KE= 8.093286016701D+00
 ***** Axes restored to original set *****
 -------------------------------------------------------------------
 Center     Atomic                   Forces (Hartrees/Bohr)
 Number     Number              X              Y              Z
 -------------------------------------------------------------------
    1          7           0.002877501   -0.021880257    0.000000000
    2          1           0.000624030    0.009619825    0.000000000
    3          6           0.001845669    0.011023674    0.000000000
    4          1           0.005378276    0.003064355    0.000000000
    5          6          -0.006519539   -0.008450770    0.000000000
    6          1           0.003287724   -0.005493906    0.000000000
    7          1          -0.006149128    0.002980447    0.000000000
    8          6          -0.007138932    0.012694769    0.000000000
    9          7           0.005794398   -0.003558135    0.000000000
 -------------------------------------------------------------------
 Cartesian Forces:  Max     0.021880257 RMS     0.006675449

 GradGradGradGradGradGradGradGradGradGradGradGradGradGradGradGradGradGrad
 Berny optimization.
 Internal  Forces:  Max     0.021219228 RMS     0.005249252
 Search for a local minimum.
 Step number   1 out of a maximum of  48
 All quantities printed in internal units (Hartrees-Bohrs-Radians)
 Second derivative matrix not updated -- first step.
     Eigenvalues ---    0.02198   0.02341   0.02379   0.02551   0.02603
     Eigenvalues ---    0.02705   0.16000   0.16000   0.16000   0.16000
     Eigenvalues ---    0.22000   0.22911   0.37115   0.37237   0.37427
     Eigenvalues ---    0.45111   0.47811   0.48902   0.51454   0.54834
     Eigenvalues ---    0.671221000.000001000.000001000.000001000.00000
     Eigenvalues --- 1000.000001000.000001000.000001000.000001000.00000
     Eigenvalues --- 1000.000001000.000001000.000001000.000001000.00000
     Eigenvalues --- 1000.000001000.000001000.00000
 RFO step:  Lambda=-1.86908878D-03.
 Linear search not attempted -- first point.
 Iteration  1 RMS(Cart)=  0.01224954 RMS(Int)=  0.00001984
 Iteration  2 RMS(Cart)=  0.00002599 RMS(Int)=  0.00000465
 Iteration  3 RMS(Cart)=  0.00000000 RMS(Int)=  0.00000465
 Variable       Old X    -DE/DX   Delta X   Delta X   Delta X     New X
                                 (Linear)    (Quad)   (Total)
    R1        2.59131   0.00263   0.00000   0.00571   0.00571   2.59703
    R2        2.43585   0.02122   0.00000   0.03123   0.03123   2.46709
    R3        1.87690   0.00961   0.00000   0.01958   0.01958   1.89648
    R4        2.01907   0.00613   0.00000   0.01629   0.01629   2.03536
    R5        2.55164   0.01641   0.00000   0.02865   0.02865   2.58029
    R6        2.59299   0.00183   0.00000   0.00229   0.00228   2.59527
    R7        2.02190   0.00640   0.00000   0.01711   0.01711   2.03901
    R8        2.02373   0.00680   0.00000   0.01824   0.01824   2.04197
    R9        2.55007   0.00911   0.00000   0.01690   0.01689   2.56697
    A1        1.83847  -0.00231   0.00000  -0.00385  -0.00383   1.83464
    A2        2.31081   0.00018   0.00000   0.00523   0.00524   2.31604
    A3        2.13616  -0.00159   0.00000  -0.00568  -0.00568   2.13048
    A4        1.83622   0.00141   0.00000   0.00045   0.00044   1.83666
    A5        1.92817   0.00088   0.00000   0.00211   0.00211   1.93028
    A6        2.11874  -0.00045   0.00000  -0.00114  -0.00114   2.11760
    A7        2.23628  -0.00043   0.00000  -0.00097  -0.00097   2.23530
    A8        2.19228   0.00121   0.00000   0.00473   0.00472   2.19700
    A9        1.95834  -0.00116   0.00000  -0.00169  -0.00169   1.95665
   A10        2.13257  -0.00005   0.00000  -0.00303  -0.00304   2.12954
   A11        2.21222  -0.00129   0.00000  -0.00580  -0.00579   2.20643
   A12        2.20738   0.00010   0.00000   0.00282   0.00282   2.21020
   A13        1.86359   0.00119   0.00000   0.00298   0.00297   1.86655
    D1        0.00000   0.00000   0.00000   0.00000   0.00000   0.00000
    D2        3.14159   0.00000   0.00000   0.00000   0.00000   3.14159
    D3        3.14159   0.00000   0.00000   0.00000   0.00000   3.14159
    D4        0.00000   0.00000   0.00000   0.00000   0.00000   0.00000
    D5        3.14159   0.00000   0.00000   0.00000   0.00000   3.14159
    D6        0.00000   0.00000   0.00000   0.00000   0.00000   0.00000
    D7        0.00000   0.00000   0.00000   0.00000   0.00000   0.00000
    D8        3.14159   0.00000   0.00000   0.00000   0.00000   3.14159
    D9        0.00000   0.00000   0.00000   0.00000   0.00000   0.00000
   D10        3.14159   0.00000   0.00000   0.00000   0.00000   3.14159
   D11        3.14159   0.00000   0.00000   0.00000   0.00000   3.14159
   D12        0.00000   0.00000   0.00000   0.00000   0.00000   0.00000
   D13        3.14159   0.00000   0.00000   0.00000   0.00000   3.14159
   D14        0.00000   0.00000   0.00000   0.00000   0.00000   0.00000
   D15        0.00000   0.00000   0.00000   0.00000   0.00000   0.00000
   D16        3.14159   0.00000   0.00000   0.00000   0.00000   3.14159
         Item               Value     Threshold  Converged?
 Maximum Force            0.021219     0.000450     NO 
 RMS     Force            0.005249     0.000300     NO 
 Maximum Displacement     0.032670     0.001800     NO 
 RMS     Displacement     0.012252     0.001200     NO 
 Predicted change in Energy=-9.378053D-04
 GradGradGradGradGradGradGradGradGradGradGradGradGradGradGradGradGradGrad

                          Input orientation:                          
 ---------------------------------------------------------------------
 Center     Atomic     Atomic              Coordinates (Angstroms)
 Number     Number      Type              X           Y           Z
 ---------------------------------------------------------------------
    1          7             0       -0.744415   -0.981822    0.000000
    2          1             0       -0.006799    2.102173    0.000000
    3          6             0        1.113016    0.292258    0.000000
    4          1             0        2.111818    0.695334    0.000000
    5          6             0        0.629869   -0.984834    0.000000
    6          1             0        1.188884   -1.907732    0.000000
    7          1             0       -2.091667    0.664533    0.000000
    8          6             0       -1.082118    0.279270    0.000000
    9          7             0        0.001322    1.098634    0.000000
 ---------------------------------------------------------------------
                    Distance matrix (angstroms):
                    1          2          3          4          5
     1  N    0.000000
     2  H    3.170978   0.000000
     3  C    2.252406   2.128328   0.000000
     4  H    3.312238   2.543173   1.077068   0.000000
     5  C    1.374288   3.151977   1.365429   2.240343   0.000000
     6  H    2.143585   4.184376   2.201298   2.761840   1.078999
     7  H    2.127339   2.532486   3.226234   4.203598   3.182322
     8  C    1.305525   2.116433   2.195172   3.220921   2.128111
     9  N    2.210073   1.003572   1.373356   2.148684   2.176215
                    6          7          8          9
     6  H    0.000000
     7  H    4.168761   0.000000
     8  C    3.152845   1.080564   0.000000
     9  N    3.232421   2.137533   1.358381   0.000000
 Stoichiometry    C3H4N2
 Framework group  CS[SG(C3H4N2)]
 Deg. of freedom    15
 Full point group                 CS      NOp   2
 Largest Abelian subgroup         CS      NOp   2
 Largest concise Abelian subgroup C1      NOp   1
                         Standard orientation:                         
 ---------------------------------------------------------------------
 Center     Atomic     Atomic              Coordinates (Angstroms)
 Number     Number      Type              X           Y           Z
 ---------------------------------------------------------------------
    1          7             0       -0.741413   -0.980369    0.000000
    2          1             0       -0.010206    2.105152    0.000000
    3          6             0        1.113367    0.297568    0.000000
    4          1             0        2.111329    0.702718    0.000000
    5          6             0        0.632875   -0.980526    0.000000
    6          1             0        1.193806   -1.902260    0.000000
    7          1             0       -2.092083    0.663183    0.000000
    8          6             0       -1.081735    0.280019    0.000000
    9          7             0        0.000000    1.101632    0.000000
 ---------------------------------------------------------------------
 Rotational constants (GHZ):      9.8459280      9.4599699      4.8245455
 Standard basis: 6-31G(2df,p) (6D, 7F)
 There are   111 symmetry adapted basis functions of A'  symmetry.
 There are    49 symmetry adapted basis functions of A"  symmetry.
 Integral buffers will be    262144 words long.
 Raffenetti 2 integral format.
 Two-electron integral symmetry is turned on.
   160 basis functions,   248 primitive gaussians,   175 cartesian basis functions
    18 alpha electrons       18 beta electrons
       nuclear repulsion energy       163.8364284172 Hartrees.
 NAtoms=    9 NActive=    9 NUniq=    9 SFac= 1.00D+00 NAtFMM=   60 Big=F
 One-electron integrals computed using PRISM.
 NBasis=   160 RedAO= T  NBF=   111    49
 NBsUse=   160 1.00D-06 NBFU=   111    49
 Initial guess read from the read-write file:
 Initial guess orbital symmetries:
       Occupied  (A') (A') (A') (A') (A') (A') (A') (A') (A') (A')
                 (A') (A') (A") (A') (A') (A") (A') (A")
       Virtual   (A") (A") (A') (A') (A') (A') (A') (A') (A') (A')
                 (A') (A') (A") (A') (A') (A") (A') (A') (A") (A')
                 (A") (A') (A') (A") (A') (A") (A') (A') (A') (A")
                 (A") (A') (A') (A") (A") (A') (A') (A') (A') (A')
                 (A') (A") (A") (A') (A") (A') (A') (A") (A') (A')
                 (A') (A') (A") (A') (A') (A') (A') (A") (A') (A')
                 (A') (A") (A') (A") (A') (A") (A') (A') (A') (A")
                 (A") (A') (A') (A') (A') (A") (A') (A") (A') (A")
                 (A") (A') (A') (A') (A') (A") (A') (A') (A") (A')
                 (A") (A') (A') (A') (A') (A") (A') (A') (A") (A')
                 (A") (A") (A') (A") (A") (A") (A') (A") (A') (A")
                 (A") (A') (A") (A") (A') (A") (A") (A') (A") (A')
                 (A') (A') (A') (A') (A') (A") (A') (A') (A') (A')
                 (A') (A') (A') (A') (A') (A') (A') (A') (A') (A')
                 (A') (A')
 Harris functional with IExCor=  908 diagonalized for initial guess.
 ExpMin= 1.61D-01 ExpMax= 4.17D+03 ExpMxC= 6.27D+02 IAcc=1 IRadAn=         1 AccDes= 1.00D-06
 HarFok:  IExCor= 908 AccDes= 1.00D-06 IRadAn=         1 IDoV=1
 ScaDFX=  1.000000  1.000000  1.000000  1.000000
 Requested convergence on RMS density matrix=1.00D-08 within 128 cycles.
 Requested convergence on MAX density matrix=1.00D-06.
 Requested convergence on             energy=1.00D-06.
 No special actions if energy rises.
 Integral accuracy reduced to 1.0D-05 until final iterations.
 Initial convergence to 1.0D-05 achieved.  Increase integral accuracy.
 SCF Done:  E(RmPW+HF-PW91) =  -226.180434130     A.U. after   10 cycles
             Convg  =    0.8971D-08             -V/T =  2.0071
             S**2   =   0.0000
 ***** Axes restored to original set *****
 -------------------------------------------------------------------
 Center     Atomic                   Forces (Hartrees/Bohr)
 Number     Number              X              Y              Z
 -------------------------------------------------------------------
    1          7           0.003140261   -0.002114401    0.000000000
    2          1           0.000086741   -0.000307572    0.000000000
    3          6           0.000212578    0.001543287    0.000000000
    4          1          -0.000313745    0.000027475    0.000000000
    5          6          -0.002736933    0.000232181    0.000000000
    6          1           0.000000371    0.000344303    0.000000000
    7          1           0.000621731   -0.000286635    0.000000000
    8          6          -0.001840412    0.003764387    0.000000000
    9          7           0.000829407   -0.003203024    0.000000000
 -------------------------------------------------------------------
 Cartesian Forces:  Max     0.003764387 RMS     0.001408928

 GradGradGradGradGradGradGradGradGradGradGradGradGradGradGradGradGradGrad
 Berny optimization.
 Internal  Forces:  Max     0.002008539 RMS     0.000691988
 Search for a local minimum.
 Step number   2 out of a maximum of  48
 All quantities printed in internal units (Hartrees-Bohrs-Radians)
 Update second derivatives using D2CorX and points  1  2
 Trust test= 9.92D-01 RLast= 5.97D-02 DXMaxT set to 3.00D-01
     Eigenvalues ---    0.02199   0.02341   0.02381   0.02553   0.02604
     Eigenvalues ---    0.02707   0.15942   0.16000   0.16000   0.16017
     Eigenvalues ---    0.21665   0.22918   0.37160   0.37353   0.38021
     Eigenvalues ---    0.45207   0.47363   0.49210   0.51014   0.58140
     Eigenvalues ---    0.636031000.000001000.000001000.000001000.00000
     Eigenvalues --- 1000.000001000.000001000.000001000.000001000.00000
     Eigenvalues --- 1000.000001000.000001000.000001000.000001000.00000
     Eigenvalues --- 1000.000001000.000001000.00000
 RFO step:  Lambda=-4.78354023D-05.
 Quartic linear search produced a step of  0.00933.
 Iteration  1 RMS(Cart)=  0.00186166 RMS(Int)=  0.00000281
 Iteration  2 RMS(Cart)=  0.00000332 RMS(Int)=  0.00000126
 Iteration  3 RMS(Cart)=  0.00000000 RMS(Int)=  0.00000126
 Variable       Old X    -DE/DX   Delta X   Delta X   Delta X     New X
                                 (Linear)    (Quad)   (Total)
    R1        2.59703  -0.00199   0.00005  -0.00379  -0.00374   2.59329
    R2        2.46709   0.00201   0.00029   0.00363   0.00392   2.47101
    R3        1.89648  -0.00031   0.00018  -0.00031  -0.00013   1.89635
    R4        2.03536  -0.00028   0.00015  -0.00048  -0.00033   2.03503
    R5        2.58029   0.00004   0.00027   0.00031   0.00057   2.58086
    R6        2.59527  -0.00174   0.00002  -0.00369  -0.00367   2.59160
    R7        2.03901  -0.00029   0.00016  -0.00051  -0.00035   2.03866
    R8        2.04197  -0.00068   0.00017  -0.00155  -0.00138   2.04059
    R9        2.56697  -0.00097   0.00016  -0.00138  -0.00122   2.56575
    A1        1.83464  -0.00014  -0.00004   0.00044   0.00040   1.83503
    A2        2.31604   0.00040   0.00005   0.00276   0.00280   2.31885
    A3        2.13048   0.00010  -0.00005   0.00071   0.00066   2.13114
    A4        1.83666  -0.00050   0.00000  -0.00347  -0.00346   1.83320
    A5        1.93028   0.00062   0.00002   0.00241   0.00242   1.93270
    A6        2.11760  -0.00012  -0.00001  -0.00005  -0.00005   2.11755
    A7        2.23530  -0.00049  -0.00001  -0.00236  -0.00237   2.23293
    A8        2.19700   0.00055   0.00004   0.00210   0.00214   2.19915
    A9        1.95665  -0.00120  -0.00002  -0.00468  -0.00470   1.95195
   A10        2.12954   0.00065  -0.00003   0.00258   0.00255   2.13209
   A11        2.20643  -0.00069  -0.00005  -0.00322  -0.00328   2.20315
   A12        2.21020  -0.00053   0.00003  -0.00208  -0.00206   2.20814
   A13        1.86655   0.00122   0.00003   0.00531   0.00534   1.87189
    D1        0.00000   0.00000   0.00000   0.00000   0.00000   0.00000
    D2        3.14159   0.00000   0.00000   0.00000   0.00000   3.14159
    D3        3.14159   0.00000   0.00000   0.00000   0.00000   3.14159
    D4        0.00000   0.00000   0.00000   0.00000   0.00000   0.00000
    D5        3.14159   0.00000   0.00000   0.00000   0.00000   3.14159
    D6        0.00000   0.00000   0.00000   0.00000   0.00000   0.00000
    D7        0.00000   0.00000   0.00000   0.00000   0.00000   0.00000
    D8        3.14159   0.00000   0.00000   0.00000   0.00000   3.14159
    D9        0.00000   0.00000   0.00000   0.00000   0.00000   0.00000
   D10        3.14159   0.00000   0.00000   0.00000   0.00000   3.14159
   D11        3.14159   0.00000   0.00000   0.00000   0.00000   3.14159
   D12        0.00000   0.00000   0.00000   0.00000   0.00000   0.00000
   D13        3.14159   0.00000   0.00000   0.00000   0.00000   3.14159
   D14        0.00000   0.00000   0.00000   0.00000   0.00000   0.00000
   D15        0.00000   0.00000   0.00000   0.00000   0.00000   0.00000
   D16        3.14159   0.00000   0.00000   0.00000   0.00000   3.14159
         Item               Value     Threshold  Converged?
 Maximum Force            0.002009     0.000450     NO 
 RMS     Force            0.000692     0.000300     NO 
 Maximum Displacement     0.005854     0.001800     NO 
 RMS     Displacement     0.001862     0.001200     NO 
 Predicted change in Energy=-2.397784D-05
 GradGradGradGradGradGradGradGradGradGradGradGradGradGradGradGradGradGrad

                          Input orientation:                          
 ---------------------------------------------------------------------
 Center     Atomic     Atomic              Coordinates (Angstroms)
 Number     Number      Type              X           Y           Z
 ---------------------------------------------------------------------
    1          7             0       -0.743563   -0.982503    0.000000
    2          1             0       -0.005139    2.099076    0.000000
    3          6             0        1.113685    0.292739    0.000000
    4          1             0        2.111725    0.697231    0.000000
    5          6             0        0.628744   -0.983997    0.000000
    6          1             0        1.188631   -1.906150    0.000000
    7          1             0       -2.092316    0.665737    0.000000
    8          6             0       -1.083698    0.280086    0.000000
    9          7             0        0.001840    1.095596    0.000000
 ---------------------------------------------------------------------
                    Distance matrix (angstroms):
                    1          2          3          4          5
     1  N    0.000000
     2  H    3.168817   0.000000
     3  C    2.252912   2.124763   0.000000
     4  H    3.312729   2.538953   1.076892   0.000000
     5  C    1.372308   3.147562   1.365732   2.241821   0.000000
     6  H    2.141610   4.179344   2.200166   2.762190   1.078813
     7  H    2.129749   2.531949   3.227626   4.204159   3.182105
     8  C    1.307602   2.114713   2.197419   3.222536   2.128465
     9  N    2.207741   1.003504   1.371414   2.147163   2.172030
                    6          7          8          9
     6  H    0.000000
     7  H    4.168839   0.000000
     8  C    3.153269   1.079832   0.000000
     9  N    3.227839   2.137818   1.357736   0.000000
 Stoichiometry    C3H4N2
 Framework group  CS[SG(C3H4N2)]
 Deg. of freedom    15
 Full point group                 CS      NOp   2
 Largest Abelian subgroup         CS      NOp   2
 Largest concise Abelian subgroup C1      NOp   1
                         Standard orientation:                         
 ---------------------------------------------------------------------
 Center     Atomic     Atomic              Coordinates (Angstroms)
 Number     Number      Type              X           Y           Z
 ---------------------------------------------------------------------
    1          7             0       -0.739989   -0.981114    0.000000
    2          1             0       -0.009592    2.102377    0.000000
    3          6             0        1.113932    0.298960    0.000000
    4          1             0        2.110915    0.706049    0.000000
    5          6             0        0.632317   -0.979035    0.000000
    6          1             0        1.194603   -1.899726    0.000000
    7          1             0       -2.093030    0.663609    0.000000
    8          6             0       -1.083411    0.280585    0.000000
    9          7             0        0.000000    1.098919    0.000000
 ---------------------------------------------------------------------
 Rotational constants (GHZ):      9.8495892      9.4700606      4.8280485
 Standard basis: 6-31G(2df,p) (6D, 7F)
 There are   111 symmetry adapted basis functions of A'  symmetry.
 There are    49 symmetry adapted basis functions of A"  symmetry.
 Integral buffers will be    262144 words long.
 Raffenetti 2 integral format.
 Two-electron integral symmetry is turned on.
   160 basis functions,   248 primitive gaussians,   175 cartesian basis functions
    18 alpha electrons       18 beta electrons
       nuclear repulsion energy       163.8903412235 Hartrees.
 NAtoms=    9 NActive=    9 NUniq=    9 SFac= 1.00D+00 NAtFMM=   60 Big=F
 One-electron integrals computed using PRISM.
 NBasis=   160 RedAO= T  NBF=   111    49
 NBsUse=   160 1.00D-06 NBFU=   111    49
 Initial guess read from the read-write file:
 Initial guess orbital symmetries:
       Occupied  (A') (A') (A') (A') (A') (A') (A') (A') (A') (A')
                 (A') (A') (A') (A") (A') (A") (A') (A")
       Virtual   (A") (A") (A') (A') (A') (A') (A') (A') (A') (A')
                 (A') (A') (A") (A') (A') (A") (A') (A') (A') (A")
                 (A") (A') (A') (A') (A") (A') (A") (A') (A') (A")
                 (A") (A') (A') (A") (A") (A') (A') (A') (A') (A')
                 (A') (A") (A") (A') (A") (A') (A') (A") (A') (A')
                 (A') (A') (A") (A') (A') (A') (A') (A") (A') (A')
                 (A') (A") (A') (A") (A') (A") (A') (A') (A') (A")
                 (A") (A') (A') (A') (A') (A") (A') (A") (A') (A")
                 (A") (A') (A') (A') (A') (A") (A') (A') (A') (A")
                 (A") (A') (A') (A') (A') (A") (A') (A') (A") (A')
                 (A") (A") (A') (A") (A") (A") (A') (A") (A") (A')
                 (A") (A') (A") (A") (A') (A") (A") (A') (A") (A')
                 (A') (A') (A') (A') (A') (A") (A') (A') (A') (A')
                 (A') (A') (A') (A') (A') (A') (A') (A') (A') (A')
                 (A') (A')
 Requested convergence on RMS density matrix=1.00D-08 within 128 cycles.
 Requested convergence on MAX density matrix=1.00D-06.
 Requested convergence on             energy=1.00D-06.
 No special actions if energy rises.
 SCF Done:  E(RmPW+HF-PW91) =  -226.180462634     A.U. after    9 cycles
             Convg  =    0.5471D-08             -V/T =  2.0071
             S**2   =   0.0000
 ***** Axes restored to original set *****
 -------------------------------------------------------------------
 Center     Atomic                   Forces (Hartrees/Bohr)
 Number     Number              X              Y              Z
 -------------------------------------------------------------------
    1          7           0.001426337   -0.000741382    0.000000000
    2          1          -0.000012287   -0.000095801    0.000000000
    3          6          -0.000177504    0.000529286    0.000000000
    4          1          -0.000232793   -0.000036762    0.000000000
    5          6          -0.001341314   -0.000555238    0.000000000
    6          1           0.000020797    0.000097922    0.000000000
    7          1           0.000271318   -0.000155819    0.000000000
    8          6           0.000175366    0.001330568    0.000000000
    9          7          -0.000129921   -0.000372773    0.000000000
 -------------------------------------------------------------------
 Cartesian Forces:  Max     0.001426337 RMS     0.000513987

 GradGradGradGradGradGradGradGradGradGradGradGradGradGradGradGradGradGrad
 Berny optimization.
 Internal  Forces:  Max     0.001262101 RMS     0.000297722
 Search for a local minimum.
 Step number   3 out of a maximum of  48
 All quantities printed in internal units (Hartrees-Bohrs-Radians)
 Update second derivatives using D2CorX and points  1  2  3
 Trust test= 1.19D+00 RLast= 1.25D-02 DXMaxT set to 3.00D-01
     Eigenvalues ---    0.02199   0.02341   0.02381   0.02553   0.02603
     Eigenvalues ---    0.02707   0.15578   0.16000   0.16003   0.16020
     Eigenvalues ---    0.22793   0.24178   0.35745   0.37394   0.37609
     Eigenvalues ---    0.38798   0.45417   0.49227   0.51249   0.55931
     Eigenvalues ---    0.630141000.000001000.000001000.000001000.00000
     Eigenvalues --- 1000.000001000.000001000.000001000.000001000.00000
     Eigenvalues --- 1000.000001000.000001000.000001000.000001000.00000
     Eigenvalues --- 1000.000001000.000001000.00000
 RFO step:  Lambda=-7.40572526D-06.
 Quartic linear search produced a step of  0.23348.
 Iteration  1 RMS(Cart)=  0.00080343 RMS(Int)=  0.00000035
 Iteration  2 RMS(Cart)=  0.00000015 RMS(Int)=  0.00000032
 Variable       Old X    -DE/DX   Delta X   Delta X   Delta X     New X
                                 (Linear)    (Quad)   (Total)
    R1        2.59329  -0.00126  -0.00087  -0.00272  -0.00359   2.58970
    R2        2.47101   0.00081   0.00092   0.00144   0.00236   2.47337
    R3        1.89635  -0.00010  -0.00003  -0.00005  -0.00008   1.89627
    R4        2.03503  -0.00023  -0.00008  -0.00058  -0.00066   2.03437
    R5        2.58086   0.00039   0.00013   0.00106   0.00119   2.58205
    R6        2.59160  -0.00043  -0.00086  -0.00079  -0.00165   2.58995
    R7        2.03866  -0.00007  -0.00008  -0.00006  -0.00014   2.03852
    R8        2.04059  -0.00031  -0.00032  -0.00075  -0.00108   2.03951
    R9        2.56575  -0.00071  -0.00028  -0.00133  -0.00161   2.56414
    A1        1.83503  -0.00002   0.00009   0.00001   0.00010   1.83513
    A2        2.31885  -0.00003   0.00065  -0.00013   0.00052   2.31937
    A3        2.13114  -0.00014   0.00015  -0.00092  -0.00076   2.13037
    A4        1.83320   0.00017  -0.00081   0.00105   0.00024   1.83344
    A5        1.93270  -0.00006   0.00057  -0.00061  -0.00005   1.93266
    A6        2.11755   0.00010  -0.00001   0.00076   0.00075   2.11830
    A7        2.23293  -0.00004  -0.00055  -0.00015  -0.00070   2.23223
    A8        2.19915  -0.00007   0.00050  -0.00068  -0.00018   2.19897
    A9        1.95195   0.00003  -0.00110   0.00068  -0.00042   1.95153
   A10        2.13209   0.00003   0.00060   0.00000   0.00059   2.13268
   A11        2.20315   0.00007  -0.00077   0.00067  -0.00010   2.20306
   A12        2.20814   0.00005  -0.00048   0.00045  -0.00003   2.20811
   A13        1.87189  -0.00012   0.00125  -0.00112   0.00012   1.87201
    D1        0.00000   0.00000   0.00000   0.00000   0.00000   0.00000
    D2        3.14159   0.00000   0.00000   0.00000   0.00000   3.14159
    D3        3.14159   0.00000   0.00000   0.00000   0.00000   3.14159
    D4        0.00000   0.00000   0.00000   0.00000   0.00000   0.00000
    D5        3.14159   0.00000   0.00000   0.00000   0.00000   3.14159
    D6        0.00000   0.00000   0.00000   0.00000   0.00000   0.00000
    D7        0.00000   0.00000   0.00000   0.00000   0.00000   0.00000
    D8        3.14159   0.00000   0.00000   0.00000   0.00000   3.14159
    D9        0.00000   0.00000   0.00000   0.00000   0.00000   0.00000
   D10        3.14159   0.00000   0.00000   0.00000   0.00000   3.14159
   D11        3.14159   0.00000   0.00000   0.00000   0.00000   3.14159
   D12        0.00000   0.00000   0.00000   0.00000   0.00000   0.00000
   D13        3.14159   0.00000   0.00000   0.00000   0.00000   3.14159
   D14        0.00000   0.00000   0.00000   0.00000   0.00000   0.00000
   D15        0.00000   0.00000   0.00000   0.00000   0.00000   0.00000
   D16        3.14159   0.00000   0.00000   0.00000   0.00000   3.14159
         Item               Value     Threshold  Converged?
 Maximum Force            0.001262     0.000450     NO 
 RMS     Force            0.000298     0.000300     YES
 Maximum Displacement     0.002452     0.001800     NO 
 RMS     Displacement     0.000803     0.001200     YES
 Predicted change in Energy=-4.758182D-06
 GradGradGradGradGradGradGradGradGradGradGradGradGradGradGradGradGradGrad

                          Input orientation:                          
 ---------------------------------------------------------------------
 Center     Atomic     Atomic              Coordinates (Angstroms)
 Number     Number      Type              X           Y           Z
 ---------------------------------------------------------------------
    1          7             0       -0.742512   -0.983045    0.000000
    2          1             0       -0.004779    2.098836    0.000000
    3          6             0        1.112956    0.292875    0.000000
    4          1             0        2.110428    0.697841    0.000000
    5          6             0        0.627895   -0.984491    0.000000
    6          1             0        1.188468   -1.906141    0.000000
    7          1             0       -2.091349    0.665837    0.000000
    8          6             0       -1.083141    0.280704    0.000000
    9          7             0        0.001945    1.095397    0.000000
 ---------------------------------------------------------------------
                    Distance matrix (angstroms):
                    1          2          3          4          5
     1  N    0.000000
     2  H    3.168949   0.000000
     3  C    2.251829   2.123870   0.000000
     4  H    3.311290   2.537102   1.076544   0.000000
     5  C    1.370408   3.147567   1.366364   2.242352   0.000000
     6  H    2.140277   4.178956   2.200312   2.762378   1.078740
     7  H    2.130299   2.531256   3.225937   4.201898   3.180860
     8  C    1.308851   2.113875   2.196131   3.220697   2.127996
     9  N    2.207745   1.003461   1.370543   2.145635   2.172038
                    6          7          8          9
     6  H    0.000000
     7  H    4.168005   0.000000
     8  C    3.153173   1.079263   0.000000
     9  N    3.227548   2.136913   1.356885   0.000000
 Stoichiometry    C3H4N2
 Framework group  CS[SG(C3H4N2)]
 Deg. of freedom    15
 Full point group                 CS      NOp   2
 Largest Abelian subgroup         CS      NOp   2
 Largest concise Abelian subgroup C1      NOp   1
                         Standard orientation:                         
 ---------------------------------------------------------------------
 Center     Atomic     Atomic              Coordinates (Angstroms)
 Number     Number      Type              X           Y           Z
 ---------------------------------------------------------------------
    1          7             0       -0.738939   -0.981603    0.000000
    2          1             0       -0.009386    2.102224    0.000000
    3          6             0        1.113137    0.299236    0.000000
    4          1             0        2.109530    0.706847    0.000000
    5          6             0        0.631467   -0.979413    0.000000
    6          1             0        1.194482   -1.899572    0.000000
    7          1             0       -2.092146    0.663695    0.000000
    8          6             0       -1.082921    0.281239    0.000000
    9          7             0        0.000000    1.098808    0.000000
 ---------------------------------------------------------------------
 Rotational constants (GHZ):      9.8594607      9.4703949      4.8305062
 Standard basis: 6-31G(2df,p) (6D, 7F)
 There are   111 symmetry adapted basis functions of A'  symmetry.
 There are    49 symmetry adapted basis functions of A"  symmetry.
 Integral buffers will be    262144 words long.
 Raffenetti 2 integral format.
 Two-electron integral symmetry is turned on.
   160 basis functions,   248 primitive gaussians,   175 cartesian basis functions
    18 alpha electrons       18 beta electrons
       nuclear repulsion energy       163.9310357876 Hartrees.
 NAtoms=    9 NActive=    9 NUniq=    9 SFac= 1.00D+00 NAtFMM=   60 Big=F
 One-electron integrals computed using PRISM.
 NBasis=   160 RedAO= T  NBF=   111    49
 NBsUse=   160 1.00D-06 NBFU=   111    49
 Initial guess read from the read-write file:
 Initial guess orbital symmetries:
       Occupied  (A') (A') (A') (A') (A') (A') (A') (A') (A') (A')
                 (A') (A') (A') (A") (A') (A") (A') (A")
       Virtual   (A") (A") (A') (A') (A') (A') (A') (A') (A') (A')
                 (A') (A') (A") (A') (A') (A") (A') (A') (A') (A")
                 (A") (A') (A') (A') (A") (A') (A") (A') (A') (A")
                 (A") (A') (A') (A") (A") (A') (A') (A') (A') (A')
                 (A') (A") (A") (A') (A") (A') (A') (A") (A') (A')
                 (A') (A') (A") (A') (A') (A') (A') (A") (A') (A')
                 (A') (A") (A') (A") (A') (A") (A') (A') (A') (A")
                 (A") (A') (A') (A') (A') (A") (A') (A") (A') (A")
                 (A") (A') (A') (A') (A') (A") (A') (A') (A') (A")
                 (A") (A') (A') (A') (A') (A") (A') (A') (A") (A')
                 (A") (A") (A') (A") (A") (A") (A') (A") (A") (A')
                 (A") (A') (A") (A") (A') (A") (A") (A') (A") (A')
                 (A') (A') (A') (A') (A') (A") (A') (A') (A') (A')
                 (A') (A') (A') (A') (A') (A') (A') (A') (A') (A')
                 (A') (A')
 Requested convergence on RMS density matrix=1.00D-08 within 128 cycles.
 Requested convergence on MAX density matrix=1.00D-06.
 Requested convergence on             energy=1.00D-06.
 No special actions if energy rises.
 SCF Done:  E(RmPW+HF-PW91) =  -226.180466923     A.U. after    8 cycles
             Convg  =    0.8839D-08             -V/T =  2.0071
             S**2   =   0.0000
 ***** Axes restored to original set *****
 -------------------------------------------------------------------
 Center     Atomic                   Forces (Hartrees/Bohr)
 Number     Number              X              Y              Z
 -------------------------------------------------------------------
    1          7          -0.000071697    0.000255744    0.000000000
    2          1          -0.000019784   -0.000048416    0.000000000
    3          6           0.000307272   -0.000033872    0.000000000
    4          1           0.000047548   -0.000017594    0.000000000
    5          6          -0.000110957   -0.000043865    0.000000000
    6          1           0.000058404    0.000023217    0.000000000
    7          1          -0.000083134   -0.000041575    0.000000000
    8          6           0.000070831   -0.000062556    0.000000000
    9          7          -0.000198483   -0.000031083    0.000000000
 -------------------------------------------------------------------
 Cartesian Forces:  Max     0.000307272 RMS     0.000095749

 GradGradGradGradGradGradGradGradGradGradGradGradGradGradGradGradGradGrad
 Berny optimization.
 Internal  Forces:  Max     0.000216696 RMS     0.000067252
 Search for a local minimum.
 Step number   4 out of a maximum of  48
 All quantities printed in internal units (Hartrees-Bohrs-Radians)
 Update second derivatives using D2CorX and points  1  2  3  4
 Trust test= 9.01D-01 RLast= 5.42D-03 DXMaxT set to 3.00D-01
     Eigenvalues ---    0.02199   0.02340   0.02381   0.02553   0.02603
     Eigenvalues ---    0.02707   0.14751   0.16000   0.16007   0.16112
     Eigenvalues ---    0.22070   0.23017   0.37176   0.37395   0.37903
     Eigenvalues ---    0.43789   0.46284   0.48901   0.51040   0.55920
     Eigenvalues ---    0.631481000.000001000.000001000.000001000.00000
     Eigenvalues --- 1000.000001000.000001000.000001000.000001000.00000
     Eigenvalues --- 1000.000001000.000001000.000001000.000001000.00000
     Eigenvalues --- 1000.000001000.000001000.00000
 RFO step:  Lambda=-3.59695152D-07.
 Quartic linear search produced a step of -0.09052.
 Iteration  1 RMS(Cart)=  0.00024558 RMS(Int)=  0.00000003
 Iteration  2 RMS(Cart)=  0.00000004 RMS(Int)=  0.00000001
 Variable       Old X    -DE/DX   Delta X   Delta X   Delta X     New X
                                 (Linear)    (Quad)   (Total)
    R1        2.58970   0.00005   0.00033  -0.00030   0.00002   2.58972
    R2        2.47337  -0.00020  -0.00021  -0.00006  -0.00028   2.47309
    R3        1.89627  -0.00005   0.00001  -0.00010  -0.00009   1.89618
    R4        2.03437   0.00004   0.00006   0.00002   0.00008   2.03445
    R5        2.58205   0.00001  -0.00011   0.00018   0.00007   2.58212
    R6        2.58995   0.00022   0.00015   0.00028   0.00043   2.59038
    R7        2.03852   0.00001   0.00001   0.00002   0.00003   2.03855
    R8        2.03951   0.00006   0.00010   0.00005   0.00014   2.03966
    R9        2.56414  -0.00003   0.00015  -0.00024  -0.00010   2.56404
    A1        1.83513   0.00009  -0.00001   0.00022   0.00022   1.83535
    A2        2.31937   0.00004  -0.00005   0.00005   0.00001   2.31938
    A3        2.13037   0.00011   0.00007   0.00032   0.00039   2.13076
    A4        1.83344  -0.00015  -0.00002  -0.00038  -0.00040   1.83304
    A5        1.93266   0.00002   0.00000   0.00008   0.00009   1.93274
    A6        2.11830   0.00006  -0.00007   0.00040   0.00033   2.11863
    A7        2.23223  -0.00007   0.00006  -0.00048  -0.00042   2.23182
    A8        2.19897  -0.00005   0.00002  -0.00033  -0.00032   2.19865
    A9        1.95153  -0.00004   0.00004  -0.00023  -0.00019   1.95134
   A10        2.13268   0.00009  -0.00005   0.00056   0.00051   2.13319
   A11        2.20306  -0.00002   0.00001  -0.00003  -0.00002   2.20303
   A12        2.20811  -0.00006   0.00000  -0.00027  -0.00026   2.20785
   A13        1.87201   0.00007  -0.00001   0.00030   0.00028   1.87230
    D1        0.00000   0.00000   0.00000   0.00000   0.00000   0.00000
    D2        3.14159   0.00000   0.00000   0.00000   0.00000   3.14159
    D3        3.14159   0.00000   0.00000   0.00000   0.00000   3.14159
    D4        0.00000   0.00000   0.00000   0.00000   0.00000   0.00000
    D5        3.14159   0.00000   0.00000   0.00000   0.00000   3.14159
    D6        0.00000   0.00000   0.00000   0.00000   0.00000   0.00000
    D7        0.00000   0.00000   0.00000   0.00000   0.00000   0.00000
    D8        3.14159   0.00000   0.00000   0.00000   0.00000   3.14159
    D9        0.00000   0.00000   0.00000   0.00000   0.00000   0.00000
   D10        3.14159   0.00000   0.00000   0.00000   0.00000   3.14159
   D11        3.14159   0.00000   0.00000   0.00000   0.00000   3.14159
   D12        0.00000   0.00000   0.00000   0.00000   0.00000   0.00000
   D13        3.14159   0.00000   0.00000   0.00000   0.00000   3.14159
   D14        0.00000   0.00000   0.00000   0.00000   0.00000   0.00000
   D15        0.00000   0.00000   0.00000   0.00000   0.00000   0.00000
   D16        3.14159   0.00000   0.00000   0.00000   0.00000   3.14159
         Item               Value     Threshold  Converged?
 Maximum Force            0.000217     0.000450     YES
 RMS     Force            0.000067     0.000300     YES
 Maximum Displacement     0.000766     0.001800     YES
 RMS     Displacement     0.000246     0.001200     YES
 Predicted change in Energy=-2.227840D-07
 Optimization completed.
    -- Stationary point found.
                           ----------------------------
                           !   Optimized Parameters   !
                           ! (Angstroms and Degrees)  !
 --------------------------                            --------------------------
 ! Name  Definition              Value          Derivative Info.                !
 --------------------------------------------------------------------------------
 ! R1    R(1,5)                  1.3704         -DE/DX =    0.0                 !
 ! R2    R(1,8)                  1.3089         -DE/DX =   -0.0002              !
 ! R3    R(2,9)                  1.0035         -DE/DX =    0.0                 !
 ! R4    R(3,4)                  1.0765         -DE/DX =    0.0                 !
 ! R5    R(3,5)                  1.3664         -DE/DX =    0.0                 !
 ! R6    R(3,9)                  1.3705         -DE/DX =    0.0002              !
 ! R7    R(5,6)                  1.0787         -DE/DX =    0.0                 !
 ! R8    R(7,8)                  1.0793         -DE/DX =    0.0001              !
 ! R9    R(8,9)                  1.3569         -DE/DX =    0.0                 !
 ! A1    A(5,1,8)              105.1454         -DE/DX =    0.0001              !
 ! A2    A(4,3,5)              132.8903         -DE/DX =    0.0                 !
 ! A3    A(4,3,9)              122.0613         -DE/DX =    0.0001              !
 ! A4    A(5,3,9)              105.0484         -DE/DX =   -0.0001              !
 ! A5    A(1,5,3)              110.7331         -DE/DX =    0.0                 !
 ! A6    A(1,5,6)              121.3696         -DE/DX =    0.0001              !
 ! A7    A(3,5,6)              127.8974         -DE/DX =   -0.0001              !
 ! A8    A(1,8,7)              125.9917         -DE/DX =   -0.0001              !
 ! A9    A(1,8,9)              111.8146         -DE/DX =    0.0                 !
 ! A10   A(7,8,9)              122.1937         -DE/DX =    0.0001              !
 ! A11   A(2,9,3)              126.2258         -DE/DX =    0.0                 !
 ! A12   A(2,9,8)              126.5156         -DE/DX =   -0.0001              !
 ! A13   A(3,9,8)              107.2586         -DE/DX =    0.0001              !
 ! D1    D(8,1,5,3)              0.0            -DE/DX =    0.0                 !
 ! D2    D(8,1,5,6)            180.0            -DE/DX =    0.0                 !
 ! D3    D(5,1,8,7)            180.0            -DE/DX =    0.0                 !
 ! D4    D(5,1,8,9)              0.0            -DE/DX =    0.0                 !
 ! D5    D(4,3,5,1)            180.0            -DE/DX =    0.0                 !
 ! D6    D(4,3,5,6)              0.0            -DE/DX =    0.0                 !
 ! D7    D(9,3,5,1)              0.0            -DE/DX =    0.0                 !
 ! D8    D(9,3,5,6)            180.0            -DE/DX =    0.0                 !
 ! D9    D(4,3,9,2)              0.0            -DE/DX =    0.0                 !
 ! D10   D(4,3,9,8)            180.0            -DE/DX =    0.0                 !
 ! D11   D(5,3,9,2)            180.0            -DE/DX =    0.0                 !
 ! D12   D(5,3,9,8)              0.0            -DE/DX =    0.0                 !
 ! D13   D(1,8,9,2)            180.0            -DE/DX =    0.0                 !
 ! D14   D(1,8,9,3)              0.0            -DE/DX =    0.0                 !
 ! D15   D(7,8,9,2)              0.0            -DE/DX =    0.0                 !
 ! D16   D(7,8,9,3)            180.0            -DE/DX =    0.0                 !
 --------------------------------------------------------------------------------
 GradGradGradGradGradGradGradGradGradGradGradGradGradGradGradGradGradGrad

                          Input orientation:                          
 ---------------------------------------------------------------------
 Center     Atomic     Atomic              Coordinates (Angstroms)
 Number     Number      Type              X           Y           Z
 ---------------------------------------------------------------------
    1          7             0       -0.742512   -0.983045    0.000000
    2          1             0       -0.004779    2.098836    0.000000
    3          6             0        1.112956    0.292875    0.000000
    4          1             0        2.110428    0.697841    0.000000
    5          6             0        0.627895   -0.984491    0.000000
    6          1             0        1.188468   -1.906141    0.000000
    7          1             0       -2.091349    0.665837    0.000000
    8          6             0       -1.083141    0.280704    0.000000
    9          7             0        0.001945    1.095397    0.000000
 ---------------------------------------------------------------------
                    Distance matrix (angstroms):
                    1          2          3          4          5
     1  N    0.000000
     2  H    3.168949   0.000000
     3  C    2.251829   2.123870   0.000000
     4  H    3.311290   2.537102   1.076544   0.000000
     5  C    1.370408   3.147567   1.366364   2.242352   0.000000
     6  H    2.140277   4.178956   2.200312   2.762378   1.078740
     7  H    2.130299   2.531256   3.225937   4.201898   3.180860
     8  C    1.308851   2.113875   2.196131   3.220697   2.127996
     9  N    2.207745   1.003461   1.370543   2.145635   2.172038
                    6          7          8          9
     6  H    0.000000
     7  H    4.168005   0.000000
     8  C    3.153173   1.079263   0.000000
     9  N    3.227548   2.136913   1.356885   0.000000
 Stoichiometry    C3H4N2
 Framework group  CS[SG(C3H4N2)]
 Deg. of freedom    15
 Full point group                 CS      NOp   2
 Largest Abelian subgroup         CS      NOp   2
 Largest concise Abelian subgroup C1      NOp   1
                         Standard orientation:                         
 ---------------------------------------------------------------------
 Center     Atomic     Atomic              Coordinates (Angstroms)
 Number     Number      Type              X           Y           Z
 ---------------------------------------------------------------------
    1          7             0       -0.738939   -0.981603    0.000000
    2          1             0       -0.009386    2.102224    0.000000
    3          6             0        1.113137    0.299236    0.000000
    4          1             0        2.109530    0.706847    0.000000
    5          6             0        0.631467   -0.979413    0.000000
    6          1             0        1.194482   -1.899572    0.000000
    7          1             0       -2.092146    0.663695    0.000000
    8          6             0       -1.082921    0.281239    0.000000
    9          7             0        0.000000    1.098808    0.000000
 ---------------------------------------------------------------------
 Rotational constants (GHZ):      9.8594607      9.4703949      4.8305062

 **********************************************************************

            Population analysis using the SCF density.

 **********************************************************************

 Orbital symmetries:
       Occupied  (A') (A') (A') (A') (A') (A') (A') (A') (A') (A')
                 (A') (A') (A') (A") (A') (A") (A') (A")
       Virtual   (A") (A") (A') (A') (A') (A') (A') (A') (A') (A')
                 (A') (A') (A") (A') (A') (A") (A') (A') (A') (A")
                 (A") (A') (A') (A') (A") (A') (A") (A') (A') (A")
                 (A") (A') (A') (A") (A") (A') (A') (A') (A') (A')
                 (A') (A") (A") (A') (A") (A') (A') (A") (A') (A')
                 (A') (A') (A") (A') (A') (A') (A') (A") (A') (A')
                 (A') (A") (A') (A") (A') (A") (A') (A') (A') (A")
                 (A") (A') (A') (A') (A') (A") (A') (A") (A') (A")
                 (A") (A') (A') (A') (A') (A") (A') (A') (A') (A")
                 (A") (A') (A') (A') (A') (A") (A') (A') (A") (A')
                 (A") (A") (A') (A") (A") (A") (A') (A") (A") (A')
                 (A") (A') (A") (A") (A') (A") (A") (A') (A") (A')
                 (A') (A') (A') (A') (A') (A") (A') (A') (A') (A')
                 (A') (A') (A') (A') (A') (A') (A') (A') (A') (A')
                 (A') (A')
 The electronic state is 1-A'.
 Alpha  occ. eigenvalues --  -14.46258 -14.37907 -10.28980 -10.26673 -10.24863
 Alpha  occ. eigenvalues --   -1.04064  -0.89110  -0.76101  -0.63028  -0.60360
 Alpha  occ. eigenvalues --   -0.57466  -0.44867  -0.44514  -0.44474  -0.41224
 Alpha  occ. eigenvalues --   -0.29032  -0.27582  -0.23566
 Alpha virt. eigenvalues --    0.04167   0.08290   0.09043   0.14996   0.16656
 Alpha virt. eigenvalues --    0.18653   0.23183   0.25045   0.29333   0.33838
 Alpha virt. eigenvalues --    0.41210   0.46372   0.49479   0.50412   0.54494
 Alpha virt. eigenvalues --    0.55941   0.57657   0.59096   0.60172   0.60647
 Alpha virt. eigenvalues --    0.66289   0.70938   0.72274   0.74687   0.75018
 Alpha virt. eigenvalues --    0.80605   0.80925   0.83249   0.83945   0.85936
 Alpha virt. eigenvalues --    0.87265   0.89298   0.92113   1.03248   1.04878
 Alpha virt. eigenvalues --    1.05512   1.12029   1.18595   1.23264   1.27333
 Alpha virt. eigenvalues --    1.33568   1.35349   1.35621   1.44365   1.46593
 Alpha virt. eigenvalues --    1.48669   1.52264   1.54122   1.57667   1.63921
 Alpha virt. eigenvalues --    1.69971   1.74932   1.75497   1.79701   1.87448
 Alpha virt. eigenvalues --    1.96301   1.99466   2.09460   2.14339   2.20156
 Alpha virt. eigenvalues --    2.27761   2.36309   2.37951   2.48636   2.50958
 Alpha virt. eigenvalues --    2.62884   2.65822   2.72775   2.83981   2.85268
 Alpha virt. eigenvalues --    2.89121   2.89756   2.99323   3.00979   3.06189
 Alpha virt. eigenvalues --    3.08145   3.10116   3.12466   3.17543   3.19248
 Alpha virt. eigenvalues --    3.20311   3.20762   3.23632   3.33184   3.36681
 Alpha virt. eigenvalues --    3.43113   3.44882   3.53923   3.62441   3.64611
 Alpha virt. eigenvalues --    3.66225   3.80843   3.82063   3.87411   3.94643
 Alpha virt. eigenvalues --    4.03288   4.04056   4.10288   4.13546   4.14044
 Alpha virt. eigenvalues --    4.17027   4.21785   4.25982   4.35059   4.41923
 Alpha virt. eigenvalues --    4.44849   4.45316   4.47351   4.51622   4.52155
 Alpha virt. eigenvalues --    4.55683   4.58448   4.60286   4.63146   4.67990
 Alpha virt. eigenvalues --    4.70674   4.73976   4.77348   4.78820   4.85969
 Alpha virt. eigenvalues --    4.88801   4.98645   5.03159   5.15071   5.20785
 Alpha virt. eigenvalues --    5.25201   5.29020   5.37920   5.44494   5.51029
 Alpha virt. eigenvalues --    5.62541   5.65958   5.92685   6.03299   6.24826
 Alpha virt. eigenvalues --   10.04469  10.43157  10.76372  11.37448  11.47135
 Alpha virt. eigenvalues --   14.28256  15.17091
          Condensed to atoms (all electrons):
              1          2          3          4          5          6
     1  N    6.327474   0.005729  -0.041366   0.004967   0.513389  -0.024953
     2  H    0.005729   0.409818  -0.030478  -0.000554   0.004231  -0.000118
     3  C   -0.041366  -0.030478   4.908740   0.377044   0.611494  -0.047650
     4  H    0.004967  -0.000554   0.377044   0.518287  -0.028055   0.000716
     5  C    0.513389   0.004231   0.611494  -0.028055   4.764006   0.391028
     6  H   -0.024953  -0.000118  -0.047650   0.000716   0.391028   0.535572
     7  H   -0.024416  -0.000009   0.004357  -0.000114   0.005828  -0.000175
     8  C    0.594065  -0.030950  -0.093104   0.003563  -0.133496   0.005549
     9  N   -0.076094   0.350982   0.428777  -0.031207  -0.036650   0.002491
              7          8          9
     1  N   -0.024416   0.594065  -0.076094
     2  H   -0.000009  -0.030950   0.350982
     3  C    0.004357  -0.093104   0.428777
     4  H   -0.000114   0.003563  -0.031207
     5  C    0.005828  -0.133496  -0.036650
     6  H   -0.000175   0.005549   0.002491
     7  H    0.513993   0.385298  -0.040455
     8  C    0.385298   4.776617   0.467027
     9  N   -0.040455   0.467027   6.212108
 Mulliken atomic charges:
              1
     1  N   -0.278796
     2  H    0.291349
     3  C   -0.117814
     4  H    0.155353
     5  C   -0.091776
     6  H    0.137539
     7  H    0.155693
     8  C    0.025431
     9  N   -0.276979
 Sum of Mulliken charges=   0.00000
 Atomic charges with hydrogens summed into heavy atoms:
              1
     1  N   -0.278796
     2  H    0.000000
     3  C    0.037538
     4  H    0.000000
     5  C    0.045763
     6  H    0.000000
     7  H    0.000000
     8  C    0.181125
     9  N    0.014370
 Sum of Mulliken charges=   0.00000
 Electronic spatial extent (au):  <R**2>=   281.5956
 Charge=     0.0000 electrons
 Dipole moment (field-independent basis, Debye):
    X=     1.0789    Y=     3.4995    Z=     0.0000  Tot=     3.6621
 Quadrupole moment (field-independent basis, Debye-Ang):
   XX=   -25.9206   YY=   -24.7910   ZZ=   -30.8642
   XY=    -3.0718   XZ=     0.0000   YZ=     0.0000
 Traceless Quadrupole moment (field-independent basis, Debye-Ang):
   XX=     1.2713   YY=     2.4010   ZZ=    -3.6723
   XY=    -3.0718   XZ=     0.0000   YZ=     0.0000
 Octapole moment (field-independent basis, Debye-Ang**2):
  XXX=     0.0708  YYY=    15.5281  ZZZ=     0.0000  XYY=     5.1849
  XXY=     6.0542  XXZ=     0.0000  XZZ=    -0.9444  YZZ=     1.0386
  YYZ=     0.0000  XYZ=     0.0000
 Hexadecapole moment (field-independent basis, Debye-Ang**3):
 XXXX=  -151.4383 YYYY=  -133.6898 ZZZZ=   -29.5057 XXXY=    -2.3560
 XXXZ=     0.0000 YYYX=    -8.3506 YYYZ=     0.0000 ZZZX=     0.0000
 ZZZY=     0.0000 XXYY=   -55.1392 XXZZ=   -36.7216 YYZZ=   -34.1061
 XXYZ=     0.0000 YYXZ=     0.0000 ZZXY=     0.6596
 N-N= 1.639310357876D+02 E-N=-8.542197262776D+02  KE= 2.245941835231D+02
 Symmetry A'   KE= 2.165233079466D+02
 Symmetry A"   KE= 8.070875576554D+00
 1|1|UNPC-UNK|FOpt|RmPW1PW91|6-31G(2df,p)|C3H4N2|PCUSER|30-Jul-2004|0||
 #MPW1PW91/6-31G(2DF,P) OPT FREQ||1himidaz casno=288324 method=25 basis
 =19||0,1|N,-0.7415411406,-0.9796386938,0.|H,-0.0038087259,2.1022419304
 ,0.|C,1.1139267538,0.2962818161,0.|H,2.1113982424,0.7012475618,0.|C,0.
 6288659948,-0.9810848189,0.|H,1.1894383513,-1.9027344664,0.|H,-2.09037
 80481,0.669243213,0.|C,-1.0821708502,0.2841108346,0.|N,0.0029152534,1.
 098803661,0.||Version=x86-Win32-G03RevB.05|State=1-A'|HF=-226.1804669|
 RMSD=8.839e-009|RMSF=9.575e-005|Dipole=0.4281393,1.3756891,0.|PG=CS [S
 G(C3H4N2)]||@


 HE THAT WALD REACHE THE SWEITE ROSE
 SULD NOW AND THEN BE SCRATCHED WT THE SCHARPE BREERES.
 -- PROVERBS AND REASONS OF THE YEAR 1585
           AS REPRINTED IN PAISLEY MAGAZINE 1828.
 Job cpu time:  0 days  0 hours 21 minutes 10.0 seconds.
 File lengths (MBytes):  RWF=     26 Int=      0 D2E=      0 Chk=      6 Scr=      1
 Normal termination of Gaussian 03 at Fri Jul 30 17:27:58 2004.
 Link1:  Proceeding to internal job step number  2.
 ----------------------------------------------------------------------
 #N Geom=AllCheck Guess=Read SCRF=Check GenChk RmPW1PW91/6-31G(2df,p) F
 req
 ----------------------------------------------------------------------
 1/10=4,29=7,30=1,38=1,40=1,46=1/1,3;
 2/40=1/2;
 3/5=1,6=6,7=104,11=2,16=1,25=1,30=1,70=2,71=2,74=-7/1,2,3;
 4/5=1,7=1/1;
 5/5=2,38=6/2;
 8/6=4,10=90,11=11,27=1073741824/1;
 11/6=1,8=1,9=11,15=111,16=1/1,2,10;
 10/6=1/2;
 6/7=2,8=2,9=2,10=2,18=1,28=1/1;
 7/8=1,10=1,25=1/1,2,3,16;
 1/10=4,30=1,46=1/3;
 99//99;
 ----------------------------------------
 1himidaz casno=288324 method=25 basis=19
 ----------------------------------------
 Redundant internal coordinates taken from checkpoint file:
 gxx.chk
 Charge =  0 Multiplicity = 1
 N,0,-0.7415411406,-0.9796386938,0.
 H,0,-0.0038087259,2.1022419304,0.
 C,0,1.1139267538,0.2962818161,0.
 H,0,2.1113982424,0.7012475618,0.
 C,0,0.6288659948,-0.9810848189,0.
 H,0,1.1894383513,-1.9027344664,0.
 H,0,-2.0903780481,0.669243213,0.
 C,0,-1.0821708502,0.2841108346,0.
 N,0,0.0029152534,1.098803661,0.
 Recover connectivity data from disk.

 GradGradGradGradGradGradGradGradGradGradGradGradGradGradGradGradGradGrad
 Berny optimization.
 Initialization pass.
                           ----------------------------
                           !    Initial Parameters    !
                           ! (Angstroms and Degrees)  !
 --------------------------                            --------------------------
 ! Name  Definition              Value          Derivative Info.                !
 --------------------------------------------------------------------------------
 ! R1    R(1,5)                  1.3704         calculate D2E/DX2 analytically  !
 ! R2    R(1,8)                  1.3089         calculate D2E/DX2 analytically  !
 ! R3    R(2,9)                  1.0035         calculate D2E/DX2 analytically  !
 ! R4    R(3,4)                  1.0765         calculate D2E/DX2 analytically  !
 ! R5    R(3,5)                  1.3664         calculate D2E/DX2 analytically  !
 ! R6    R(3,9)                  1.3705         calculate D2E/DX2 analytically  !
 ! R7    R(5,6)                  1.0787         calculate D2E/DX2 analytically  !
 ! R8    R(7,8)                  1.0793         calculate D2E/DX2 analytically  !
 ! R9    R(8,9)                  1.3569         calculate D2E/DX2 analytically  !
 ! A1    A(5,1,8)              105.1454         calculate D2E/DX2 analytically  !
 ! A2    A(4,3,5)              132.8903         calculate D2E/DX2 analytically  !
 ! A3    A(4,3,9)              122.0613         calculate D2E/DX2 analytically  !
 ! A4    A(5,3,9)              105.0484         calculate D2E/DX2 analytically  !
 ! A5    A(1,5,3)              110.7331         calculate D2E/DX2 analytically  !
 ! A6    A(1,5,6)              121.3696         calculate D2E/DX2 analytically  !
 ! A7    A(3,5,6)              127.8974         calculate D2E/DX2 analytically  !
 ! A8    A(1,8,7)              125.9917         calculate D2E/DX2 analytically  !
 ! A9    A(1,8,9)              111.8146         calculate D2E/DX2 analytically  !
 ! A10   A(7,8,9)              122.1937         calculate D2E/DX2 analytically  !
 ! A11   A(2,9,3)              126.2258         calculate D2E/DX2 analytically  !
 ! A12   A(2,9,8)              126.5156         calculate D2E/DX2 analytically  !
 ! A13   A(3,9,8)              107.2586         calculate D2E/DX2 analytically  !
 ! D1    D(8,1,5,3)              0.0            calculate D2E/DX2 analytically  !
 ! D2    D(8,1,5,6)            180.0            calculate D2E/DX2 analytically  !
 ! D3    D(5,1,8,7)            180.0            calculate D2E/DX2 analytically  !
 ! D4    D(5,1,8,9)              0.0            calculate D2E/DX2 analytically  !
 ! D5    D(4,3,5,1)            180.0            calculate D2E/DX2 analytically  !
 ! D6    D(4,3,5,6)              0.0            calculate D2E/DX2 analytically  !
 ! D7    D(9,3,5,1)              0.0            calculate D2E/DX2 analytically  !
 ! D8    D(9,3,5,6)            180.0            calculate D2E/DX2 analytically  !
 ! D9    D(4,3,9,2)              0.0            calculate D2E/DX2 analytically  !
 ! D10   D(4,3,9,8)            180.0            calculate D2E/DX2 analytically  !
[...]
   9   7    -0.02   0.04   0.00    -0.01   0.09   0.00    -0.31   0.01   0.00
                    16                     17                     18
                    A'                     A'                     A'
 Frequencies --  1532.3870              1583.0083              3276.6217
 Red. masses --     3.4475                 3.5407                 1.0919
 Frc consts  --     4.7697                 5.2277                 6.9072
 IR Inten    --    16.4901                14.1621                 5.9167
 Atom AN      X      Y      Z        X      Y      Z        X      Y      Z
   1   7    -0.02  -0.12   0.00    -0.02   0.19   0.00     0.00   0.00   0.00
   2   1     0.16  -0.14   0.00     0.53   0.02   0.00     0.00  -0.01   0.00
   3   6    -0.01   0.27   0.00     0.11   0.20   0.00    -0.02  -0.01   0.00
   4   1     0.32  -0.51   0.00     0.29  -0.13   0.00     0.28   0.11   0.00
   5   6     0.01  -0.15   0.00    -0.14  -0.22   0.00     0.04  -0.07   0.00
   6   1     0.03  -0.18   0.00     0.48   0.12   0.00    -0.45   0.75   0.00
   7   1    -0.25  -0.53   0.00     0.27   0.27   0.00    -0.34   0.13   0.00
   8   6     0.06   0.29   0.00     0.05  -0.23   0.00     0.03  -0.01   0.00
   9   7    -0.05  -0.13   0.00    -0.11   0.01   0.00     0.00   0.00   0.00
                    19                     20                     21
                    A'                     A'                     A'
 Frequencies --  3279.5916              3311.0317              3718.8260
 Red. masses --     1.0967                 1.1049                 1.0814
 Frc consts  --     6.9499                 7.1369                 8.8113
 IR Inten    --     0.4545                 1.4025                60.0221
 Atom AN      X      Y      Z        X      Y      Z        X      Y      Z
   1   7     0.00   0.00   0.00     0.00   0.00   0.00     0.00   0.00   0.00
   2   1    -0.01   0.01   0.00    -0.01  -0.02   0.00    -0.01   1.00   0.00
   3   6    -0.01  -0.01   0.00    -0.08  -0.04   0.00     0.00   0.00   0.00
   4   1     0.17   0.07   0.00     0.86   0.35   0.00     0.01   0.00   0.00
   5   6     0.02  -0.02   0.00    -0.01   0.03   0.00     0.00   0.00   0.00
   6   1    -0.16   0.27   0.00     0.17  -0.29   0.00     0.00   0.00   0.00
   7   1     0.87  -0.32   0.00    -0.06   0.02   0.00    -0.01   0.00   0.00
   8   6    -0.08   0.03   0.00     0.01   0.00   0.00     0.00   0.00   0.00
   9   7     0.00   0.00   0.00     0.00   0.00   0.00     0.00  -0.08   0.00

 -------------------
 - Thermochemistry -
 -------------------
 Temperature   298.150 Kelvin.  Pressure   1.00000 Atm.
 Atom  1 has atomic number  7 and mass  14.00307
 Atom  2 has atomic number  1 and mass   1.00783
 Atom  3 has atomic number  6 and mass  12.00000
 Atom  4 has atomic number  1 and mass   1.00783
 Atom  5 has atomic number  6 and mass  12.00000
 Atom  6 has atomic number  1 and mass   1.00783
 Atom  7 has atomic number  1 and mass   1.00783
 Atom  8 has atomic number  6 and mass  12.00000
 Atom  9 has atomic number  7 and mass  14.00307
 Molecular mass:    68.03745 amu.
 Principal axes and moments of inertia in atomic units:
                           1         2         3
     EIGENVALUES --   183.04665 190.56663 373.61327
           X            0.45064   0.89271   0.00000
           Y            0.89271  -0.45064   0.00000
           Z            0.00000   0.00000   1.00000
 This molecule is an asymmetric top.
 Rotational symmetry number  1.
 Rotational temperatures (Kelvin)      0.47318     0.45451     0.23183
 Rotational constants (GHZ):           9.85946     9.47039     4.83051
 Zero-point vibrational energy     189097.4 (Joules/Mol)
                                   45.19537 (Kcal/Mol)
 Warning -- explicit consideration of   1 degrees of freedom as
           vibrations may cause significant error
 Vibrational temperatures:    781.97   942.41   995.60  1067.26  1191.91
          (Kelvin)           1261.86  1306.43  1365.61  1572.29  1605.46
                             1674.86  1718.70  1859.31  2006.81  2106.19
                             2204.76  2277.59  4714.32  4718.60  4763.83
                             5350.55
 
 Zero-point correction=                           0.072023 (Hartree/Particle)
 Thermal correction to Energy=                    0.075740
 Thermal correction to Enthalpy=                  0.076684
 Thermal correction to Gibbs Free Energy=         0.045786
 Sum of electronic and zero-point Energies=           -226.108444
 Sum of electronic and thermal Energies=              -226.104727
 Sum of electronic and thermal Enthalpies=            -226.103783
 Sum of electronic and thermal Free Energies=         -226.134681
 
                     E (Thermal)             CV                S
                      KCal/Mol        Cal/Mol-Kelvin    Cal/Mol-Kelvin
 Total                   47.527             13.150             65.029
 Electronic               0.000              0.000              0.000
 Translational            0.889              2.981             38.570
 Rotational               0.889              2.981             24.081
 Vibrational             45.750              7.189              2.378
 Vibration  1             0.899              1.154              0.558
                       Q            Log10(Q)             Ln(Q)
 Total Bot       0.870521D-21        -21.060221        -48.492951
 Total V=0       0.116998D+13         12.068178         27.788006
 Vib (Bot)       0.965695D-33        -33.015160        -76.020215
 Vib (Bot)  1    0.290545D+00         -0.536787         -1.235998
 Vib (V=0)       0.129789D+01          0.113239          0.260742
 Vib (V=0)  1    0.107829D+01          0.032735          0.075374
 Electronic      0.100000D+01          0.000000          0.000000
 Translational   0.220586D+08          7.343577         16.909211
 Rotational      0.408660D+05          4.611362         10.618053
 ***** Axes restored to original set *****
 -------------------------------------------------------------------
 Center     Atomic                   Forces (Hartrees/Bohr)
 Number     Number              X              Y              Z
 -------------------------------------------------------------------
    1          7          -0.000071621    0.000255741    0.000000000
    2          1          -0.000019824   -0.000048315    0.000000000
    3          6           0.000307189   -0.000034067    0.000000000
    4          1           0.000047425   -0.000017611    0.000000000
    5          6          -0.000110884   -0.000043515    0.000000000
    6          1           0.000058383    0.000023207    0.000000000
    7          1          -0.000083223   -0.000041530    0.000000000
    8          6           0.000070682   -0.000062741    0.000000000
    9          7          -0.000198128   -0.000031169    0.000000000
 -------------------------------------------------------------------
 Cartesian Forces:  Max     0.000307189 RMS     0.000095702

 GradGradGradGradGradGradGradGradGradGradGradGradGradGradGradGradGradGrad
 Berny optimization.
 Internal  Forces:  Max     0.000216559 RMS     0.000067237
 Search for a local minimum.
 Step number   1 out of a maximum of   2
 All quantities printed in internal units (Hartrees-Bohrs-Radians)
 Second derivative matrix not updated -- analytic derivatives used.
     Eigenvalues ---    0.00558   0.01109   0.02065   0.02828   0.06056
     Eigenvalues ---    0.06305   0.09746   0.10403   0.10953   0.11835
     Eigenvalues ---    0.23244   0.24849   0.35994   0.37753   0.38121
     Eigenvalues ---    0.38448   0.42168   0.46338   0.48870   0.49579
     Eigenvalues ---    0.598401000.000001000.000001000.000001000.00000
     Eigenvalues --- 1000.000001000.000001000.000001000.000001000.00000
     Eigenvalues --- 1000.000001000.000001000.000001000.000001000.00000
     Eigenvalues --- 1000.000001000.000001000.00000
 Angle between quadratic step and forces=  34.61 degrees.
 Linear search not attempted -- first point.
 Iteration  1 RMS(Cart)=  0.00028414 RMS(Int)=  0.00000005
 Iteration  2 RMS(Cart)=  0.00000006 RMS(Int)=  0.00000001
 Variable       Old X    -DE/DX   Delta X   Delta X   Delta X     New X
                                 (Linear)    (Quad)   (Total)
    R1        2.58970   0.00005   0.00000  -0.00002  -0.00002   2.58968
    R2        2.47337  -0.00020   0.00000  -0.00033  -0.00033   2.47304
    R3        1.89627  -0.00005   0.00000  -0.00009  -0.00009   1.89618
    R4        2.03437   0.00004   0.00000   0.00007   0.00007   2.03444
    R5        2.58205   0.00001   0.00000   0.00009   0.00009   2.58215
    R6        2.58995   0.00022   0.00000   0.00056   0.00056   2.59051
    R7        2.03852   0.00001   0.00000   0.00004   0.00004   2.03857
    R8        2.03951   0.00006   0.00000   0.00017   0.00017   2.03968
    R9        2.56414  -0.00003   0.00000  -0.00017  -0.00017   2.56397
    A1        1.83513   0.00009   0.00000   0.00014   0.00014   1.83528
    A2        2.31937   0.00004   0.00000   0.00004   0.00004   2.31941
    A3        2.13037   0.00011   0.00000   0.00039   0.00039   2.13077
    A4        1.83344  -0.00015   0.00000  -0.00043  -0.00043   1.83301
    A5        1.93266   0.00002   0.00000   0.00014   0.00014   1.93280
    A6        2.11830   0.00006   0.00000   0.00051   0.00051   2.11880
    A7        2.23223  -0.00007   0.00000  -0.00065  -0.00065   2.23158
    A8        2.19897  -0.00005   0.00000  -0.00053  -0.00053   2.19844
    A9        1.95153  -0.00004   0.00000  -0.00005  -0.00005   1.95148
   A10        2.13268   0.00009   0.00000   0.00058   0.00058   2.13326
   A11        2.20306  -0.00002   0.00000   0.00006   0.00006   2.20312
   A12        2.20811  -0.00006   0.00000  -0.00026  -0.00026   2.20786
   A13        1.87201   0.00007   0.00000   0.00019   0.00019   1.87221
    D1        0.00000   0.00000   0.00000   0.00000   0.00000   0.00000
    D2        3.14159   0.00000   0.00000   0.00000   0.00000   3.14159
    D3        3.14159   0.00000   0.00000   0.00000   0.00000   3.14159
    D4        0.00000   0.00000   0.00000   0.00000   0.00000   0.00000
    D5        3.14159   0.00000   0.00000   0.00000   0.00000   3.14159
    D6        0.00000   0.00000   0.00000   0.00000   0.00000   0.00000
    D7        0.00000   0.00000   0.00000   0.00000   0.00000   0.00000
    D8        3.14159   0.00000   0.00000   0.00000   0.00000   3.14159
    D9        0.00000   0.00000   0.00000   0.00000   0.00000   0.00000
   D10        3.14159   0.00000   0.00000   0.00000   0.00000   3.14159
   D11        3.14159   0.00000   0.00000   0.00000   0.00000   3.14159
   D12        0.00000   0.00000   0.00000   0.00000   0.00000   0.00000
   D13        3.14159   0.00000   0.00000   0.00000   0.00000   3.14159
   D14        0.00000   0.00000   0.00000   0.00000   0.00000   0.00000
   D15        0.00000   0.00000   0.00000   0.00000   0.00000   0.00000
   D16        3.14159   0.00000   0.00000   0.00000   0.00000   3.14159
         Item               Value     Threshold  Converged?
 Maximum Force            0.000217     0.000450     YES
 RMS     Force            0.000067     0.000300     YES
 Maximum Displacement     0.000827     0.001800     YES
 RMS     Displacement     0.000284     0.001200     YES
 Predicted change in Energy=-2.580603D-07
 Optimization completed.
    -- Stationary point found.
                           ----------------------------
                           !   Optimized Parameters   !
                           ! (Angstroms and Degrees)  !
 --------------------------                            --------------------------
 ! Name  Definition              Value          Derivative Info.                !
 --------------------------------------------------------------------------------
 ! R1    R(1,5)                  1.3704         -DE/DX =    0.0                 !
 ! R2    R(1,8)                  1.3089         -DE/DX =   -0.0002              !
 ! R3    R(2,9)                  1.0035         -DE/DX =    0.0                 !
 ! R4    R(3,4)                  1.0765         -DE/DX =    0.0                 !
 ! R5    R(3,5)                  1.3664         -DE/DX =    0.0                 !
 ! R6    R(3,9)                  1.3705         -DE/DX =    0.0002              !
 ! R7    R(5,6)                  1.0787         -DE/DX =    0.0                 !
 ! R8    R(7,8)                  1.0793         -DE/DX =    0.0001              !
 ! R9    R(8,9)                  1.3569         -DE/DX =    0.0                 !
 ! A1    A(5,1,8)              105.1454         -DE/DX =    0.0001              !
 ! A2    A(4,3,5)              132.8903         -DE/DX =    0.0                 !
 ! A3    A(4,3,9)              122.0613         -DE/DX =    0.0001              !
 ! A4    A(5,3,9)              105.0484         -DE/DX =   -0.0001              !
 ! A5    A(1,5,3)              110.7331         -DE/DX =    0.0                 !
 ! A6    A(1,5,6)              121.3696         -DE/DX =    0.0001              !
 ! A7    A(3,5,6)              127.8974         -DE/DX =   -0.0001              !
 ! A8    A(1,8,7)              125.9917         -DE/DX =   -0.0001              !
 ! A9    A(1,8,9)              111.8146         -DE/DX =    0.0                 !
 ! A10   A(7,8,9)              122.1937         -DE/DX =    0.0001              !
 ! A11   A(2,9,3)              126.2258         -DE/DX =    0.0                 !
 ! A12   A(2,9,8)              126.5156         -DE/DX =   -0.0001              !
 ! A13   A(3,9,8)              107.2586         -DE/DX =    0.0001              !
 ! D1    D(8,1,5,3)              0.0            -DE/DX =    0.0                 !
 ! D2    D(8,1,5,6)            180.0            -DE/DX =    0.0                 !
 ! D3    D(5,1,8,7)            180.0            -DE/DX =    0.0                 !
 ! D4    D(5,1,8,9)              0.0            -DE/DX =    0.0                 !
 ! D5    D(4,3,5,1)            180.0            -DE/DX =    0.0                 !
 ! D6    D(4,3,5,6)              0.0            -DE/DX =    0.0                 !
 ! D7    D(9,3,5,1)              0.0            -DE/DX =    0.0                 !
 ! D8    D(9,3,5,6)            180.0            -DE/DX =    0.0                 !
 ! D9    D(4,3,9,2)              0.0            -DE/DX =    0.0                 !
 ! D10   D(4,3,9,8)            180.0            -DE/DX =    0.0                 !
 ! D11   D(5,3,9,2)            180.0            -DE/DX =    0.0                 !
 ! D12   D(5,3,9,8)              0.0            -DE/DX =    0.0                 !
 ! D13   D(1,8,9,2)            180.0            -DE/DX =    0.0                 !
 ! D14   D(1,8,9,3)              0.0            -DE/DX =    0.0                 !
 ! D15   D(7,8,9,2)              0.0            -DE/DX =    0.0                 !
 ! D16   D(7,8,9,3)            180.0            -DE/DX =    0.0                 !
 --------------------------------------------------------------------------------
 GradGradGradGradGradGradGradGradGradGradGradGradGradGradGradGradGradGrad

 1|1|UNPC-UNK|Freq|RmPW1PW91|6-31G(2df,p)|C3H4N2|PCUSER|30-Jul-2004|0||
 #N GEOM=ALLCHECK GUESS=READ SCRF=CHECK GENCHK RMPW1PW91/6-31G(2DF,P) F
 REQ||1himidaz casno=288324 method=25 basis=19||0,1|N,-0.7415411406,-0.
 9796386938,0.|H,-0.0038087259,2.1022419304,0.|C,1.1139267538,0.2962818
 161,0.|H,2.1113982424,0.7012475618,0.|C,0.6288659948,-0.9810848189,0.|
 H,1.1894383513,-1.9027344664,0.|H,-2.0903780481,0.669243213,0.|C,-1.08
 21708502,0.2841108346,0.|N,0.0029152534,1.098803661,0.||Version=x86-Wi
 n32-G03RevB.05|State=1-A'|HF=-226.1804669|RMSD=6.258e-009|RMSF=9.570e-
 005|Dipole=0.428143,1.3756879,0.|DipoleDeriv=-0.4094915,-0.0688353,0.,
 -0.0493813,-0.5630809,0.,0.,0.,-0.3088469,0.1805665,-0.0013685,0.,-0.0
 036401,0.2128604,0.,0.,0.,0.3137797,-0.0452224,-0.1810063,0.,0.0336074
 ,0.2052714,0.,0.,0.,-0.1253234,0.0029404,-0.0281033,0.,-0.0557424,0.05
 98731,0.,0.,0.,0.1675259,0.1427883,-0.0462205,0.,-0.0774249,0.1660221,
 0.,0.,0.,-0.0999591,0.0287654,0.0602057,0.,0.080481,0.0028788,0.,0.,0.
 ,0.1324328,0.0020379,0.0511704,0.,0.050391,0.0453726,0.,0.,0.,0.139674
 6,0.1803282,0.1811141,0.,0.082911,0.4733158,0.,0.,0.,0.0157561,-0.0827
 128,0.0330436,0.,-0.0612018,-0.6025134,0.,0.,0.,-0.2350396|Polar=48.79
 06289,-1.3565793,46.6614764,0.,0.,21.1548773|PG=CS [SG(C3H4N2)]|NImag=
 0||0.48811409,-0.03873539,0.61470986,0.,0.,0.10685569,-0.00555572,-0.0
 0789652,0.,0.05804125,-0.00284376,-0.00088504,0.,-0.00336111,0.4916115
 0,0.,0.,0.00715998,0.,0.,0.01206276,-0.05549333,-0.00348915,0.,0.01172
 433,-0.00642984,0.,0.83420757,-0.08085430,0.00119791,0.,0.02541110,-0.
 00674775,0.,0.14073154,0.68726465,0.,0.,0.01721502,0.,0.,-0.00742515,0
 .,0.,0.11119026,0.00055738,-0.00055665,0.,0.00000388,0.00004204,0.,-0.
 31992285,-0.10672825,0.,0.33768605,-0.00565659,-0.00457822,0.,-0.00089
 855,0.00046726,0.,-0.11685537,-0.10627418,0.,0.11471958,0.09657474,0.,
 0.,0.00736766,0.,0.,-0.00124720,0.,0.,-0.02109842,0.,0.,0.01883858,-0.
 28395570,-0.00071208,0.,-0.00764235,0.00097311,0.,-0.12787001,-0.08426
 007,0.,0.00003100,-0.02141069,0.,0.61653620,-0.01027647,-0.09845188,0.
 ,0.00543762,-0.00044252,0.,-0.10399566,-0.37418013,0.,0.00301946,0.007
 52972,0.,-0.10779322,0.87315239,0.,0.,-0.07194951,0.,0.,0.00241912,0.,
 0.,-0.06567435,0.,0.,-0.00211447,0.,0.,0.13610699,-0.01502674,0.027712
 11,0.,0.00111444,-0.00020541,0.,0.01045448,-0.01054813,0.,-0.00016204,
 0.00059669,0.,-0.12931935,0.12839691,0.,0.14066740,-0.00076242,0.00677
 424,0.,0.00106958,-0.00003805,0.,0.01666662,-0.00989431,0.,-0.00038693
 ,-0.00022155,0.,0.13061174,-0.28569831,0.,-0.14318303,0.29178142,0.,0.
 ,-0.00529217,0.,0.,0.00207794,0.,0.,-0.00084525,0.,0.,-0.00196931,0.,0
 .,-0.02968540,0.,0.,0.02375196,-0.00112644,0.00341352,0.,-0.00051222,-
 0.00017542,0.,-0.00024726,-0.00474958,0.,-0.00043000,0.00073327,0.,0.0
 0200577,0.00118834,0.,0.00000074,-0.00001420,0.,0.33836769,0.03005313,
 -0.00709795,0.,0.00071644,0.00034336,0.,-0.00239037,-0.00443949,0.,-0.
 00069640,0.00109192,0.,0.00149649,-0.00546515,0.,0.00155956,0.00036605
 ,0.,-0.10560633,0.09709349,0.,0.,-0.00537033,0.,0.,-0.00138120,0.,0.,0
 .00273111,0.,0.,0.00194884,0.,0.,0.00721741,0.,0.,0.00119237,0.,0.,0.0
 2150342,-0.11814313,0.07032917,0.,0.01551441,0.00804524,0.,-0.10091222
 ,0.02592497,0.,-0.00135241,0.00332984,0.,-0.06616015,0.02985991,0.,-0.
 00698443,-0.00155616,0.,-0.32011851,0.09870173,0.,0.86317729,0.0933689
 0,-0.40648309,0.,-0.02305181,-0.00921820,0.,-0.02730215,-0.00771682,0.
 ,0.00324677,-0.00701189,0.,0.09344894,-0.02788709,0.,-0.00029075,0.001
 21167,0.,0.09410552,-0.09330995,0.,-0.13104204,0.72113975,0.,0.,-0.078
 43278,0.,0.,-0.00869701,0.,0.,0.01708089,0.,0.,0.00286877,0.,0.,0.0102
 3928,0.,0.,0.00551167,0.,0.,-0.02581366,0.,0.,0.13862569,-0.00937042,-
 0.05006501,0.,-0.07268801,0.00395513,0.,-0.25194071,0.09507271,0.,-0.0
 1641101,0.02544181,0.,-0.00362540,0.05416311,0.,-0.00074449,-0.0024452
 0,0.,-0.01793976,-0.02383426,0.,-0.26502086,-0.10248338,0.,0.63774066,
 0.01570689,-0.10518583,0.,0.00257325,-0.47509056,0.,0.10306439,-0.1792
 0988,0.,-0.01265962,0.01242219,0.,-0.01235422,-0.08855702,0.,-0.004037
 97,-0.00428116,0.,0.01110487,0.01141772,0.,-0.10359267,-0.17072436,0.,
 0.00019509,0.99920890,0.,0.,0.02244643,0.,0.,-0.00496924,0.,0.,-0.0531
 7411,0.,0.,-0.00459445,0.,0.,0.01344092,0.,0.,0.00525818,0.,0.,-0.0020
 2796,0.,0.,-0.06138287,0.,0.,0.08500309||0.00007162,-0.00025574,0.,0.0
 0001982,0.00004832,0.,-0.00030719,0.00003407,0.,-0.00004743,0.00001761
 ,0.,0.00011088,0.00004351,0.,-0.00005838,-0.00002321,0.,0.00008322,0.0
 0004153,0.,-0.00007068,0.00006274,0.,0.00019813,0.00003117,0.|||@


 HERE WE GO......
 SLIDING DOWN THE RAZOR BLADE OF LIFE......
                                 TOM LEHRER
 Job cpu time:  0 days  0 hours 24 minutes 12.0 seconds.
 File lengths (MBytes):  RWF=     30 Int=      0 D2E=      0 Chk=      6 Scr=      1
 Normal termination of Gaussian 03 at Fri Jul 30 17:52:10 2004.
