 Entering Gaussian System, Link 0=g98
 Initial command:
 /usr/local/apps/g98/g98/l1.exe /wrk/Gau-18092.inp -scrdir=/wrk/
 Entering Link 1 = /usr/local/apps/g98/g98/l1.exe PID=     13232.
  
 Copyright (c) 1988,1990,1992,1993,1995,1998 Gaussian, Inc.
                  All Rights Reserved.
  
 This is part of the Gaussian(R) 98 program.  It is based on
 the Gaussian 94(TM) system (copyright 1995 Gaussian, Inc.),
 the Gaussian 92(TM) system (copyright 1992 Gaussian, Inc.),
 the Gaussian 90(TM) system (copyright 1990 Gaussian, Inc.),
 the Gaussian 88(TM) system (copyright 1988 Gaussian, Inc.),
 the Gaussian 86(TM) system (copyright 1986 Carnegie Mellon
 University), and the Gaussian 82(TM) system (copyright 1983
 Carnegie Mellon University). Gaussian is a federally registered
 trademark of Gaussian, Inc.
  
 This software contains proprietary and confidential information,
 including trade secrets, belonging to Gaussian, Inc.
  
 This software is provided under written license and may be
 used, copied, transmitted, or stored only in accord with that
 written license.
  
 The following legend is applicable only to US Government
 contracts under DFARS:
  
                    RESTRICTED RIGHTS LEGEND
  
 Use, duplication or disclosure by the US Government is subject
 to restrictions as set forth in subparagraph (c)(1)(ii) of the
 Rights in Technical Data and Computer Software clause at DFARS
 252.227-7013.
  
 Gaussian, Inc.
 Carnegie Office Park, Building 6, Pittsburgh, PA 15106 USA
  
 The following legend is applicable only to US Government
 contracts under FAR:
  
                    RESTRICTED RIGHTS LEGEND
  
 Use, reproduction and disclosure by the US Government is subject
 to restrictions as set forth in subparagraph (c) of the
 Commercial Computer Software - Restricted Rights clause at FAR
 52.227-19.
  
 Gaussian, Inc.
 Carnegie Office Park, Building 6, Pittsburgh, PA 15106 USA
  
  
 ---------------------------------------------------------------
 Warning -- This program may not be used in any manner that
 competes with the business of Gaussian, Inc. or will provide
 assistance to any competitor of Gaussian, Inc.  The licensee
 of this program is prohibited from giving any competitor of
 Gaussian, Inc. access to this program.  By using this program,
 the user acknowledges that Gaussian, Inc. is engaged in the
 business of creating and licensing software in the field of
 computational chemistry and represents and warrants to the
 licensee that it is not a competitor of Gaussian, Inc. and that
 it will not use this program in any manner prohibited above.
 ---------------------------------------------------------------
  

 Cite this work as:
 Gaussian 98, Revision A.7,
 M. J. Frisch, G. W. Trucks, H. B. Schlegel, G. E. Scuseria, 
 M. A. Robb, J. R. Cheeseman, V. G. Zakrzewski, J. A. Montgomery, Jr., 
 R. E. Stratmann, J. C. Burant, S. Dapprich, J. M. Millam, 
 A. D. Daniels, K. N. Kudin, M. C. Strain, O. Farkas, J. Tomasi, 
 V. Barone, M. Cossi, R. Cammi, B. Mennucci, C. Pomelli, C. Adamo, 
 S. Clifford, J. Ochterski, G. A. Petersson, P. Y. Ayala, Q. Cui, 
 K. Morokuma, D. K. Malick, A. D. Rabuck, K. Raghavachari, 
 J. B. Foresman, J. Cioslowski, J. V. Ortiz, A. G. Baboul, 
 B. B. Stefanov, G. Liu, A. Liashenko, P. Piskorz, I. Komaromi, 
 R. Gomperts, R. L. Martin, D. J. Fox, T. Keith, M. A. Al-Laham, 
 C. Y. Peng, A. Nanayakkara, C. Gonzalez, M. Challacombe, 
 P. M. W. Gill, B. Johnson, W. Chen, M. W. Wong, J. L. Andres, 
 C. Gonzalez, M. Head-Gordon, E. S. Replogle, and J. A. Pople, 
 Gaussian, Inc., Pittsburgh PA, 1998.

 **********************************************
 Gaussian 98:  IBM-RS6000-G98RevA.7 11-Apr-1999
                  28-Nov-2000 
 **********************************************
 %mem=24000000
 -------------------------
 #MPW1PW91/6-31G* opt freq
 -------------------------
 1/14=-1,18=20,26=3,38=1/1,3;
 2/9=110,17=6,18=5/2;
 3/5=1,6=6,7=1,11=2,25=1,30=1/1,2,3;
 4//1;
 5/5=2,38=4,42=-7/2;
 6/7=2,8=2,9=2,10=2,28=1/1;
 7//1,2,3,16;
 1/14=-1,18=20/3(1);
 99//99;
 2/9=110/2;
 3/5=1,6=6,7=1,11=2,25=1,30=1/1,2,3;
 4/5=5,16=2/1;
 5/5=2,38=4,42=-7/2;
 7//1,2,3,16;
 1/14=-1,18=20/3(-5);
 2/9=110/2;
 6/7=2,8=2,9=2,10=2,19=2,28=1/1;
 99/9=1/99;
 --------------------------------
 1H imidazole C3H4N2 casno=288324
 --------------------------------
 Symbolic Z-matrix:
 Charge =  0 Multiplicity = 1
 N                     0.30938   0.        1.30938 
 H                     0.3125    0.       -1.6875 
 C                    -1.06875   0.       -0.28438 
 H                    -1.91875   0.       -0.79063 
 C                    -0.93438   0.        1.02812 
 H                    -1.675     0.        1.6875 
 H                     1.91875   0.        0.09063 
 C                     0.93438   0.        0.19063 
 N                     0.09688   0.       -0.775 

 GradGradGradGradGradGradGradGradGradGradGradGradGradGradGradGradGradGrad
 Berny optimization.
 Initialization pass.
                         ----------------------------
                         !    Initial Parameters    !
                         ! (Angstroms and Degrees)  !
 ------------------------                            -------------------------
 ! Name  Definition              Value          Derivative Info.             !
 -----------------------------------------------------------------------------
 ! R1    R(1,5)                  1.2752         estimate D2E/DX2             !
 ! R2    R(1,8)                  1.2815         estimate D2E/DX2             !
 ! R3    R(2,9)                  0.9376         estimate D2E/DX2             !
 ! R4    R(3,4)                  0.9893         estimate D2E/DX2             !
 ! R5    R(3,5)                  1.3194         estimate D2E/DX2             !
 ! R6    R(3,9)                  1.2647         estimate D2E/DX2             !
 ! R7    R(5,6)                  0.9916         estimate D2E/DX2             !
 ! R8    R(7,8)                  0.9894         estimate D2E/DX2             !
 ! R9    R(8,9)                  1.2782         estimate D2E/DX2             !
 ! A1    A(5,1,8)              106.4483         estimate D2E/DX2             !
 ! A2    A(4,3,5)              126.6232         estimate D2E/DX2             !
 ! A3    A(4,3,9)              126.3957         estimate D2E/DX2             !
 ! A4    A(5,3,9)              106.9812         estimate D2E/DX2             !
 ! A5    A(1,5,3)              108.5877         estimate D2E/DX2             !
 ! A6    A(1,5,6)              125.5794         estimate D2E/DX2             !
 ! A7    A(3,5,6)              125.8329         estimate D2E/DX2             !
 ! A8    A(1,8,7)              124.9909         estimate D2E/DX2             !
 ! A9    A(1,8,9)              109.8741         estimate D2E/DX2             !
 ! A10   A(7,8,9)              125.1349         estimate D2E/DX2             !
 ! A11   A(2,9,3)              126.122          estimate D2E/DX2             !
 ! A12   A(2,9,8)              125.7693         estimate D2E/DX2             !
 ! A13   A(3,9,8)              108.1088         estimate D2E/DX2             !
 ! D1    D(8,1,5,3)              0.             estimate D2E/DX2             !
 ! D2    D(8,1,5,6)            180.             estimate D2E/DX2             !
 ! D3    D(5,1,8,7)            180.             estimate D2E/DX2             !
 ! D4    D(5,1,8,9)              0.             estimate D2E/DX2             !
 ! D5    D(4,3,5,1)            180.             estimate D2E/DX2             !
 ! D6    D(4,3,5,6)              0.             estimate D2E/DX2             !
 ! D7    D(9,3,5,1)              0.             estimate D2E/DX2             !
 ! D8    D(9,3,5,6)            180.             estimate D2E/DX2             !
 ! D9    D(4,3,9,2)              0.             estimate D2E/DX2             !
 ! D10   D(4,3,9,8)            180.             estimate D2E/DX2             !
 ! D11   D(5,3,9,2)            180.             estimate D2E/DX2             !
 ! D12   D(5,3,9,8)              0.             estimate D2E/DX2             !
 ! D13   D(1,8,9,2)            180.             estimate D2E/DX2             !
 ! D14   D(1,8,9,3)              0.             estimate D2E/DX2             !
 ! D15   D(7,8,9,2)              0.             estimate D2E/DX2             !
 ! D16   D(7,8,9,3)            180.             estimate D2E/DX2             !
 -----------------------------------------------------------------------------
 Trust Radius=3.00D-01 FncErr=1.00D-07 GrdErr=1.00D-06
 Number of steps in this run=  48 maximum allowed number of steps= 100.
 GradGradGradGradGradGradGradGradGradGradGradGradGradGradGradGradGradGrad

                          Input orientation:                          
 ---------------------------------------------------------------------
 Center     Atomic     Atomic              Coordinates (Angstroms)
 Number     Number      Type              X           Y           Z
 ---------------------------------------------------------------------
    1          7             0         .309375     .000000    1.309375
    2          1             0         .312500     .000000   -1.687500
    3          6             0       -1.068750     .000000    -.284375
    4          1             0       -1.918750     .000000    -.790625
    5          6             0        -.934375     .000000    1.028125
    6          1             0       -1.675000     .000000    1.687500
    7          1             0        1.918750     .000000     .090625
    8          6             0         .934375     .000000     .190625
    9          7             0         .096875     .000000    -.775000
 ---------------------------------------------------------------------
                    Distance matrix (angstroms):
                    1          2          3          4          5
     1  N     .000000
     2  H    2.996877    .000000
     3  C    2.106957   1.968911    .000000
     4  H    3.061787   2.404758    .989338    .000000
     5  C    1.275153   2.988196   1.319361   2.068054    .000000
     6  H    2.020080   3.916731   2.062966   2.490084    .991615
     7  H    2.018772   2.396199   3.010944   3.937386   3.003203
     8  C    1.281494   1.978404   2.058673   3.017147   2.047836
     9  N    2.095179    .937630   1.264672   2.015686   2.077194
                    6          7          8          9
     6  H     .000000
     7  H    3.932563    .000000
     8  C    3.008234    .989441    .000000
     9  N    3.033718   2.017061   1.278217    .000000
 Stoichiometry    C3H4N2
 Framework group  CS[SG(C3H4N2)]
 Deg. of freedom   15
 Full point group                 CS      NOp   2
 Largest Abelian subgroup         CS      NOp   2
 Largest concise Abelian subgroup C1      NOp   1
                         Standard orientation:                         
 ---------------------------------------------------------------------
 Center     Atomic     Atomic              Coordinates (Angstroms)
 Number     Number      Type              X           Y           Z
 ---------------------------------------------------------------------
    1          7             0        -.674969    -.941702     .000000
    2          1             0        -.005288    1.979393     .000000
    3          6             0        1.025744     .302019     .000000
    4          1             0        1.967693     .604544     .000000
    5          6             0         .600174    -.946822     .000000
    6          1             0        1.173884   -1.755622     .000000
    7          1             0       -1.969692     .607211     .000000
    8          6             0       -1.032886     .288794     .000000
    9          7             0         .000000    1.041778     .000000
 ---------------------------------------------------------------------
 Rotational constants (GHZ):     11.1543393     10.4769603      5.4025219
 Isotopes: N-14,H-1,C-12,H-1,C-12,H-1,H-1,C-12,N-14
 Standard basis: 6-31G(d) (6D, 7F)
 There are    63 symmetry adapted basis functions of A'  symmetry.
 There are    20 symmetry adapted basis functions of A"  symmetry.
 Crude estimate of integral set expansion from redundant integrals=1.000.
 Integral buffers will be    262144 words long.
 Raffenetti 2 integral format.
 Two-electron integral symmetry is turned on.
    83 basis functions      156 primitive gaussians
    18 alpha electrons       18 beta electrons
       nuclear repulsion energy       173.5664837334 Hartrees.
 One-electron integrals computed using PRISM.
 NBasis=    83 RedAO= T  NBF=    63    20
 NBsUse=    83 1.00D-04 NBFU=    63    20
 Projected INDO Guess.
 Initial guess orbital symmetries:
       Occupied  (A') (A') (A') (A') (A') (A') (A') (A') (A') (A')
                 (A') (A") (A') (A') (A') (A") (A') (A")
       Virtual   (A") (A') (A') (A") (A') (A') (A') (A') (A') (A')
                 (A') (A') (A') (A') (A') (A') (A') (A') (A') (A')
                 (A') (A') (A') (A') (A') (A') (A') (A') (A') (A')
                 (A') (A') (A') (A') (A') (A') (A') (A') (A') (A')
                 (A') (A') (A') (A') (A') (A') (A') (A') (A') (A')
                 (A") (A") (A") (A") (A") (A") (A") (A") (A") (A")
                 (A") (A") (A") (A") (A")
 Requested convergence on RMS density matrix=1.00D-08 within  64 cycles.
 Requested convergence on MAX density matrix=1.00D-06.
 Keep R1 and R2 integrals in memory in canonical form, NReq=    12613144.
 Integral accuracy reduced to 1.0D-05 until final iterations.
 Initial convergence to 1.0D-05 achieved.  Increase integral accuracy.
 SCF Done:  E(RmPW+HF-PW91) =  -226.099352732     A.U. after   15 cycles
             Convg  =     .2451D-08             -V/T =  2.0013
             S**2   =    .0000

 **********************************************************************

            Population analysis using the SCF density.

 **********************************************************************

 Orbital Symmetries:
       Occupied  (A') (A') (A') (A') (A') (A') (A') (A') (A') (A')
                 (A') (A") (A') (A') (A') (A") (A') (A")
       Virtual   (A") (A') (A") (A') (A') (A') (A') (A') (A') (A')
                 (A') (A') (A") (A") (A') (A") (A') (A') (A') (A')
                 (A") (A') (A') (A") (A') (A') (A') (A') (A') (A')
                 (A') (A") (A') (A') (A") (A") (A') (A') (A") (A")
                 (A') (A') (A') (A') (A') (A') (A") (A") (A') (A")
                 (A') (A") (A') (A') (A") (A') (A') (A') (A') (A')
                 (A') (A') (A') (A') (A')
  The electronic state is 1-A'.
 Alpha  occ. eigenvalues --  -14.46169 -14.36116 -10.26447 -10.23706 -10.21823
 Alpha  occ. eigenvalues --   -1.10137   -.92382   -.78464   -.66556   -.62796
 Alpha  occ. eigenvalues --    -.60630   -.47955   -.47623   -.45167   -.43162
 Alpha  occ. eigenvalues --    -.30363   -.26054   -.23237
 Alpha virt. eigenvalues --     .06636    .10368    .11184    .17843    .19913
 Alpha virt. eigenvalues --     .21705    .27465    .28199    .34176    .36720
 Alpha virt. eigenvalues --     .51050    .54095    .55178    .60309    .63758
 Alpha virt. eigenvalues --     .65163    .66325    .70687    .71705    .74486
 Alpha virt. eigenvalues --     .78478    .84744    .85635    .87476    .88225
 Alpha virt. eigenvalues --     .94027    .96278    .96989   1.06974   1.07076
 Alpha virt. eigenvalues --    1.28714   1.29187   1.31626   1.36913   1.38662
 Alpha virt. eigenvalues --    1.41725   1.50677   1.60795   1.60827   1.61928
 Alpha virt. eigenvalues --    1.79782   1.99783   2.17252   2.19451   2.23831
 Alpha virt. eigenvalues --    2.26904   2.28802   2.30582   2.40093   2.43232
 Alpha virt. eigenvalues --    2.45293   2.50095   2.64222   2.68182   2.74298
 Alpha virt. eigenvalues --    2.80485   2.84762   3.08600   3.21106   3.33901
 Alpha virt. eigenvalues --    4.03259   4.12051   4.26434   4.28887   4.44234
          Condensed to atoms (all electrons):
              1          2          3          4          5          6
  1  N    6.606829    .008270   -.094957    .009052    .516580   -.047453
  2  H     .008270    .381291   -.037918   -.002490    .008945   -.000097
  3  C    -.094957   -.037918   4.997674    .372671    .596995   -.078208
  4  H     .009052   -.002490    .372671    .538673   -.037822   -.000004
  5  C     .516580    .008945    .596995   -.037822   4.745637    .405413
  6  H    -.047453   -.000097   -.078208   -.000004    .405413    .553699
  7  H    -.040587   -.000712    .005444   -.000212    .007982   -.000254
  8  C     .577165   -.030619   -.140650    .007596   -.148317    .010305
  9  N    -.100345    .327484    .400579   -.056359   -.064223    .005371
              7          8          9
  1  N    -.040587    .577165   -.100345
  2  H    -.000712   -.030619    .327484
  3  C     .005444   -.140650    .400579
  4  H    -.000212    .007596   -.056359
  5  C     .007982   -.148317   -.064223
  6  H    -.000254    .010305    .005371
  7  H     .518944    .401944   -.066235
  8  C     .401944   4.754155    .405980
  9  N    -.066235    .405980   6.662466
 Total atomic charges:
              1
  1  N    -.434553
  2  H     .345846
  3  C    -.021630
  4  H     .168895
  5  C    -.031191
  6  H     .151226
  7  H     .173687
  8  C     .162440
  9  N    -.514719
 Sum of Mulliken charges=    .00000
 Atomic charges with hydrogens summed into heavy atoms:
              1
  1  N    -.434553
  2  H     .000000
  3  C     .147265
  4  H     .000000
  5  C     .120035
  6  H     .000000
  7  H     .000000
  8  C     .336127
  9  N    -.168873
 Sum of Mulliken charges=    .00000
 Electronic spatial extent (au):  <R**2>=   257.3470
 Charge=      .0000 electrons
 Dipole moment (Debye):
    X=     1.1201    Y=     3.6766    Z=      .0000  Tot=     3.8434
 Quadrupole moment (Debye-Ang):
   XX=   -26.2345   YY=   -24.9471   ZZ=   -30.0170
   XY=    -3.0972   XZ=      .0000   YZ=      .0000
 Octapole moment (Debye-Ang**2):
  XXX=      .4026  YYY=    15.2978  ZZZ=      .0000  XYY=     4.6497
  XXY=     4.8917  XXZ=      .0000  XZZ=     -.6236  YZZ=     1.1596
  YYZ=      .0000  XYZ=      .0000
 Hexadecapole moment (Debye-Ang**3):
 XXXX=  -136.4951 YYYY=  -125.2290 ZZZZ=   -28.2306 XXXY=    -2.5062
 XXXZ=      .0000 YYYX=    -6.5305 YYYZ=      .0000 ZZZX=      .0000
 ZZZY=      .0000 XXYY=   -50.3376 XXZZ=   -32.5275 YYZZ=   -30.7622
 XXYZ=      .0000 YYXZ=      .0000 ZZXY=      .6479
 N-N= 1.735664837334D+02 E-N=-8.739903280153D+02  KE= 2.258017730765D+02
 Symmetry A'   KE= 2.175871086039D+02
 Symmetry A"   KE= 8.214664472598D+00
 ***** Axes restored to original set *****
 -------------------------------------------------------------------
 Center     Atomic                   Forces (Hartrees/Bohr)
 Number     Number              X              Y              Z
 -------------------------------------------------------------------
    1          7            .082318933     .000000000     .082472340
    2          1            .018309703     .000000000    -.078878315
    3          6           -.075791576     .000000000     .019654303
    4          1           -.069108805     .000000000    -.051675052
    5          6           -.025212302     .000000000    -.016693185
    6          1           -.059823420     .000000000     .060262297
    7          1            .085511526     .000000000    -.011254699
    8          6            .010870440     .000000000     .046432181
    9          7            .032925500     .000000000    -.050319870
 -------------------------------------------------------------------
 Cartesian Forces:  Max      .085511526 RMS      .045201610

 GradGradGradGradGradGradGradGradGradGradGradGradGradGradGradGradGradGrad
 Berny optimization.
 Internal  Forces:  Max      .127301105 RMS      .045889444
 Search for a local minimum.
 Step number   1 out of a maximum of  48
 All quantities printed in internal units (Hartrees-Bohrs-Radians)
 Second derivative matrix not updated -- first step.
     Eigenvalues ---     .03211    .03261    .03288    .03318    .03352
     Eigenvalues ---     .03407    .16000    .16000    .16000    .16000
     Eigenvalues ---     .22000    .22917    .49193    .49594    .49613
     Eigenvalues ---     .54578    .60577    .63413    .68379    .73836
     Eigenvalues ---     .765081000.000001000.000001000.000001000.00000
     Eigenvalues --- 1000.000001000.000001000.000001000.000001000.00000
     Eigenvalues --- 1000.000001000.000001000.000001000.000001000.00000
     Eigenvalues --- 1000.000001000.000001000.00000
 RFO step:  Lambda=-1.08040026D-01.
 Linear search not attempted -- first point.
 Maximum step size (    .300) exceeded in Quadratic search.
    -- Step size scaled by    .770
 Iteration  1 RMS(Cart)=   .06533151 RMS(Int)=   .00046526
 Iteration  2 RMS(Cart)=   .00053699 RMS(Int)=   .00010415
 Iteration  3 RMS(Cart)=   .00000032 RMS(Int)=   .00010415
 Variable       Old X    -DE/DX   Delta X   Delta X   Delta X     New X
                                 (Linear)    (Quad)   (Total)
    R1        2.40969    .11489    .00000    .10124    .10117   2.51086
    R2        2.42167    .05721    .00000    .05078    .05059   2.47226
    R3        1.77186    .08098    .00000    .08737    .08737   1.85923
    R4        1.86958    .08582    .00000    .10940    .10940   1.97897
    R5        2.49323    .07839    .00000    .08348    .08362   2.57686
    R6        2.38988    .12730    .00000    .11299    .11314   2.50303
    R7        1.87388    .08475    .00000    .10879    .10879   1.98268
    R8        1.86977    .08621    .00000    .10993    .10993   1.97971
    R9        2.41548    .10897    .00000    .10051    .10045   2.51593
    A1        1.85787    .00316    .00000   -.00576   -.00608   1.85179
    A2        2.20999    .01638    .00000    .03873    .03858   2.24857
    A3        2.20602   -.00050    .00000   -.00977   -.00992   2.19610
    A4        1.86717   -.01588    .00000   -.02896   -.02866   1.83851
    A5        1.89521    .01084    .00000    .02211    .02220   1.91741
    A6        2.19177   -.01033    .00000   -.02515   -.02520   2.16658
    A7        2.19620   -.00051    .00000    .00304    .00300   2.19920
    A8        2.18150    .00072    .00000    .00354    .00364   2.18514
    A9        1.91767    .00336    .00000    .00668    .00649   1.92415
   A10        2.18402   -.00407    .00000   -.01022   -.01012   2.17389
   A11        2.20124    .00045    .00000   -.00380   -.00386   2.19739
   A12        2.19509    .00102    .00000   -.00214   -.00220   2.19289
   A13        1.88685   -.00147    .00000    .00593    .00605   1.89291
    D1         .00000    .00000    .00000    .00000    .00000    .00000
    D2        3.14159    .00000    .00000    .00000    .00000   3.14159
    D3        3.14159    .00000    .00000    .00000    .00000   3.14159
    D4         .00000    .00000    .00000    .00000    .00000    .00000
    D5        3.14159    .00000    .00000    .00000    .00000   3.14159
    D6         .00000    .00000    .00000    .00000    .00000    .00000
    D7         .00000    .00000    .00000    .00000    .00000    .00000
    D8        3.14159    .00000    .00000    .00000    .00000   3.14159
    D9         .00000    .00000    .00000    .00000    .00000    .00000
   D10        3.14159    .00000    .00000    .00000    .00000   3.14159
   D11        3.14159    .00000    .00000    .00000    .00000   3.14159
   D12         .00000    .00000    .00000    .00000    .00000    .00000
   D13        3.14159    .00000    .00000    .00000    .00000   3.14159
   D14         .00000    .00000    .00000    .00000    .00000    .00000
   D15         .00000    .00000    .00000    .00000    .00000    .00000
   D16        3.14159    .00000    .00000    .00000    .00000   3.14159
         Item               Value     Threshold  Converged?
 Maximum Force             .127301      .000450     NO 
 RMS     Force             .045889      .000300     NO 
 Maximum Displacement      .185710      .001800     NO 
 RMS     Displacement      .065266      .001200     NO 
 Predicted change in Energy=-2.718472D-02
 GradGradGradGradGradGradGradGradGradGradGradGradGradGradGradGradGradGrad

                          Input orientation:                          
 ---------------------------------------------------------------------
 Center     Atomic     Atomic              Coordinates (Angstroms)
 Number     Number      Type              X           Y           Z
 ---------------------------------------------------------------------
    1          7             0         .477473     .000000    1.111689
    2          1             0         .475912     .000000   -1.997353
    3          6             0        -.981879     .000000    -.539418
    4          1             0       -1.870852     .000000   -1.092965
    5          6             0        -.817498     .000000     .814251
    6          1             0       -1.585717     .000000    1.528836
    7          1             0        2.154002     .000000    -.144631
    8          6             0        1.112442     .000000    -.032149
    9          7             0         .243929     .000000   -1.041229
 ---------------------------------------------------------------------
                    Distance matrix (angstroms):
                    1          2          3          4          5
     1  N     .000000
     2  H    3.109042    .000000
     3  C    2.203602   2.061730    .000000
     4  H    3.221044   2.514999   1.047228    .000000
     5  C    1.328690   3.094839   1.363613   2.178767    .000000
     6  H    2.104938   4.084645   2.154599   2.637260   1.049187
     7  H    2.095016   2.499713   3.160634   4.135068   3.122382
     8  C    1.308263   2.065719   2.154879   3.166287   2.107383
     9  N    2.165548    .983864   1.324545   2.115413   2.137624
                    6          7          8          9
     6  H     .000000
     7  H    4.097072    .000000
     8  C    3.117169   1.047616    .000000
     9  N    3.154812   2.110040   1.331375    .000000
 Stoichiometry    C3H4N2
 Framework group  CS[SG(C3H4N2)]
 Deg. of freedom   15
 Full point group                 CS      NOp   2
 Largest Abelian subgroup         CS      NOp   2
 Largest concise Abelian subgroup C1      NOp   1
                         Standard orientation:                         
 ---------------------------------------------------------------------
 Center     Atomic     Atomic              Coordinates (Angstroms)
 Number     Number      Type              X           Y           Z
 ---------------------------------------------------------------------
    1          7             0        -.710306    -.970380     .000000
    2          1             0        -.011704    2.059157     .000000
    3          6             0        1.082088     .311488     .000000
    4          1             0        2.072539     .651625     .000000
    5          6             0         .618385    -.970861     .000000
    6          1             0        1.206828   -1.839497     .000000
    7          1             0       -2.062471     .629851     .000000
    8          6             0       -1.072649     .286703     .000000
    9          7             0         .000000    1.075363     .000000
 ---------------------------------------------------------------------
 Rotational constants (GHZ):     10.2288439      9.8157153      5.0090111
 Isotopes: N-14,H-1,C-12,H-1,C-12,H-1,H-1,C-12,N-14
 Standard basis: 6-31G(d) (6D, 7F)
 There are    63 symmetry adapted basis functions of A'  symmetry.
 There are    20 symmetry adapted basis functions of A"  symmetry.
 Crude estimate of integral set expansion from redundant integrals=1.000.
 Integral buffers will be    262144 words long.
 Raffenetti 2 integral format.
 Two-electron integral symmetry is turned on.
    83 basis functions      156 primitive gaussians
    18 alpha electrons       18 beta electrons
       nuclear repulsion energy       166.9870368094 Hartrees.
 One-electron integrals computed using PRISM.
 NBasis=    83 RedAO= T  NBF=    63    20
 NBsUse=    83 1.00D-04 NBFU=    63    20
 Initial guess read from the read-write file:
 Initial guess orbital symmetries:
       Occupied  (A') (A') (A') (A') (A') (A') (A') (A') (A') (A')
                 (A') (A") (A') (A') (A') (A") (A') (A")
       Virtual   (A") (A') (A") (A') (A') (A') (A') (A') (A') (A')
                 (A') (A') (A") (A") (A') (A") (A') (A') (A') (A')
                 (A") (A') (A') (A") (A') (A') (A') (A') (A') (A')
                 (A') (A") (A') (A') (A") (A") (A') (A') (A") (A")
                 (A') (A') (A') (A') (A') (A') (A") (A") (A') (A")
                 (A') (A") (A') (A') (A") (A') (A') (A') (A') (A')
                 (A') (A') (A') (A') (A')
 Requested convergence on RMS density matrix=1.00D-08 within  64 cycles.
 Requested convergence on MAX density matrix=1.00D-06.
 Keep R1 and R2 integrals in memory in canonical form, NReq=    12613144.
 Integral accuracy reduced to 1.0D-05 until final iterations.
 Initial convergence to 1.0D-05 achieved.  Increase integral accuracy.
 SCF Done:  E(RmPW+HF-PW91) =  -226.152063303     A.U. after   13 cycles
             Convg  =     .7363D-08             -V/T =  2.0067
             S**2   =    .0000
 ***** Axes restored to original set *****
 -------------------------------------------------------------------
 Center     Atomic                   Forces (Hartrees/Bohr)
 Number     Number              X              Y              Z
 -------------------------------------------------------------------
    1          7            .031796344     .000000000     .025004943
    2          1            .005286537     .000000000    -.023010609
    3          6           -.028877247     .000000000     .021617173
    4          1           -.017977211     .000000000    -.018813392
    5          6           -.011784744     .000000000    -.017453050
    6          1           -.015906132     .000000000     .020159152
    7          1            .025310860     .000000000    -.005214488
    8          6           -.005476541     .000000000     .021688062
    9          7            .017628133     .000000000    -.023977792
 -------------------------------------------------------------------
 Cartesian Forces:  Max      .031796344 RMS      .016475321

 GradGradGradGradGradGradGradGradGradGradGradGradGradGradGradGradGradGrad
 Berny optimization.
 Internal  Forces:  Max      .043119894 RMS      .014011750
 Search for a local minimum.
 Step number   2 out of a maximum of  48
 All quantities printed in internal units (Hartrees-Bohrs-Radians)
 Update second derivatives using information from points  1  2
 Trust test= 1.94D+00 RLast= 3.00D-01 DXMaxT set to 4.24D-01
     Eigenvalues ---     .03209    .03262    .03288    .03314    .03351
     Eigenvalues ---     .03406    .15909    .16000    .16000    .16001
     Eigenvalues ---     .22118    .22839    .49306    .49602    .51375
     Eigenvalues ---     .55628    .61078    .63931    .70404    .73829
     Eigenvalues ---     .756921000.000001000.000001000.000001000.00000
     Eigenvalues --- 1000.000001000.000001000.000001000.000001000.00000
     Eigenvalues --- 1000.000001000.000001000.000001000.000001000.00000
     Eigenvalues --- 1000.000001000.000001000.00000
 RFO step:  Lambda=-1.89502336D-03.
 Quartic linear search produced a step of   .55432.
 Iteration  1 RMS(Cart)=   .03860081 RMS(Int)=   .00071097
 Iteration  2 RMS(Cart)=   .00082848 RMS(Int)=   .00007255
 Iteration  3 RMS(Cart)=   .00000084 RMS(Int)=   .00007255
 Variable       Old X    -DE/DX   Delta X   Delta X   Delta X     New X
                                 (Linear)    (Quad)   (Total)
    R1        2.51086    .03767    .05608    .00477    .06076   2.57162
    R2        2.47226    .01217    .02804   -.01173    .01620   2.48846
    R3        1.85923    .02361    .04843   -.00087    .04756   1.90680
    R4        1.97897    .02520    .06064    .00206    .06270   2.04168
    R5        2.57686    .01676    .04635   -.01609    .03031   2.60716
    R6        2.50303    .04312    .06272    .00904    .07189   2.57492
    R7        1.98268    .02538    .06031    .00370    .06400   2.04668
    R8        1.97971    .02572    .06094    .00334    .06428   2.04399
    R9        2.51593    .03187    .05568   -.00225    .05346   2.56940
    A1        1.85179   -.00137   -.00337   -.02123   -.02486   1.82693
    A2        2.24857    .00833    .02138    .04292    .06421   2.31278
    A3        2.19610   -.00446   -.00550   -.04642   -.05201   2.14409
    A4        1.83851   -.00387   -.01589    .00350   -.01220   1.82631
    A5        1.91741    .00469    .01230    .01235    .02463   1.94204
    A6        2.16658   -.00624   -.01397   -.03386   -.04781   2.11876
    A7        2.19920    .00155    .00166    .02151    .02319   2.22239
    A8        2.18514    .00012    .00202    .00571    .00776   2.19290
    A9        1.92415    .00465    .00360    .02604    .02958   1.95373
   A10        2.17389   -.00477   -.00561   -.03175   -.03734   2.13656
   A11        2.19739    .00178   -.00214    .00830    .00608   2.20346
   A12        2.19289    .00232   -.00122    .01236    .01106   2.20395
   A13        1.89291   -.00410    .00336   -.02065   -.01714   1.87577
    D1         .00000    .00000    .00000    .00000    .00000    .00000
    D2        3.14159    .00000    .00000    .00000    .00000   3.14159
    D3        3.14159    .00000    .00000    .00000    .00000   3.14159
    D4         .00000    .00000    .00000    .00000    .00000    .00000
    D5        3.14159    .00000    .00000    .00000    .00000   3.14159
    D6         .00000    .00000    .00000    .00000    .00000    .00000
    D7         .00000    .00000    .00000    .00000    .00000    .00000
    D8        3.14159    .00000    .00000    .00000    .00000   3.14159
    D9         .00000    .00000    .00000    .00000    .00000    .00000
   D10        3.14159    .00000    .00000    .00000    .00000   3.14159
   D11        3.14159    .00000    .00000    .00000    .00000   3.14159
   D12         .00000    .00000    .00000    .00000    .00000    .00000
   D13        3.14159    .00000    .00000    .00000    .00000   3.14159
   D14         .00000    .00000    .00000    .00000    .00000    .00000
   D15         .00000    .00000    .00000    .00000    .00000    .00000
   D16        3.14159    .00000    .00000    .00000    .00000   3.14159
         Item               Value     Threshold  Converged?
 Maximum Force             .043120      .000450     NO 
 RMS     Force             .014012      .000300     NO 
 Maximum Displacement      .121861      .001800     NO 
 RMS     Displacement      .038521      .001200     NO 
 Predicted change in Energy=-9.860912D-03
 GradGradGradGradGradGradGradGradGradGradGradGradGradGradGradGradGradGrad

                          Input orientation:                          
 ---------------------------------------------------------------------
 Center     Atomic     Atomic              Coordinates (Angstroms)
 Number     Number      Type              X           Y           Z
 ---------------------------------------------------------------------
    1          7             0         .491805     .000000    1.139707
    2          1             0         .487767     .000000   -2.044177
    3          6             0       -1.015481     .000000    -.547186
    4          1             0       -1.902367     .000000   -1.164207
    5          6             0        -.830965     .000000     .820070
    6          1             0       -1.596546     .000000    1.586162
    7          1             0        2.187953     .000000    -.159177
    8          6             0        1.115292     .000000    -.020172
    9          7             0         .244967     .000000   -1.064791
 ---------------------------------------------------------------------
                    Distance matrix (angstroms):
                    1          2          3          4          5
     1  N     .000000
     2  H    3.183887    .000000
     3  C    2.262194   2.121494    .000000
     4  H    3.322662   2.546977   1.080409    .000000
     5  C    1.360842   3.153247   1.379651   2.255052    .000000
     6  H    2.135540   4.186134   2.211065   2.767319   1.083056
     7  H    2.136356   2.538475   3.226846   4.211983   3.173766
     8  C    1.316835   2.119053   2.194979   3.227240   2.119887
     9  N    2.218275   1.009033   1.362587   2.149634   2.170330
                    6          7          8          9
     6  H     .000000
     7  H    4.167570    .000000
     8  C    3.151884   1.081631    .000000
     9  N    3.227804   2.143673   1.359667    .000000
 Stoichiometry    C3H4N2
 Framework group  CS[SG(C3H4N2)]
 Deg. of freedom   15
 Full point group                 CS      NOp   2
 Largest Abelian subgroup         CS      NOp   2
 Largest concise Abelian subgroup C1      NOp   1
                         Standard orientation:                         
 ---------------------------------------------------------------------
 Center     Atomic     Atomic              Coordinates (Angstroms)
 Number     Number      Type              X           Y           Z
 ---------------------------------------------------------------------
    1          7             0        -.734455    -.993206     .000000
    2          1             0        -.017209    2.108841     .000000
    3          6             0        1.112444     .313118     .000000
    4          1             0        2.115023     .715759     .000000
    5          6             0         .626302    -.978045     .000000
    6          1             0        1.200789   -1.896181     .000000
    7          1             0       -2.096488     .652662     .000000
    8          6             0       -1.082236     .276874     .000000
    9          7             0         .000000    1.099954     .000000
 ---------------------------------------------------------------------
 Rotational constants (GHZ):      9.9270606      9.3635136      4.8185277
 Isotopes: N-14,H-1,C-12,H-1,C-12,H-1,H-1,C-12,N-14
 Standard basis: 6-31G(d) (6D, 7F)
 There are    63 symmetry adapted basis functions of A'  symmetry.
 There are    20 symmetry adapted basis functions of A"  symmetry.
 Crude estimate of integral set expansion from redundant integrals=1.000.
 Integral buffers will be    262144 words long.
 Raffenetti 2 integral format.
 Two-electron integral symmetry is turned on.
    83 basis functions      156 primitive gaussians
    18 alpha electrons       18 beta electrons
       nuclear repulsion energy       163.7259031141 Hartrees.
 One-electron integrals computed using PRISM.
 NBasis=    83 RedAO= T  NBF=    63    20
 NBsUse=    83 1.00D-04 NBFU=    63    20
 Initial guess read from the read-write file:
 Initial guess orbital symmetries:
       Occupied  (A') (A') (A') (A') (A') (A') (A') (A') (A') (A')
                 (A') (A') (A") (A') (A') (A") (A') (A")
       Virtual   (A") (A') (A") (A') (A') (A') (A') (A') (A') (A')
                 (A') (A') (A") (A') (A") (A') (A") (A') (A') (A')
                 (A") (A') (A') (A') (A") (A') (A') (A') (A') (A')
                 (A') (A') (A") (A') (A") (A") (A') (A') (A") (A")
                 (A') (A') (A') (A') (A') (A') (A") (A") (A') (A')
                 (A") (A") (A') (A') (A") (A') (A') (A') (A') (A')
                 (A') (A') (A') (A') (A')
 Requested convergence on RMS density matrix=1.00D-08 within  64 cycles.
 Requested convergence on MAX density matrix=1.00D-06.
 Keep R1 and R2 integrals in memory in canonical form, NReq=    12613144.
 Integral accuracy reduced to 1.0D-05 until final iterations.
 Initial convergence to 1.0D-05 achieved.  Increase integral accuracy.
 SCF Done:  E(RmPW+HF-PW91) =  -226.159627400     A.U. after   13 cycles
             Convg  =     .6153D-08             -V/T =  2.0091
             S**2   =    .0000
 ***** Axes restored to original set *****
 -------------------------------------------------------------------
 Center     Atomic                   Forces (Hartrees/Bohr)
 Number     Number              X              Y              Z
 -------------------------------------------------------------------
    1          7            .006844708     .000000000    -.006631059
    2          1           -.000292109     .000000000     .001976508
    3          6           -.006940897     .000000000     .010959074
    4          1            .001622532     .000000000     .000631353
    5          6           -.011304866     .000000000    -.005772364
    6          1            .001125380     .000000000    -.001083653
    7          1           -.000835508     .000000000    -.000218627
    8          6            .002239646     .000000000     .003970744
    9          7            .007541114     .000000000    -.003831976
 -------------------------------------------------------------------
 Cartesian Forces:  Max      .011304866 RMS      .004400183

 GradGradGradGradGradGradGradGradGradGradGradGradGradGradGradGradGradGrad
 Berny optimization.
 Internal  Forces:  Max      .008676520 RMS      .002615063
 Search for a local minimum.
 Step number   3 out of a maximum of  48
 All quantities printed in internal units (Hartrees-Bohrs-Radians)
 Update second derivatives using information from points  1  2  3
 Trust test= 7.67D-01 RLast= 2.03D-01 DXMaxT set to 6.00D-01
     Eigenvalues ---     .03205    .03261    .03287    .03304    .03349
     Eigenvalues ---     .03404    .15341    .16000    .16001    .16003
     Eigenvalues ---     .22154    .23484    .45260    .49331    .49624
     Eigenvalues ---     .55867    .59116    .63770    .66145    .73972
     Eigenvalues ---     .749401000.000001000.000001000.000001000.00000
     Eigenvalues --- 1000.000001000.000001000.000001000.000001000.00000
     Eigenvalues --- 1000.000001000.000001000.000001000.000001000.00000
     Eigenvalues --- 1000.000001000.000001000.00000
 RFO step:  Lambda=-4.72078761D-04.
 Quartic linear search produced a step of   .00573.
 Iteration  1 RMS(Cart)=   .00555708 RMS(Int)=   .00001762
 Iteration  2 RMS(Cart)=   .00001689 RMS(Int)=   .00000381
 Iteration  3 RMS(Cart)=   .00000000 RMS(Int)=   .00000381
 Variable       Old X    -DE/DX   Delta X   Delta X   Delta X     New X
                                 (Linear)    (Quad)   (Total)
    R1        2.57162    .00710    .00035    .01101    .01137   2.58299
    R2        2.48846   -.00447    .00009   -.00581   -.00572   2.48274
    R3        1.90680   -.00199    .00027   -.00192   -.00165   1.90515
    R4        2.04168   -.00169    .00036   -.00164   -.00128   2.04040
    R5        2.60716   -.00829    .00017   -.01219   -.01201   2.59515
    R6        2.57492    .00868    .00041    .01334    .01375   2.58866
    R7        2.04668   -.00156    .00037   -.00139   -.00102   2.04566
    R8        2.04399   -.00080    .00037    .00019    .00056   2.04455
    R9        2.56940   -.00090    .00031    .00037    .00067   2.57007
    A1        1.82693    .00399   -.00014    .01434    .01421   1.84113
    A2        2.31278    .00017    .00037    .00197    .00234   2.31512
    A3        2.14409   -.00066   -.00030   -.00554   -.00583   2.13826
    A4        1.82631    .00050   -.00007    .00357    .00350   1.82981
    A5        1.94204   -.00236    .00014   -.00994   -.00978   1.93225
    A6        2.11876    .00114   -.00027    .00405    .00378   2.12254
    A7        2.22239    .00121    .00013    .00588    .00601   2.22839
    A8        2.19290    .00158    .00004    .00799    .00804   2.20093
    A9        1.95373   -.00249    .00017   -.01094   -.01078   1.94296
   A10        2.13656    .00091   -.00021    .00295    .00274   2.13930
   A11        2.20346    .00000    .00003   -.00040   -.00036   2.20310
   A12        2.20395   -.00037    .00006   -.00257   -.00250   2.20145
   A13        1.87577    .00037   -.00010    .00297    .00286   1.87863
    D1         .00000    .00000    .00000    .00000    .00000    .00000
    D2        3.14159    .00000    .00000    .00000    .00000   3.14159
    D3        3.14159    .00000    .00000    .00000    .00000   3.14159
    D4         .00000    .00000    .00000    .00000    .00000    .00000
    D5        3.14159    .00000    .00000    .00000    .00000   3.14159
    D6         .00000    .00000    .00000    .00000    .00000    .00000
    D7         .00000    .00000    .00000    .00000    .00000    .00000
    D8        3.14159    .00000    .00000    .00000    .00000   3.14159
    D9         .00000    .00000    .00000    .00000    .00000    .00000
   D10        3.14159    .00000    .00000    .00000    .00000   3.14159
   D11        3.14159    .00000    .00000    .00000    .00000   3.14159
   D12         .00000    .00000    .00000    .00000    .00000    .00000
   D13        3.14159    .00000    .00000    .00000    .00000   3.14159
   D14         .00000    .00000    .00000    .00000    .00000    .00000
   D15         .00000    .00000    .00000    .00000    .00000    .00000
   D16        3.14159    .00000    .00000    .00000    .00000   3.14159
         Item               Value     Threshold  Converged?
 Maximum Force             .008677      .000450     NO 
 RMS     Force             .002615      .000300     NO 
 Maximum Displacement      .015885      .001800     NO 
 RMS     Displacement      .005554      .001200     NO 
 Predicted change in Energy=-2.360257D-04
 GradGradGradGradGradGradGradGradGradGradGradGradGradGradGradGradGradGrad

                          Input orientation:                          
 ---------------------------------------------------------------------
 Center     Atomic     Atomic              Coordinates (Angstroms)
 Number     Number      Type              X           Y           Z
 ---------------------------------------------------------------------
    1          7             0         .493148     .000000    1.124099
    2          1             0         .490489     .000000   -2.049175
    3          6             0       -1.017716     .000000    -.548963
    4          1             0       -1.900935     .000000   -1.170046
    5          6             0        -.837714     .000000     .812482
    6          1             0       -1.600369     .000000    1.580726
    7          1             0        2.196243     .000000    -.168698
    8          6             0        1.123416     .000000    -.028662
    9          7             0         .249041     .000000   -1.070355
 ---------------------------------------------------------------------
                    Distance matrix (angstroms):
                    1          2          3          4          5
     1  N     .000000
     2  H    3.173275    .000000
     3  C    2.254296   2.127280    .000000
     4  H    3.315831   2.547897   1.079731    .000000
     5  C    1.366857   3.154870   1.373293   2.249635    .000000
     6  H    2.142737   4.189018   2.207954   2.767144   1.082516
     7  H    2.138190   2.538856   3.236377   4.217768   3.188669
     8  C    1.313810   2.117326   2.203442   3.232561   2.133905
     9  N    2.207989   1.008160   1.369862   2.152286   2.173962
                    6          7          8          9
     6  H     .000000
     7  H    4.180280    .000000
     8  C    3.163721   1.081928    .000000
     9  N    3.232421   2.145828   1.360020    .000000
 Stoichiometry    C3H4N2
 Framework group  CS[SG(C3H4N2)]
 Deg. of freedom   15
 Full point group                 CS      NOp   2
 Largest Abelian subgroup         CS      NOp   2
 Largest concise Abelian subgroup C1      NOp   1
                         Standard orientation:                         
 ---------------------------------------------------------------------
 Center     Atomic     Atomic              Coordinates (Angstroms)
 Number     Number      Type              X           Y           Z
 ---------------------------------------------------------------------
    1          7             0        -.735901    -.983320     .000000
    2          1             0        -.012941    2.106503     .000000
    3          6             0        1.115322     .303078     .000000
    4          1             0        2.116475     .707444     .000000
    5          6             0         .630955    -.981960     .000000
    6          1             0        1.199298   -1.903279     .000000
    7          1             0       -2.101051     .662348     .000000
    8          6             0       -1.088023     .282423     .000000
    9          7             0         .000000    1.098426     .000000
 ---------------------------------------------------------------------
 Rotational constants (GHZ):      9.8181798      9.4443891      4.8138289
 Isotopes: N-14,H-1,C-12,H-1,C-12,H-1,H-1,C-12,N-14
 Standard basis: 6-31G(d) (6D, 7F)
 There are    63 symmetry adapted basis functions of A'  symmetry.
 There are    20 symmetry adapted basis functions of A"  symmetry.
 Crude estimate of integral set expansion from redundant integrals=1.000.
 Integral buffers will be    262144 words long.
 Raffenetti 2 integral format.
 Two-electron integral symmetry is turned on.
    83 basis functions      156 primitive gaussians
    18 alpha electrons       18 beta electrons
       nuclear repulsion energy       163.6327381340 Hartrees.
 One-electron integrals computed using PRISM.
 NBasis=    83 RedAO= T  NBF=    63    20
 NBsUse=    83 1.00D-04 NBFU=    63    20
 Initial guess read from the read-write file:
 Initial guess orbital symmetries:
       Occupied  (A') (A') (A') (A') (A') (A') (A') (A') (A') (A')
                 (A') (A') (A') (A") (A') (A") (A') (A")
       Virtual   (A") (A") (A') (A') (A') (A') (A') (A') (A') (A')
                 (A') (A') (A") (A') (A") (A') (A") (A') (A') (A')
                 (A") (A') (A') (A') (A") (A') (A') (A') (A') (A')
                 (A') (A') (A') (A") (A") (A") (A') (A') (A") (A")
                 (A') (A') (A') (A') (A') (A') (A") (A") (A') (A')
                 (A") (A") (A') (A") (A') (A') (A') (A') (A') (A')
                 (A') (A') (A') (A') (A')
 Requested convergence on RMS density matrix=1.00D-08 within  64 cycles.
 Requested convergence on MAX density matrix=1.00D-06.
 Keep R1 and R2 integrals in memory in canonical form, NReq=    12613144.
 SCF Done:  E(RmPW+HF-PW91) =  -226.159871507     A.U. after   10 cycles
             Convg  =     .4450D-08             -V/T =  2.0091
             S**2   =    .0000
 ***** Axes restored to original set *****
 -------------------------------------------------------------------
 Center     Atomic                   Forces (Hartrees/Bohr)
 Number     Number              X              Y              Z
 -------------------------------------------------------------------
    1          7            .004682260     .000000000     .000205019
    2          1           -.000658219     .000000000     .000943584
    3          6           -.002058004     .000000000     .003771231
    4          1            .001147406     .000000000     .000254529
    5          6           -.002789183     .000000000    -.003776501
    6          1            .001382726     .000000000    -.000748259
    7          1           -.001144487     .000000000     .000197440
    8          6           -.003735856     .000000000     .002742416
    9          7            .003173358     .000000000    -.003589460
 -------------------------------------------------------------------
 Cartesian Forces:  Max      .004682260 RMS      .002049590

 GradGradGradGradGradGradGradGradGradGradGradGradGradGradGradGradGradGrad
 Berny optimization.
 Internal  Forces:  Max      .002860550 RMS      .001050545
 Search for a local minimum.
 Step number   4 out of a maximum of  48
 All quantities printed in internal units (Hartrees-Bohrs-Radians)
 Update second derivatives using information from points  1  2  3  4
 Trust test= 1.03D+00 RLast= 3.32D-02 DXMaxT set to 6.00D-01
     Eigenvalues ---     .03205    .03261    .03287    .03303    .03350
     Eigenvalues ---     .03404    .14519    .15998    .16001    .16068
     Eigenvalues ---     .21676    .31499    .45999    .49138    .49624
     Eigenvalues ---     .49720    .56537    .60378    .64419    .70691
     Eigenvalues ---     .766271000.000001000.000001000.000001000.00000
     Eigenvalues --- 1000.000001000.000001000.000001000.000001000.00000
     Eigenvalues --- 1000.000001000.000001000.000001000.000001000.00000
     Eigenvalues --- 1000.000001000.000001000.00000
 RFO step:  Lambda=-1.14122053D-04.
 Quartic linear search produced a step of   .03697.
 Iteration  1 RMS(Cart)=   .00228448 RMS(Int)=   .00000469
 Iteration  2 RMS(Cart)=   .00000497 RMS(Int)=   .00000252
 Iteration  3 RMS(Cart)=   .00000000 RMS(Int)=   .00000252
 Variable       Old X    -DE/DX   Delta X   Delta X   Delta X     New X
                                 (Linear)    (Quad)   (Total)
    R1        2.58299    .00194    .00042    .00566    .00607   2.58906
    R2        2.48274   -.00286   -.00021   -.00506   -.00527   2.47747
    R3        1.90515   -.00107   -.00006   -.00150   -.00156   1.90358
    R4        2.04040   -.00108   -.00005   -.00162   -.00167   2.03873
    R5        2.59515   -.00271   -.00044   -.00619   -.00664   2.58851
    R6        2.58866    .00116    .00051    .00533    .00583   2.59450
    R7        2.04566   -.00151   -.00004   -.00248   -.00251   2.04314
    R8        2.04455   -.00116    .00002   -.00140   -.00138   2.04317
    R9        2.57007   -.00009    .00002    .00072    .00075   2.57082
    A1        1.84113   -.00163    .00053   -.00520   -.00468   1.83646
    A2        2.31512    .00045    .00009    .00348    .00357   2.31869
    A3        2.13826   -.00047   -.00022   -.00474   -.00495   2.13331
    A4        1.82981    .00002    .00013    .00126    .00138   1.83119
    A5        1.93225    .00095   -.00036    .00262    .00226   1.93451
    A6        2.12254   -.00094    .00014   -.00471   -.00457   2.11797
    A7        2.22839   -.00001    .00022    .00209    .00231   2.23071
    A8        2.20093   -.00112    .00030   -.00329   -.00300   2.19794
    A9        1.94296    .00214   -.00040    .00718    .00679   1.94974
   A10        2.13930   -.00102    .00010   -.00389   -.00379   2.13551
   A11        2.20310    .00035   -.00001    .00059    .00057   2.20368
   A12        2.20145    .00113   -.00009    .00526    .00517   2.20662
   A13        1.87863   -.00148    .00011   -.00585   -.00574   1.87289
    D1         .00000    .00000    .00000    .00000    .00000    .00000
    D2        3.14159    .00000    .00000    .00000    .00000   3.14159
    D3        3.14159    .00000    .00000    .00000    .00000   3.14159
    D4         .00000    .00000    .00000    .00000    .00000    .00000
    D5        3.14159    .00000    .00000    .00000    .00000   3.14159
    D6         .00000    .00000    .00000    .00000    .00000    .00000
    D7         .00000    .00000    .00000    .00000    .00000    .00000
    D8        3.14159    .00000    .00000    .00000    .00000   3.14159
    D9         .00000    .00000    .00000    .00000    .00000    .00000
   D10        3.14159    .00000    .00000    .00000    .00000   3.14159
   D11        3.14159    .00000    .00000    .00000    .00000   3.14159
   D12         .00000    .00000    .00000    .00000    .00000    .00000
   D13        3.14159    .00000    .00000    .00000    .00000   3.14159
   D14         .00000    .00000    .00000    .00000    .00000    .00000
   D15         .00000    .00000    .00000    .00000    .00000    .00000
   D16        3.14159    .00000    .00000    .00000    .00000   3.14159
         Item               Value     Threshold  Converged?
 Maximum Force             .002861      .000450     NO 
 RMS     Force             .001051      .000300     NO 
 Maximum Displacement      .006353      .001800     NO 
 RMS     Displacement      .002285      .001200     NO 
 Predicted change in Energy=-5.734849D-05
 GradGradGradGradGradGradGradGradGradGradGradGradGradGradGradGradGradGrad

                          Input orientation:                          
 ---------------------------------------------------------------------
 Center     Atomic     Atomic              Coordinates (Angstroms)
 Number     Number      Type              X           Y           Z
 ---------------------------------------------------------------------
    1          7             0         .495689     .000000    1.125782
    2          1             0         .490200     .000000   -2.050066
    3          6             0       -1.018198     .000000    -.546578
    4          1             0       -1.898870     .000000   -1.169740
    5          6             0        -.837794     .000000     .811271
    6          1             0       -1.597246     .000000    1.580813
    7          1             0        2.193196     .000000    -.166458
    8          6             0        1.121099     .000000    -.026452
    9          7             0         .250359     .000000   -1.071702
 ---------------------------------------------------------------------
                    Distance matrix (angstroms):
                    1          2          3          4          5
     1  N     .000000
     2  H    3.175853    .000000
     3  C    2.255802   2.129727    .000000
     4  H    3.317128   2.546100   1.078849    .000000
     5  C    1.370071   3.154492   1.369781   2.247285    .000000
     6  H    2.141829   4.188163   2.204788   2.767041   1.081186
     7  H    2.133404   2.539325   3.233812   4.213262   3.184785
     8  C    1.311023   2.119681   2.201618   3.229136   2.130503
     9  N    2.211137   1.007333   1.372950   2.151464   2.174779
                    6          7          8          9
     6  H     .000000
     7  H    4.173776    .000000
     8  C    3.157959   1.081200    .000000
     9  N    3.232566   2.143381   1.360418    .000000
 Stoichiometry    C3H4N2
 Framework group  CS[SG(C3H4N2)]
 Deg. of freedom   15
 Full point group                 CS      NOp   2
 Largest Abelian subgroup         CS      NOp   2
 Largest concise Abelian subgroup C1      NOp   1
                         Standard orientation:                         
 ---------------------------------------------------------------------
 Center     Atomic     Atomic              Coordinates (Angstroms)
 Number     Number      Type              X           Y           Z
 ---------------------------------------------------------------------
    1          7             0        -.738747    -.983453     .000000
    2          1             0        -.011012    2.107897     .000000
    3          6             0        1.115857     .300716     .000000
    4          1             0        2.115190     .707222     .000000
    5          6             0         .631321    -.980505     .000000
    6          1             0        1.195824   -1.902622     .000000
    7          1             0       -2.097818     .661034     .000000
    8          6             0       -1.085671     .280835     .000000
    9          7             0         .000000    1.100624     .000000
 ---------------------------------------------------------------------
 Rotational constants (GHZ):      9.8288214      9.4345270      4.8138194
 Isotopes: N-14,H-1,C-12,H-1,C-12,H-1,H-1,C-12,N-14
 Standard basis: 6-31G(d) (6D, 7F)
 There are    63 symmetry adapted basis functions of A'  symmetry.
 There are    20 symmetry adapted basis functions of A"  symmetry.
 Crude estimate of integral set expansion from redundant integrals=1.000.
 Integral buffers will be    262144 words long.
 Raffenetti 2 integral format.
 Two-electron integral symmetry is turned on.
    83 basis functions      156 primitive gaussians
    18 alpha electrons       18 beta electrons
       nuclear repulsion energy       163.6415760546 Hartrees.
 One-electron integrals computed using PRISM.
 NBasis=    83 RedAO= T  NBF=    63    20
 NBsUse=    83 1.00D-04 NBFU=    63    20
 Initial guess read from the read-write file:
 Initial guess orbital symmetries:
       Occupied  (A') (A') (A') (A') (A') (A') (A') (A') (A') (A')
                 (A') (A') (A') (A") (A') (A") (A') (A")
       Virtual   (A") (A") (A') (A') (A') (A') (A') (A') (A') (A')
                 (A') (A') (A") (A') (A") (A') (A") (A') (A') (A')
                 (A") (A') (A') (A') (A") (A') (A') (A') (A') (A')
                 (A') (A') (A') (A") (A") (A") (A') (A') (A") (A")
                 (A') (A') (A') (A') (A') (A') (A") (A") (A') (A')
                 (A") (A") (A') (A") (A') (A') (A') (A') (A') (A')
                 (A') (A') (A') (A') (A')
 Requested convergence on RMS density matrix=1.00D-08 within  64 cycles.
 Requested convergence on MAX density matrix=1.00D-06.
 Keep R1 and R2 integrals in memory in canonical form, NReq=    12613144.
 SCF Done:  E(RmPW+HF-PW91) =  -226.159940372     A.U. after   10 cycles
             Convg  =     .1390D-08             -V/T =  2.0091
             S**2   =    .0000
 ***** Axes restored to original set *****
 -------------------------------------------------------------------
 Center     Atomic                   Forces (Hartrees/Bohr)
 Number     Number              X              Y              Z
 -------------------------------------------------------------------
    1          7            .001214799     .000000000     .000130579
    2          1           -.000233892     .000000000     .000433444
    3          6           -.000150440     .000000000     .000309354
    4          1            .000345042     .000000000     .000235601
    5          6           -.001065602     .000000000    -.000649741
    6          1            .000486473     .000000000    -.000296672
    7          1           -.000406698     .000000000     .000088337
    8          6           -.000893620     .000000000     .000113585
    9          7            .000703938     .000000000    -.000364487
 -------------------------------------------------------------------
 Cartesian Forces:  Max      .001214799 RMS      .000452305

 GradGradGradGradGradGradGradGradGradGradGradGradGradGradGradGradGradGrad
 Berny optimization.
 Internal  Forces:  Max      .000582920 RMS      .000268271
 Search for a local minimum.
 Step number   5 out of a maximum of  48
 All quantities printed in internal units (Hartrees-Bohrs-Radians)
 Update second derivatives using information from points  1  2  3  4  5

 Trust test= 1.20D+00 RLast= 1.95D-02 DXMaxT set to 6.00D-01
     Eigenvalues ---     .03204    .03261    .03286    .03303    .03349
     Eigenvalues ---     .03404    .14349    .15970    .16007    .16019
     Eigenvalues ---     .21395    .28779    .44165    .48225    .49653
     Eigenvalues ---     .49953    .56302    .59832    .64630    .69148
     Eigenvalues ---     .762341000.000001000.000001000.000001000.00000
     Eigenvalues --- 1000.000001000.000001000.000001000.000001000.00000
     Eigenvalues --- 1000.000001000.000001000.000001000.000001000.00000
     Eigenvalues --- 1000.000001000.000001000.00000
 RFO step:  Lambda=-1.96673402D-06.
 Quartic linear search produced a step of   .24913.
 Iteration  1 RMS(Cart)=   .00070513 RMS(Int)=   .00000088
 Iteration  2 RMS(Cart)=   .00000037 RMS(Int)=   .00000083
 Variable       Old X    -DE/DX   Delta X   Delta X   Delta X     New X
                                 (Linear)    (Quad)   (Total)
    R1        2.58906    .00058    .00151    .00031    .00182   2.59088
    R2        2.47747   -.00058   -.00131   -.00001   -.00133   2.47615
    R3        1.90358   -.00048   -.00039   -.00060   -.00099   1.90259
    R4        2.03873   -.00042   -.00042   -.00059   -.00101   2.03772
    R5        2.58851   -.00055   -.00165    .00004   -.00161   2.58690
    R6        2.59450   -.00010    .00145   -.00073    .00072   2.59522
    R7        2.04314   -.00055   -.00063   -.00073   -.00136   2.04179
    R8        2.04317   -.00041   -.00034   -.00055   -.00090   2.04227
    R9        2.57082   -.00043    .00019   -.00086   -.00067   2.57015
    A1        1.83646   -.00045   -.00117   -.00021   -.00138   1.83508
    A2        2.31869    .00000    .00089   -.00078    .00011   2.31880
    A3        2.13331   -.00001   -.00123    .00081   -.00042   2.13289
    A4        1.83119    .00001    .00034   -.00003    .00031   1.83149
    A5        1.93451    .00009    .00056   -.00020    .00036   1.93486
    A6        2.11797   -.00018   -.00114   -.00018   -.00132   2.11665
    A7        2.23071    .00010    .00058    .00038    .00096   2.23167
    A8        2.19794   -.00028   -.00075   -.00029   -.00104   2.19689
    A9        1.94974    .00050    .00169    .00006    .00175   1.95150
   A10        2.13551   -.00021   -.00094    .00023   -.00071   2.13479
   A11        2.20368   -.00005    .00014   -.00049   -.00035   2.20333
   A12        2.20662    .00019    .00129    .00010    .00139   2.20801
   A13        1.87289   -.00014   -.00143    .00039   -.00104   1.87185
    D1         .00000    .00000    .00000    .00000    .00000    .00000
    D2        3.14159    .00000    .00000    .00000    .00000   3.14159
    D3        3.14159    .00000    .00000    .00000    .00000   3.14159
    D4         .00000    .00000    .00000    .00000    .00000    .00000
    D5        3.14159    .00000    .00000    .00000    .00000   3.14159
    D6         .00000    .00000    .00000    .00000    .00000    .00000
    D7         .00000    .00000    .00000    .00000    .00000    .00000
    D8        3.14159    .00000    .00000    .00000    .00000   3.14159
    D9         .00000    .00000    .00000    .00000    .00000    .00000
   D10        3.14159    .00000    .00000    .00000    .00000   3.14159
   D11        3.14159    .00000    .00000    .00000    .00000   3.14159
   D12         .00000    .00000    .00000    .00000    .00000    .00000
   D13        3.14159    .00000    .00000    .00000    .00000   3.14159
   D14         .00000    .00000    .00000    .00000    .00000    .00000
   D15         .00000    .00000    .00000    .00000    .00000    .00000
   D16        3.14159    .00000    .00000    .00000    .00000   3.14159
         Item               Value     Threshold  Converged?
 Maximum Force             .000583      .000450     NO 
 RMS     Force             .000268      .000300     YES
 Maximum Displacement      .002352      .001800     NO 
 RMS     Displacement      .000705      .001200     YES
 Predicted change in Energy=-3.832260D-06
 GradGradGradGradGradGradGradGradGradGradGradGradGradGradGradGradGradGrad

                          Input orientation:                          
 ---------------------------------------------------------------------
 Center     Atomic     Atomic              Coordinates (Angstroms)
 Number     Number      Type              X           Y           Z
 ---------------------------------------------------------------------
    1          7             0         .496284     .000000    1.125890
    2          1             0         .489835     .000000   -2.049996
    3          6             0       -1.018141     .000000    -.546480
    4          1             0       -1.898243     .000000   -1.169524
    5          6             0        -.837991     .000000     .810542
    6          1             0       -1.596280     .000000    1.580223
    7          1             0        2.191944     .000000    -.166115
    8          6             0        1.120301     .000000    -.026302
    9          7             0         .250661     .000000   -1.072008
 ---------------------------------------------------------------------
                    Distance matrix (angstroms):
                    1          2          3          4          5
     1  N     .000000
     2  H    3.175892    .000000
     3  C    2.256170   2.129449    .000000
     4  H    3.317030   2.545221   1.078315    .000000
     5  C    1.371034   3.153696   1.368927   2.246063    .000000
     6  H    2.141318   4.186927   2.203884   2.766277   1.080468
     7  H    2.131793   2.538933   3.232541   4.211468   3.183451
     8  C    1.310322   2.119628   2.200800   3.227780   2.129604
     9  N    2.211580   1.006809   1.373331   2.151116   2.174662
                    6          7          8          9
     6  H     .000000
     7  H    4.171371    .000000
     8  C    3.156063   1.080725    .000000
     9  N    3.231952   2.142247   1.360064    .000000
 Stoichiometry    C3H4N2
 Framework group  CS[SG(C3H4N2)]
 Deg. of freedom   15
 Full point group                 CS      NOp   2
 Largest Abelian subgroup         CS      NOp   2
 Largest concise Abelian subgroup C1      NOp   1
                         Standard orientation:                         
 ---------------------------------------------------------------------
 Center     Atomic     Atomic              Coordinates (Angstroms)
 Number     Number      Type              X           Y           Z
 ---------------------------------------------------------------------
    1          7             0        -.739569    -.983384     .000000
    2          1             0        -.010234    2.107629     .000000
    3          6             0        1.115833     .300276     .000000
    4          1             0        2.114672     .706585     .000000
    5          6             0         .631460    -.980092     .000000
    6          1             0        1.194602   -1.902200     .000000
    7          1             0       -2.096547     .660743     .000000
    8          6             0       -1.084878     .280620     .000000
    9          7             0         .000000    1.100872     .000000
 ---------------------------------------------------------------------
 Rotational constants (GHZ):      9.8337375      9.4344580      4.8149804
 Isotopes: N-14,H-1,C-12,H-1,C-12,H-1,H-1,C-12,N-14
 Standard basis: 6-31G(d) (6D, 7F)
 There are    63 symmetry adapted basis functions of A'  symmetry.
 There are    20 symmetry adapted basis functions of A"  symmetry.
 Crude estimate of integral set expansion from redundant integrals=1.000.
 Integral buffers will be    262144 words long.
 Raffenetti 2 integral format.
 Two-electron integral symmetry is turned on.
    83 basis functions      156 primitive gaussians
    18 alpha electrons       18 beta electrons
       nuclear repulsion energy       163.6650276670 Hartrees.
 One-electron integrals computed using PRISM.
 NBasis=    83 RedAO= T  NBF=    63    20
 NBsUse=    83 1.00D-04 NBFU=    63    20
 Initial guess read from the read-write file:
 Initial guess orbital symmetries:
       Occupied  (A') (A') (A') (A') (A') (A') (A') (A') (A') (A')
                 (A') (A') (A') (A") (A') (A") (A') (A")
       Virtual   (A") (A") (A') (A') (A') (A') (A') (A') (A') (A')
                 (A') (A') (A") (A') (A") (A') (A") (A') (A') (A')
                 (A") (A') (A') (A') (A") (A') (A') (A') (A') (A')
                 (A') (A') (A') (A") (A") (A") (A') (A') (A") (A")
                 (A') (A') (A') (A') (A') (A') (A") (A") (A') (A')
                 (A") (A") (A') (A") (A') (A') (A') (A') (A') (A')
                 (A') (A') (A') (A') (A')
 Requested convergence on RMS density matrix=1.00D-08 within  64 cycles.
 Requested convergence on MAX density matrix=1.00D-06.
 Keep R1 and R2 integrals in memory in canonical form, NReq=    12613144.
 SCF Done:  E(RmPW+HF-PW91) =  -226.159944458     A.U. after    8 cycles
             Convg  =     .5657D-08             -V/T =  2.0091
             S**2   =    .0000
 ***** Axes restored to original set *****
 -------------------------------------------------------------------
 Center     Atomic                   Forces (Hartrees/Bohr)
 Number     Number              X              Y              Z
 -------------------------------------------------------------------
    1          7            .000190269     .000000000     .000144089
    2          1           -.000021824     .000000000     .000019983
    3          6            .000162094     .000000000    -.000168612
    4          1            .000002421     .000000000     .000035847
    5          6           -.000294705     .000000000     .000014340
    6          1            .000053299     .000000000    -.000004572
    7          1           -.000011719     .000000000     .000010434
    8          6           -.000102731     .000000000    -.000233897
    9          7            .000022895     .000000000     .000182388
 -------------------------------------------------------------------
 Cartesian Forces:  Max      .000294705 RMS      .000105944

 GradGradGradGradGradGradGradGradGradGradGradGradGradGradGradGradGradGrad
 Berny optimization.
 Internal  Forces:  Max      .000176796 RMS      .000053160
 Search for a local minimum.
 Step number   6 out of a maximum of  48
 All quantities printed in internal units (Hartrees-Bohrs-Radians)
 Update second derivatives using information from points  1  2  3  4  5
                                                        6
 Trust test= 1.07D+00 RLast= 5.11D-03 DXMaxT set to 6.00D-01
     Eigenvalues ---     .03204    .03261    .03287    .03303    .03349
     Eigenvalues ---     .03404    .14243    .15585    .16002    .16037
     Eigenvalues ---     .21202    .29225    .43329    .46884    .49653
     Eigenvalues ---     .49762    .56308    .59186    .63652    .70838
     Eigenvalues ---     .764261000.000001000.000001000.000001000.00000
     Eigenvalues --- 1000.000001000.000001000.000001000.000001000.00000
     Eigenvalues --- 1000.000001000.000001000.000001000.000001000.00000
     Eigenvalues --- 1000.000001000.000001000.00000
 RFO step:  Lambda=-1.85004268D-07.
 Quartic linear search produced a step of   .06755.
 Iteration  1 RMS(Cart)=   .00008566 RMS(Int)=   .00000001
 Iteration  2 RMS(Cart)=   .00000001 RMS(Int)=   .00000001
 Variable       Old X    -DE/DX   Delta X   Delta X   Delta X     New X
                                 (Linear)    (Quad)   (Total)
    R1        2.59088    .00018    .00012    .00021    .00034   2.59121
    R2        2.47615    .00008   -.00009    .00016    .00007   2.47622
    R3        1.90259   -.00002   -.00007   -.00001   -.00008   1.90251
    R4        2.03772   -.00002   -.00007   -.00002   -.00009   2.03763
    R5        2.58690    .00005   -.00011    .00015    .00004   2.58694
    R6        2.59522   -.00012    .00005   -.00022   -.00017   2.59505
    R7        2.04179   -.00004   -.00009   -.00004   -.00014   2.04165
    R8        2.04227   -.00001   -.00006    .00000   -.00006   2.04221
    R9        2.57015   -.00016   -.00005   -.00024   -.00029   2.56986
    A1        1.83508   -.00008   -.00009   -.00006   -.00015   1.83492
    A2        2.31880   -.00004    .00001   -.00024   -.00023   2.31857
    A3        2.13289    .00001   -.00003    .00017    .00014   2.13303
    A4        1.83149    .00003    .00002    .00008    .00010   1.83159
    A5        1.93486   -.00006    .00002   -.00015   -.00013   1.93473
    A6        2.11665    .00000   -.00009   -.00009   -.00018   2.11647
    A7        2.23167    .00007    .00006    .00025    .00031   2.23198
    A8        2.19689   -.00003   -.00007   -.00008   -.00015   2.19675
    A9        1.95150    .00005    .00012    .00003    .00015   1.95165
   A10        2.13479   -.00001   -.00005    .00004    .00000   2.13479
   A11        2.20333   -.00005   -.00002   -.00011   -.00014   2.20319
   A12        2.20801   -.00002    .00009    .00001    .00010   2.20811
   A13        1.87185    .00006   -.00007    .00011    .00004   1.87188
    D1         .00000    .00000    .00000    .00000    .00000    .00000
    D2        3.14159    .00000    .00000    .00000    .00000   3.14159
    D3        3.14159    .00000    .00000    .00000    .00000   3.14159
    D4         .00000    .00000    .00000    .00000    .00000    .00000
    D5        3.14159    .00000    .00000    .00000    .00000   3.14159
    D6         .00000    .00000    .00000    .00000    .00000    .00000
    D7         .00000    .00000    .00000    .00000    .00000    .00000
    D8        3.14159    .00000    .00000    .00000    .00000   3.14159
    D9         .00000    .00000    .00000    .00000    .00000    .00000
   D10        3.14159    .00000    .00000    .00000    .00000   3.14159
   D11        3.14159    .00000    .00000    .00000    .00000   3.14159
   D12         .00000    .00000    .00000    .00000    .00000    .00000
   D13        3.14159    .00000    .00000    .00000    .00000   3.14159
   D14         .00000    .00000    .00000    .00000    .00000    .00000
   D15         .00000    .00000    .00000    .00000    .00000    .00000
   D16        3.14159    .00000    .00000    .00000    .00000   3.14159
         Item               Value     Threshold  Converged?
 Maximum Force             .000177      .000450     YES
 RMS     Force             .000053      .000300     YES
 Maximum Displacement      .000217      .001800     YES
 RMS     Displacement      .000086      .001200     YES
 Predicted change in Energy=-1.089140D-07
 Optimization completed.
    -- Stationary point found.
                         ----------------------------
                         !   Optimized Parameters   !
                         ! (Angstroms and Degrees)  !
 ------------------------                            -------------------------
 ! Name  Definition              Value          Derivative Info.             !
 -----------------------------------------------------------------------------
 ! R1    R(1,5)                  1.371          -DE/DX =    0.0002           !
 ! R2    R(1,8)                  1.3103         -DE/DX =    0.0001           !
 ! R3    R(2,9)                  1.0068         -DE/DX =    0.               !
 ! R4    R(3,4)                  1.0783         -DE/DX =    0.               !
 ! R5    R(3,5)                  1.3689         -DE/DX =    0.               !
 ! R6    R(3,9)                  1.3733         -DE/DX =   -0.0001           !
 ! R7    R(5,6)                  1.0805         -DE/DX =    0.               !
 ! R8    R(7,8)                  1.0807         -DE/DX =    0.               !
 ! R9    R(8,9)                  1.3601         -DE/DX =   -0.0002           !
 ! A1    A(5,1,8)              105.1421         -DE/DX =   -0.0001           !
 ! A2    A(4,3,5)              132.8576         -DE/DX =    0.               !
 ! A3    A(4,3,9)              122.2055         -DE/DX =    0.               !
 ! A4    A(5,3,9)              104.9369         -DE/DX =    0.               !
 ! A5    A(1,5,3)              110.8596         -DE/DX =   -0.0001           !
 ! A6    A(1,5,6)              121.2754         -DE/DX =    0.               !
 ! A7    A(3,5,6)              127.8651         -DE/DX =    0.0001           !
 ! A8    A(1,8,7)              125.8728         -DE/DX =    0.               !
 ! A9    A(1,8,9)              111.8125         -DE/DX =    0.               !
 ! A10   A(7,8,9)              122.3147         -DE/DX =    0.               !
 ! A11   A(2,9,3)              126.2414         -DE/DX =    0.               !
 ! A12   A(2,9,8)              126.5097         -DE/DX =    0.               !
 ! A13   A(3,9,8)              107.2489         -DE/DX =    0.0001           !
 ! D1    D(8,1,5,3)              0.             -DE/DX =    0.               !
 ! D2    D(8,1,5,6)            180.             -DE/DX =    0.               !
 ! D3    D(5,1,8,7)            180.             -DE/DX =    0.               !
 ! D4    D(5,1,8,9)              0.             -DE/DX =    0.               !
 ! D5    D(4,3,5,1)            180.             -DE/DX =    0.               !
 ! D6    D(4,3,5,6)              0.             -DE/DX =    0.               !
 ! D7    D(9,3,5,1)              0.             -DE/DX =    0.               !
 ! D8    D(9,3,5,6)            180.             -DE/DX =    0.               !
 ! D9    D(4,3,9,2)              0.             -DE/DX =    0.               !
 ! D10   D(4,3,9,8)            180.             -DE/DX =    0.               !
 ! D11   D(5,3,9,2)            180.             -DE/DX =    0.               !
[...]
 Raman Activ --      .0000                  .0000                  .0000
 Depolar     --      .0000                  .0000                  .0000
 Atom AN      X      Y      Z        X      Y      Z        X      Y      Z
   1   7      .00    .00    .00      .00    .00    .00      .00    .00    .00
   2   1     -.01    .02    .00     -.01   -.02    .00     -.01   1.00    .00
   3   6     -.01    .00    .00     -.08   -.04    .00      .00    .00    .00
   4   1      .09    .03    .00      .87    .35    .00      .01    .00    .00
   5   6      .01   -.01    .00     -.01    .03    .00      .00    .00    .00
   6   1     -.06    .10    .00      .17   -.29    .00      .00    .00    .00
   7   1      .92   -.34    .00     -.04    .02    .00     -.01    .00    .00
   8   6     -.08    .03    .00      .01    .00    .00      .00    .00    .00
   9   7      .00    .00    .00      .00    .00    .00      .00   -.08    .00

 -------------------
 - Thermochemistry -
 -------------------
 Temperature   298.150 Kelvin.  Pressure   1.00000 Atm.
 Atom  1 has atomic number  7 and mass  14.00307
 Atom  2 has atomic number  1 and mass   1.00783
 Atom  3 has atomic number  6 and mass  12.00000
 Atom  4 has atomic number  1 and mass   1.00783
 Atom  5 has atomic number  6 and mass  12.00000
 Atom  6 has atomic number  1 and mass   1.00783
 Atom  7 has atomic number  1 and mass   1.00783
 Atom  8 has atomic number  6 and mass  12.00000
 Atom  9 has atomic number  7 and mass  14.00307
 Molecular mass:    68.03745 amu.
 Principal axes and moments of inertia in atomic units:
                           1         2         3
     EIGENVALUES --   183.52546 191.29251 374.81797
           X             .46501    .88530    .00000
           Y             .88530   -.46501    .00000
           Z             .00000    .00000   1.00000
 THIS MOLECULE IS AN ASYMMETRIC TOP.
 ROTATIONAL SYMMETRY NUMBER  1.
 ROTATIONAL TEMPERATURES (KELVIN)       .47194      .45278      .23108
 ROTATIONAL CONSTANTS (GHZ)            9.83374     9.43446     4.81498
 Zero-point vibrational energy     189611.1 (Joules/Mol)
                                   45.31813 (Kcal/Mol)
 WARNING-- EXPLICIT CONSIDERATION OF   1 DEGREES OF FREEDOM AS
           VIBRATIONS MAY CAUSE SIGNIFICANT ERROR
 VIBRATIONAL TEMPERATURES:    760.30   939.76   993.59  1051.34  1171.87
          (KELVIN)           1253.04  1308.12  1367.33  1579.02  1616.63
                             1685.98  1729.34  1872.72  2029.03  2128.51
                             2221.88  2299.18  4738.71  4746.92  4787.31
                             5329.09
 
 Zero-point correction=                            .072219 (Hartree/Particle)
 Thermal correction to Energy=                     .075951
 Thermal correction to Enthalpy=                   .076896
 Thermal correction to Gibbs Free Energy=          .045969
 Sum of electronic and zero-point Energies=           -226.087725
 Sum of electronic and thermal Energies=              -226.083993
 Sum of electronic and thermal Enthalpies=            -226.083049
 Sum of electronic and thermal Free Energies=         -226.113976
 
                     E (Thermal)             CV                S
                      KCAL/MOL        CAL/MOL-KELVIN    CAL/MOL-KELVIN
 TOTAL                   47.660             13.197             65.091
 ELECTRONIC                .000               .000               .000
 TRANSLATIONAL             .889              2.981             38.570
 ROTATIONAL                .889              2.981             24.091
 VIBRATIONAL             45.883              7.235              2.430
 VIBRATION  1              .883              1.187               .591
                       Q            LOG10(Q)             LN(Q)
 TOTAL BOT        .717672D-21        -21.144074        -48.686030
 TOTAL V=0        .118618D+13         12.074152         27.801763
 VIB (BOT)        .792294D-33        -33.101113        -76.218130
 VIB (BOT)  1     .303084D+00          -.518437         -1.193744
 VIB (V=0)        .130952D+01           .117113           .269663
 VIB (V=0)  1     .108469D+01           .035305           .081292
 ELECTRONIC       .100000D+01           .000000           .000000
 TRANSLATIONAL    .220588D+08          7.343582         16.909224
 ROTATIONAL       .410636D+05          4.613457         10.622877
 ***** Axes restored to original set *****
 -------------------------------------------------------------------
 Center     Atomic                   Forces (Hartrees/Bohr)
 Number     Number              X              Y              Z
 -------------------------------------------------------------------
    1          7            .000190272     .000000000     .000144170
    2          1           -.000021799     .000000000     .000019980
    3          6            .000162118     .000000000    -.000168565
    4          1            .000002469     .000000000     .000035873
    5          6           -.000294748     .000000000     .000014195
    6          1            .000053304     .000000000    -.000004556
    7          1           -.000011682     .000000000     .000010433
    8          6           -.000102660     .000000000    -.000233889
    9          7            .000022727     .000000000     .000182359
 -------------------------------------------------------------------
 Cartesian Forces:  Max      .000294748 RMS      .000105944

 GradGradGradGradGradGradGradGradGradGradGradGradGradGradGradGradGradGrad
 Berny optimization.
 Internal  Forces:  Max      .000176837 RMS      .000053160
 Search for a local minimum.
 Step number   1 out of a maximum of  48
 All quantities printed in internal units (Hartrees-Bohrs-Radians)
 Second derivative matrix not updated -- analytic derivatives used.
     Eigenvalues ---     .00528    .01090    .02015    .02777    .06031
     Eigenvalues ---     .06267    .09990    .10654    .11232    .12043
     Eigenvalues ---     .23654    .25137    .36482    .38183    .38534
     Eigenvalues ---     .38829    .42638    .46613    .48882    .49586
     Eigenvalues ---     .603641000.000001000.000001000.000001000.00000
     Eigenvalues --- 1000.000001000.000001000.000001000.000001000.00000
     Eigenvalues --- 1000.000001000.000001000.000001000.000001000.00000
     Eigenvalues --- 1000.000001000.000001000.00000
 Angle between quadratic step and forces=  27.91 degrees.
 Linear search not attempted -- first point.
 Iteration  1 RMS(Cart)=   .00011917 RMS(Int)=   .00000002
 Iteration  2 RMS(Cart)=   .00000002 RMS(Int)=   .00000001
 Variable       Old X    -DE/DX   Delta X   Delta X   Delta X     New X
                                 (Linear)    (Quad)   (Total)
    R1        2.59088    .00018    .00000    .00056    .00056   2.59144
    R2        2.47615    .00008    .00000    .00016    .00016   2.47631
    R3        1.90259   -.00002    .00000   -.00005   -.00005   1.90255
    R4        2.03772   -.00002    .00000   -.00005   -.00005   2.03767
    R5        2.58690    .00005    .00000    .00008    .00008   2.58698
    R6        2.59522   -.00012    .00000   -.00032   -.00032   2.59490
    R7        2.04179   -.00004    .00000   -.00013   -.00013   2.04166
    R8        2.04227   -.00001    .00000   -.00003   -.00003   2.04225
    R9        2.57015   -.00016    .00000   -.00043   -.00043   2.56972
    A1        1.83508   -.00008    .00000   -.00022   -.00022   1.83485
    A2        2.31880   -.00004    .00000   -.00036   -.00036   2.31844
    A3        2.13289    .00001    .00000    .00025    .00025   2.13314
    A4        1.83149    .00003    .00000    .00011    .00011   1.83160
    A5        1.93486   -.00006    .00000   -.00019   -.00019   1.93467
    A6        2.11665    .00000    .00000   -.00029   -.00029   2.11637
    A7        2.23167    .00007    .00000    .00048    .00048   2.23215
    A8        2.19689   -.00003    .00000   -.00022   -.00022   2.19668
    A9        1.95150    .00005    .00000    .00015    .00015   1.95165
   A10        2.13479   -.00001    .00000    .00007    .00007   2.13486
   A11        2.20333   -.00005    .00000   -.00022   -.00022   2.20311
   A12        2.20801   -.00002    .00000    .00006    .00006   2.20807
   A13        1.87185    .00006    .00000    .00016    .00016   1.87200
    D1         .00000    .00000    .00000    .00000    .00000    .00000
    D2        3.14159    .00000    .00000    .00000    .00000   3.14159
    D3        3.14159    .00000    .00000    .00000    .00000   3.14159
    D4         .00000    .00000    .00000    .00000    .00000    .00000
    D5        3.14159    .00000    .00000    .00000    .00000   3.14159
    D6         .00000    .00000    .00000    .00000    .00000    .00000
    D7         .00000    .00000    .00000    .00000    .00000    .00000
    D8        3.14159    .00000    .00000    .00000    .00000   3.14159
    D9         .00000    .00000    .00000    .00000    .00000    .00000
   D10        3.14159    .00000    .00000    .00000    .00000   3.14159
   D11        3.14159    .00000    .00000    .00000    .00000   3.14159
   D12         .00000    .00000    .00000    .00000    .00000    .00000
   D13        3.14159    .00000    .00000    .00000    .00000   3.14159
   D14         .00000    .00000    .00000    .00000    .00000    .00000
   D15         .00000    .00000    .00000    .00000    .00000    .00000
   D16        3.14159    .00000    .00000    .00000    .00000   3.14159
         Item               Value     Threshold  Converged?
 Maximum Force             .000177      .000450     YES
 RMS     Force             .000053      .000300     YES
 Maximum Displacement      .000349      .001800     YES
 RMS     Displacement      .000119      .001200     YES
 Predicted change in Energy=-1.717597D-07
 Optimization completed.
    -- Stationary point found.
                         ----------------------------
                         !   Optimized Parameters   !
                         ! (Angstroms and Degrees)  !
 ------------------------                            -------------------------
 ! Name  Definition              Value          Derivative Info.             !
 -----------------------------------------------------------------------------
 ! R1    R(1,5)                  1.371          -DE/DX =    0.0002           !
 ! R2    R(1,8)                  1.3103         -DE/DX =    0.0001           !
 ! R3    R(2,9)                  1.0068         -DE/DX =    0.               !
 ! R4    R(3,4)                  1.0783         -DE/DX =    0.               !
 ! R5    R(3,5)                  1.3689         -DE/DX =    0.               !
 ! R6    R(3,9)                  1.3733         -DE/DX =   -0.0001           !
 ! R7    R(5,6)                  1.0805         -DE/DX =    0.               !
 ! R8    R(7,8)                  1.0807         -DE/DX =    0.               !
 ! R9    R(8,9)                  1.3601         -DE/DX =   -0.0002           !
 ! A1    A(5,1,8)              105.1421         -DE/DX =   -0.0001           !
 ! A2    A(4,3,5)              132.8576         -DE/DX =    0.               !
 ! A3    A(4,3,9)              122.2055         -DE/DX =    0.               !
 ! A4    A(5,3,9)              104.9369         -DE/DX =    0.               !
 ! A5    A(1,5,3)              110.8596         -DE/DX =   -0.0001           !
 ! A6    A(1,5,6)              121.2754         -DE/DX =    0.               !
 ! A7    A(3,5,6)              127.8651         -DE/DX =    0.0001           !
 ! A8    A(1,8,7)              125.8728         -DE/DX =    0.               !
 ! A9    A(1,8,9)              111.8125         -DE/DX =    0.               !
 ! A10   A(7,8,9)              122.3147         -DE/DX =    0.               !
 ! A11   A(2,9,3)              126.2414         -DE/DX =    0.               !
 ! A12   A(2,9,8)              126.5097         -DE/DX =    0.               !
 ! A13   A(3,9,8)              107.2489         -DE/DX =    0.0001           !
 ! D1    D(8,1,5,3)              0.             -DE/DX =    0.               !
 ! D2    D(8,1,5,6)            180.             -DE/DX =    0.               !
 ! D3    D(5,1,8,7)            180.             -DE/DX =    0.               !
 ! D4    D(5,1,8,9)              0.             -DE/DX =    0.               !
 ! D5    D(4,3,5,1)            180.             -DE/DX =    0.               !
 ! D6    D(4,3,5,6)              0.             -DE/DX =    0.               !
 ! D7    D(9,3,5,1)              0.             -DE/DX =    0.               !
 ! D8    D(9,3,5,6)            180.             -DE/DX =    0.               !
 ! D9    D(4,3,9,2)              0.             -DE/DX =    0.               !
 ! D10   D(4,3,9,8)            180.             -DE/DX =    0.               !
 ! D11   D(5,3,9,2)            180.             -DE/DX =    0.               !
 ! D12   D(5,3,9,8)              0.             -DE/DX =    0.               !
 ! D13   D(1,8,9,2)            180.             -DE/DX =    0.               !
 ! D14   D(1,8,9,3)              0.             -DE/DX =    0.               !
 ! D15   D(7,8,9,2)              0.             -DE/DX =    0.               !
 ! D16   D(7,8,9,3)            180.             -DE/DX =    0.               !
 -----------------------------------------------------------------------------
 GradGradGradGradGradGradGradGradGradGradGradGradGradGradGradGradGradGrad

 1\1\GINC-YUKON\Freq\RmPW1PW91\6-31G(d)\C3H4N2\RUS\28-Nov-2000\0\\#N GE
 OM=ALLCHECK GUESS=TCHECK RMPW1PW91/6-31G(D) FREQ\\1H imidazole C3H4N2 
 casno=288324\\0,1\N,0.4962594515,0.,1.1259363863\H,0.4898104492,0.,-2.
 0499490818\C,-1.0181656412,0.,-0.5464330131\H,-1.898267937,0.,-1.16947
 72429\C,-0.8380151257,0.,0.810588616\H,-1.5963044512,0.,1.5802691911\H
 ,2.1919192478,0.,-0.1660687481\C,1.1202763676,0.,-0.026255405\N,0.2506
 361324,0.,-1.0719614299\\Version=IBM-RS6000-G98RevA.7\State=1-A'\HF=-2
 26.1599445\RMSD=5.241e-09\RMSF=1.059e-04\Dipole=-0.1107623,0.,-1.48045
 97\DipoleDeriv=-0.4012024,-0.0000425,-0.0136355,0.0000654,-0.3085835,0
 .0000878,-0.0041941,0.0001347,-0.5852253,0.1903695,-0.0000362,-0.00360
 29,-0.0002717,0.3465151,-0.0000764,-0.0044519,0.0000612,0.1981713,0.00
 12438,0.0000777,-0.2294045,-0.0000123,-0.1233431,-0.0000276,-0.0212665
 ,0.0000925,0.1785728,0.0199356,-0.0000416,-0.0458345,0.0000702,0.17807
 14,0.0000312,-0.0692706,-0.0000347,0.0356567,0.1959779,-0.0000463,-0.0
 463777,-0.0000339,-0.1101754,-0.0000511,-0.0879236,-0.0001095,0.132329
 8,-0.0079944,0.000007,0.0675111,0.000031,0.1404801,0.0000392,0.0811962
 ,-0.0000106,0.0253909,-0.0310951,-0.0000277,0.0345079,-0.0001324,0.147
 1747,0.0000578,0.0364507,0.0000217,0.0655634,0.148023,0.0000631,0.0842
 008,0.0000137,0.0160913,-0.0001094,0.0024996,-0.0001508,0.5443565,-0.1
 152551,0.0000465,0.1526342,0.00027,-0.2862306,0.0000484,0.0669602,-0.0
 000046,-0.5948147\Polar=47.8230814,0.0059023,17.6261357,-0.7229738,-0.
 0001073,44.9104702\PG=CS [SG(C3H4N2)]\NImag=0\\0.52303074,0.00000619,0
 .10606390,-0.06543521,-0.00000598,0.59799508,-0.00310113,0.00000068,-0
 .00842436,0.08404278,-0.00000281,0.00721018,0.00000646,-0.00000141,0.0
 1164386,-0.00314933,-0.00000229,-0.00372167,-0.09930143,0.00000242,0.4
 6322645,-0.03322364,-0.00000246,-0.01237636,0.00710746,0.00000685,-0.0
 0290464,0.77125542,0.00000073,0.01676854,-0.00000044,0.00000015,-0.007
 89625,-0.00000061,0.00000085,0.10863777,-0.08898538,-0.00000758,-0.019
 87663,0.02885695,0.00000944,-0.00099990,0.15899360,0.00000041,0.766986
 56,0.00146878,0.00000060,0.00116181,0.00009562,-0.00000586,0.00013090,
 -0.26208310,-0.00000026,-0.14349146,0.27670640,-0.00000082,0.00736392,
 -0.00000018,0.00000016,-0.00114163,0.00000023,-0.00000131,-0.02026804,
 -0.00000099,0.00000009,0.01846630,-0.00424372,0.00000022,-0.00564420,-
 0.00092520,-0.00000467,0.00021124,-0.15414405,-0.00000035,-0.16903347,
 0.15797342,0.00000020,0.16201674,-0.27937255,0.00000277,-0.04254407,-0
 .00884380,-0.00000183,-0.00105871,-0.10234253,-0.00000057,-0.02124799,
 0.00509492,0.00000111,-0.02220462,0.68915857,0.00000046,-0.07102238,-0
 .00000140,0.00000033,0.00245274,-0.00000134,0.00000095,-0.06482405,0.0
 0000229,-0.00000078,-0.00208310,-0.00000060,0.00000045,0.13401469,-0.0
 5331421,0.00000222,-0.11384889,0.00362657,-0.00000604,0.00026847,-0.03
 822444,-0.00000077,-0.40826106,0.00115113,0.00000197,0.00253551,-0.151
 28964,-0.00000148,0.82215142,-0.02028848,-0.00000492,0.02098215,0.0008
 7120,0.00000100,0.00001115,0.00895410,-0.00000026,-0.00548967,-0.00016
 050,0.00000025,0.00071002,-0.19788258,-0.00000020,0.15039992,0.2146785
 1,-0.00000142,-0.00553624,0.00000139,-0.00000012,0.00211025,0.00000057
 ,-0.00000157,-0.00069664,-0.00000122,0.00000155,-0.00212432,0.00000127
 ,-0.00000041,-0.02901413,0.00000113,0.00000095,0.02344271,-0.00660433,
 0.00000429,0.01272544,0.00128451,-0.00000138,0.00023323,0.02079468,0.0
 0000024,-0.00805660,-0.00049524,-0.00000018,-0.00022459,0.15300345,-0.
 00000010,-0.22287230,-0.16315452,-0.00000063,0.22275313,-0.00852319,-0
 .00000490,0.00442360,-0.00057834,-0.00000139,-0.00052606,0.00075176,-0
 .00000018,-0.00317855,-0.00026421,-0.00000021,0.00043845,0.00076968,0.
 00000114,0.00245739,-0.00025906,0.00000088,-0.00024464,0.37766236,0.00
 000219,-0.00568895,-0.00000140,0.00000006,-0.00128403,-0.00000237,-0.0
 0000071,0.00267753,-0.00000080,-0.00000044,0.00197624,-0.00000046,0.00
 000175,0.00717716,-0.00000204,-0.00000278,0.00118071,0.00000207,-0.000
 00198,0.02090636,0.02982295,0.00000127,0.00062391,0.00047193,0.0000009
 4,0.00028846,-0.00102671,0.00000001,-0.00589216,-0.00107256,0.00000003
 ,0.00102856,0.00311618,-0.00000048,-0.00450960,0.00139761,-0.00000014,
 0.00070698,-0.03981495,0.00000082,0.06314503,-0.17394388,-0.00000045,0
 .12866612,0.01861301,0.00000456,0.01408435,-0.09267360,-0.00000041,0.0
 0581910,-0.00334220,0.00000056,0.00406740,-0.08974506,0.00000001,0.014
 45370,-0.00628935,-0.00000042,-0.00339916,-0.35634106,0.00000215,0.037
 11252,0.92135065,-0.00000748,-0.07736008,0.00000793,-0.00000109,-0.009
 14043,0.00000534,0.00000347,0.01709666,0.00000660,-0.00000055,0.002747
 10,-0.00000022,-0.00000420,0.01012678,-0.00000057,0.00000612,0.0055188
 7,-0.00000500,0.00000408,-0.02443460,-0.00000112,-0.00000052,0.1349565
 6,0.15352073,0.00000238,-0.36091428,-0.01699366,-0.00000625,-0.0110027
 8,-0.04760292,-0.00000013,-0.01196294,0.00386699,0.00000024,-0.0054690
 8,0.07681724,0.00000376,-0.00194287,-0.00184046,-0.00000153,0.00032947
 ,0.03218372,0.00000245,-0.06286334,-0.08703468,-0.00000806,0.68013559,
 -0.00604665,0.00000248,-0.02645368,-0.09820680,0.00000088,0.09271375,-
 0.29774587,-0.00000005,0.06872342,-0.01751568,0.00000018,0.01832830,-0
 .01683669,-0.00000237,0.07073962,0.00037621,0.00000057,-0.00118478,-0.
 01321788,-0.00000024,-0.03000697,-0.21762857,0.00000017,-0.11291696,0.
 66682192,0.00000295,0.02220111,-0.00000638,0.00000125,-0.00395469,-0.0
 0000194,-0.00000605,-0.05149552,-0.00000813,0.00000565,-0.00493647,0.0
 0000461,0.00000093,0.01317230,0.00000555,-0.00000015,0.00511878,0.0000
 0069,0.00000255,-0.00251042,-0.00000132,-0.00000548,-0.05951085,0.0000
 0715,-0.00000166,0.08191575,0.03838853,0.00000547,-0.10733873,0.091404
 68,-0.00000092,-0.44850348,0.07649079,0.00000164,-0.14290384,-0.019224
 96,-0.00000131,0.01457930,0.00540817,-0.00000065,-0.07352070,-0.003016
 20,-0.00000084,-0.00559477,0.00426102,0.00000173,0.00747217,-0.1137693
 1,-0.00000490,-0.22630978,-0.07994271,-0.00000022,0.98211980\\-0.00019
 027,0.,-0.00014417,0.00002180,0.,-0.00001998,-0.00016212,0.,0.00016857
 ,-0.00000247,0.,-0.00003587,0.00029475,0.,-0.00001420,-0.00005330,0.,0
 .00000456,0.00001168,0.,-0.00001043,0.00010266,0.,0.00023389,-0.000022
 73,0.,-0.00018236\\\@


 GOOD SENSE ABOUT TRIVIALITIES IS BETTER THAN NONSENSE
 ABOUT THINGS THAT MATTER

                                       -- MAX BEERBOHM
 Job cpu time:  0 days  0 hours  9 minutes 59.1 seconds.
 File lengths (MBytes):  RWF=   16 Int=    0 D2E=    0 Chk=    3 Scr=    1
 Normal termination of Gaussian 98.
