 Entering Gaussian System, Link 0=g09
 Initial command:
 /usr/local/gaussian/g09.b01.em64t.linda/g09/l1.exe /tmp/rdj3/g09-5811/Gau-5856.inp -scrdir=/tmp/rdj3/g09-5811/
 Entering Link 1 = /usr/local/gaussian/g09.b01.em64t.linda/g09/l1.exe PID=      5857.
  
 Copyright (c) 1988,1990,1992,1993,1995,1998,2003,2009,2010,
            Gaussian, Inc.  All Rights Reserved.
  
 This is part of the Gaussian(R) 09 program.  It is based on
 the Gaussian(R) 03 system (copyright 2003, Gaussian, Inc.),
 the Gaussian(R) 98 system (copyright 1998, Gaussian, Inc.),
 the Gaussian(R) 94 system (copyright 1995, Gaussian, Inc.),
 the Gaussian 92(TM) system (copyright 1992, Gaussian, Inc.),
 the Gaussian 90(TM) system (copyright 1990, Gaussian, Inc.),
 the Gaussian 88(TM) system (copyright 1988, Gaussian, Inc.),
 the Gaussian 86(TM) system (copyright 1986, Carnegie Mellon
 University), and the Gaussian 82(TM) system (copyright 1983,
 Carnegie Mellon University). Gaussian is a federally registered
 trademark of Gaussian, Inc.
  
 This software contains proprietary and confidential information,
 including trade secrets, belonging to Gaussian, Inc.
  
 This software is provided under written license and may be
 used, copied, transmitted, or stored only in accord with that
 written license.
  
 The following legend is applicable only to US Government
 contracts under FAR:
  
                    RESTRICTED RIGHTS LEGEND
  
 Use, reproduction and disclosure by the US Government is
 subject to restrictions as set forth in subparagraphs (a)
 and (c) of the Commercial Computer Software - Restricted
 Rights clause in FAR 52.227-19.
  
 Gaussian, Inc.
 340 Quinnipiac St., Bldg. 40, Wallingford CT 06492
  
  
 ---------------------------------------------------------------
 Warning -- This program may not be used in any manner that
 competes with the business of Gaussian, Inc. or will provide
 assistance to any competitor of Gaussian, Inc.  The licensee
 of this program is prohibited from giving any competitor of
 Gaussian, Inc. access to this program.  By using this program,
 the user acknowledges that Gaussian, Inc. is engaged in the
 business of creating and licensing software in the field of
 computational chemistry and represents and warrants to the
 licensee that it is not a competitor of Gaussian, Inc. and that
 it will not use this program in any manner prohibited above.
 ---------------------------------------------------------------
  

 Cite this work as:
 Gaussian 09, Revision B.01,
 M. J. Frisch, G. W. Trucks, H. B. Schlegel, G. E. Scuseria, 
 M. A. Robb, J. R. Cheeseman, G. Scalmani, V. Barone, B. Mennucci, 
 G. A. Petersson, H. Nakatsuji, M. Caricato, X. Li, H. P. Hratchian, 
 A. F. Izmaylov, J. Bloino, G. Zheng, J. L. Sonnenberg, M. Hada, 
 M. Ehara, K. Toyota, R. Fukuda, J. Hasegawa, M. Ishida, T. Nakajima, 
 Y. Honda, O. Kitao, H. Nakai, T. Vreven, J. A. Montgomery, Jr., 
 J. E. Peralta, F. Ogliaro, M. Bearpark, J. J. Heyd, E. Brothers, 
 K. N. Kudin, V. N. Staroverov, T. Keith, R. Kobayashi, J. Normand, 
 K. Raghavachari, A. Rendell, J. C. Burant, S. S. Iyengar, J. Tomasi, 
 M. Cossi, N. Rega, J. M. Millam, M. Klene, J. E. Knox, J. B. Cross, 
 V. Bakken, C. Adamo, J. Jaramillo, R. Gomperts, R. E. Stratmann, 
 O. Yazyev, A. J. Austin, R. Cammi, C. Pomelli, J. W. Ochterski, 
 R. L. Martin, K. Morokuma, V. G. Zakrzewski, G. A. Voth, 
 P. Salvador, J. J. Dannenberg, S. Dapprich, A. D. Daniels, 
 O. Farkas, J. B. Foresman, J. V. Ortiz, J. Cioslowski, 
 and D. J. Fox, Gaussian, Inc., Wallingford CT, 2010.
 
 ******************************************
 Gaussian 09:  EM64L-G09RevB.01 12-Aug-2010
                 8-Feb-2012 
 ******************************************
 %NProc=8
 Will use up to    8 processors via shared memory.
 %mem=424000000
 -------------------------
 #MP2=FULL/STO-3G opt freq
 -------------------------
 1/18=20,19=15,38=1/1,3;
 2/9=110,12=2,17=6,18=5,40=1/2;
 3/6=3,11=9,16=1,25=1,30=1,71=1/1,2,3;
 4//1;
 5/5=2,38=5/2;
 8/6=4,10=90/1;
 9/15=2,16=-3/6;
 10/5=1/2;
 6/7=2,8=2,9=2,10=2/1;
 7/12=2/1,2,3,16;
 1/18=20,19=15/3(2);
 2/9=110/2;
 99//99;
 2/9=110/2;
 3/6=3,11=9,16=1,25=1,30=1,71=1/1,2,3;
 4/5=5,16=3/1;
 5/5=2,38=5/2;
 8/6=4,10=90/1;
 9/15=2,16=-3/6;
 10/5=1/2;
 7/12=2/1,2,3,16;
 1/18=20,19=15/3(-8);
 2/9=110/2;
 6/7=2,8=2,9=2,10=2/1;
 99//99;
 ---------------------------------------------------------------------
 1himidaz 1H-Imidazole casno=288324 state=1 config=1 method=2 basis=20
 ---------------------------------------------------------------------
 Symbolic Z-matrix:
 Charge =  0 Multiplicity = 1
 N                    -0.74106  -0.96596   0. 
 H                    -0.01273   2.08825   0. 
 C                     1.10986   0.28827   0. 
 H                     2.10334   0.68144   0. 
 C                     0.63018  -0.97392   0. 
 H                     1.18224  -1.89044   0. 
 H                    -2.07716   0.65597   0. 
 C                    -1.07476   0.2791    0. 
 N                     0.        1.09512   0. 
 

 GradGradGradGradGradGradGradGradGradGradGradGradGradGradGradGradGradGrad
 Berny optimization.
 Initialization pass.
                           ----------------------------
                           !    Initial Parameters    !
                           ! (Angstroms and Degrees)  !
 --------------------------                            --------------------------
 ! Name  Definition              Value          Derivative Info.                !
 --------------------------------------------------------------------------------
 ! R1    R(1,5)                  1.3713         estimate D2E/DX2                !
 ! R2    R(1,8)                  1.289          estimate D2E/DX2                !
 ! R3    R(2,9)                  0.9932         estimate D2E/DX2                !
 ! R4    R(3,4)                  1.0684         estimate D2E/DX2                !
 ! R5    R(3,5)                  1.3503         estimate D2E/DX2                !
 ! R6    R(3,9)                  1.3721         estimate D2E/DX2                !
 ! R7    R(5,6)                  1.0699         estimate D2E/DX2                !
 ! R8    R(7,8)                  1.0709         estimate D2E/DX2                !
 ! R9    R(8,9)                  1.3494         estimate D2E/DX2                !
 ! A1    A(5,1,8)              105.3363         estimate D2E/DX2                !
 ! A2    A(4,3,5)              132.3996         estimate D2E/DX2                !
 ! A3    A(4,3,9)              122.3927         estimate D2E/DX2                !
 ! A4    A(5,3,9)              105.2077         estimate D2E/DX2                !
 ! A5    A(1,5,3)              110.476          estimate D2E/DX2                !
 ! A6    A(1,5,6)              121.3948         estimate D2E/DX2                !
 ! A7    A(3,5,6)              128.1292         estimate D2E/DX2                !
 ! A8    A(1,8,7)              125.6083         estimate D2E/DX2                !
 ! A9    A(1,8,9)              112.2043         estimate D2E/DX2                !
 ! A10   A(7,8,9)              122.1873         estimate D2E/DX2                !
 ! A11   A(2,9,3)              126.7509         estimate D2E/DX2                !
 ! A12   A(2,9,8)              126.4734         estimate D2E/DX2                !
 ! A13   A(3,9,8)              106.7757         estimate D2E/DX2                !
 ! D1    D(8,1,5,3)              0.0            estimate D2E/DX2                !
 ! D2    D(8,1,5,6)            180.0            estimate D2E/DX2                !
 ! D3    D(5,1,8,7)            180.0            estimate D2E/DX2                !
 ! D4    D(5,1,8,9)              0.0            estimate D2E/DX2                !
 ! D5    D(4,3,5,1)            180.0            estimate D2E/DX2                !
 ! D6    D(4,3,5,6)              0.0            estimate D2E/DX2                !
 ! D7    D(9,3,5,1)              0.0            estimate D2E/DX2                !
 ! D8    D(9,3,5,6)            180.0            estimate D2E/DX2                !
 ! D9    D(4,3,9,2)              0.0            estimate D2E/DX2                !
 ! D10   D(4,3,9,8)            180.0            estimate D2E/DX2                !
 ! D11   D(5,3,9,2)            180.0            estimate D2E/DX2                !
 ! D12   D(5,3,9,8)              0.0            estimate D2E/DX2                !
 ! D13   D(1,8,9,2)            180.0            estimate D2E/DX2                !
 ! D14   D(1,8,9,3)              0.0            estimate D2E/DX2                !
 ! D15   D(7,8,9,2)              0.0            estimate D2E/DX2                !
 ! D16   D(7,8,9,3)            180.0            estimate D2E/DX2                !
 --------------------------------------------------------------------------------
 Trust Radius=3.00D-01 FncErr=1.00D-07 GrdErr=1.00D-07
 Number of steps in this run=     48 maximum allowed number of steps=    100.
 GradGradGradGradGradGradGradGradGradGradGradGradGradGradGradGradGradGrad

                          Input orientation:                          
 ---------------------------------------------------------------------
 Center     Atomic      Atomic             Coordinates (Angstroms)
 Number     Number       Type             X           Y           Z
 ---------------------------------------------------------------------
      1          7           0       -0.741059   -0.965959    0.000000
      2          1           0       -0.012734    2.088247    0.000000
      3          6           0        1.109862    0.288272    0.000000
      4          1           0        2.103339    0.681436    0.000000
      5          6           0        0.630182   -0.973920    0.000000
      6          1           0        1.182239   -1.890444    0.000000
      7          1           0       -2.077162    0.655969    0.000000
      8          6           0       -1.074756    0.279096    0.000000
      9          7           0        0.000000    1.095117    0.000000
 ---------------------------------------------------------------------
                    Distance matrix (angstroms):
                    1          2          3          4          5
     1  N    0.000000
     2  H    3.139846   0.000000
     3  C    2.235845   2.121351   0.000000
     4  H    3.287021   2.541040   1.068445   0.000000
     5  C    1.371264   3.128931   1.350267   2.215941   0.000000
     6  H    2.133951   4.154268   2.179918   2.731848   1.069945
     7  H    2.101386   2.512625   3.208165   4.180579   3.160103
     8  C    1.288998   2.097837   2.184637   3.203461   2.115860
     9  N    2.190252   0.993212   1.372149   2.143634   2.162879
                    6          7          8          9
     6  H    0.000000
     7  H    4.136171   0.000000
     8  C    3.130644   1.070911   0.000000
     9  N    3.211116   2.123076   1.349441   0.000000
 Stoichiometry    C3H4N2
 Framework group  CS[SG(C3H4N2)]
 Deg. of freedom    15
 Full point group                 CS      NOp   2
 Largest Abelian subgroup         CS      NOp   2
 Largest concise Abelian subgroup C1      NOp   1
                         Standard orientation:                         
 ---------------------------------------------------------------------
 Center     Atomic      Atomic             Coordinates (Angstroms)
 Number     Number       Type             X           Y           Z
 ---------------------------------------------------------------------
      1          7           0       -0.741059   -0.965959    0.000000
      2          1           0       -0.012734    2.088247    0.000000
      3          6           0        1.109862    0.288272    0.000000
      4          1           0        2.103339    0.681436    0.000000
      5          6           0        0.630182   -0.973920    0.000000
      6          1           0        1.182239   -1.890444    0.000000
      7          1           0       -2.077162    0.655969    0.000000
      8          6           0       -1.074756    0.279096    0.000000
      9          7           0        0.000000    1.095117    0.000000
 ---------------------------------------------------------------------
 Rotational constants (GHZ):      9.9280198      9.6396664      4.8908592
 Standard basis: STO-3G (5D, 7F)
 There are    24 symmetry adapted basis functions of A'  symmetry.
 There are     5 symmetry adapted basis functions of A"  symmetry.
 Integral buffers will be    131072 words long.
 Raffenetti 1 integral format.
 Two-electron integral symmetry is turned on.
    29 basis functions,    87 primitive gaussians,    29 cartesian basis functions
    18 alpha electrons       18 beta electrons
       nuclear repulsion energy       164.9791768920 Hartrees.
 NAtoms=    9 NActive=    9 NUniq=    9 SFac= 1.00D+00 NAtFMM=   50 NAOKFM=F Big=F
 One-electron integrals computed using PRISM.
 NBasis=    29 RedAO= T  NBF=    24     5
 NBsUse=    29 1.00D-06 NBFU=    24     5
 Harris functional with IExCor=  205 diagonalized for initial guess.
 ExpMin= 1.69D-01 ExpMax= 9.91D+01 ExpMxC= 9.91D+01 IAcc=1 IRadAn=         1 AccDes= 0.00D+00
 HarFok:  IExCor=  205 AccDes= 0.00D+00 IRadAn=         1 IDoV= 1
 ScaDFX=  1.000000  1.000000  1.000000  1.000000
 FoFCou: FMM=F IPFlag=           0 FMFlag=      100000 FMFlg1=           0
         NFxFlg=           0 DoJE=T BraDBF=F KetDBF=T FulRan=T
         Omega=  0.000000  0.000000  1.000000  0.000000  0.000000 ICntrl=     500 IOpCl=  0
         NMat0=    1 NMatS0=    1 NMatT0=    0 NMatD0=    1 NMtDS0=    0 NMtDT0=    0
         I1Cent=           4 NGrid=           0.
 Petite list used in FoFCou.
 Initial guess orbital symmetries:
       Occupied  (A') (A') (A') (A') (A') (A') (A') (A') (A') (A')
                 (A') (A') (A') (A") (A') (A') (A") (A")
       Virtual   (A") (A") (A') (A') (A') (A') (A') (A') (A') (A')
                 (A')
 The electronic state of the initial guess is 1-A'.
 Requested convergence on RMS density matrix=1.00D-08 within 128 cycles.
 Requested convergence on MAX density matrix=1.00D-06.
 Requested convergence on             energy=1.00D-06.
 No special actions if energy rises.
 Keep R1 ints in memory in canonical form, NReq=915994.
 SCF Done:  E(RHF) =  -221.982424833     A.U. after   13 cycles
             Convg  =    0.5968D-08             -V/T =  2.0088
 Range of M.O.s used for correlation:     1    29
 NBasis=    29 NAE=    18 NBE=    18 NFC=     0 NFV=     0
 NROrb=     29 NOA=    18 NOB=    18 NVA=    11 NVB=    11
 Fully direct method using O(ONN) memory.
 JobTyp=1 Pass  1:  I=   1 to  18 NPSUse=  8 ParTrn=T ParDer=T DoDerP=T.
 Spin components of T(2) and E(2):
     alpha-alpha T2 =       0.1309261987D-01 E2=     -0.2920478241D-01
     alpha-beta  T2 =       0.9961972214D-01 E2=     -0.2231482457D+00
     beta-beta   T2 =       0.1309261987D-01 E2=     -0.2920478241D-01
 ANorm=    0.1061039567D+01
 E2 =    -0.2815578106D+00 EUMP2 =    -0.22226398264338D+03
          IDoAtm=111111111
          Differentiating once with respect to electric field.
                with respect to dipole field.
          Differentiating once with respect to nuclear coordinates.
          Keep R1 ints in memory in canonical form, NReq=895561.
          There are     1 degrees of freedom in the 1st order CPHF.  IDoFFX=0.
 LinEq1:  Iter=  0 NonCon=     1 RMS=8.75D-03 Max=6.92D-02
 AX will form     1 AO Fock derivatives at one time.
 LinEq1:  Iter=  1 NonCon=     1 RMS=2.34D-03 Max=9.13D-03
 LinEq1:  Iter=  2 NonCon=     1 RMS=6.63D-04 Max=5.00D-03
 LinEq1:  Iter=  3 NonCon=     1 RMS=9.15D-05 Max=7.77D-04
 LinEq1:  Iter=  4 NonCon=     1 RMS=3.12D-05 Max=1.68D-04
 LinEq1:  Iter=  5 NonCon=     1 RMS=6.06D-06 Max=3.85D-05
 LinEq1:  Iter=  6 NonCon=     1 RMS=2.47D-06 Max=1.55D-05
 LinEq1:  Iter=  7 NonCon=     1 RMS=4.36D-07 Max=1.72D-06
 LinEq1:  Iter=  8 NonCon=     1 RMS=7.60D-08 Max=4.34D-07
 LinEq1:  Iter=  9 NonCon=     1 RMS=2.50D-08 Max=2.45D-07
 LinEq1:  Iter= 10 NonCon=     1 RMS=6.16D-09 Max=2.54D-08
 LinEq1:  Iter= 11 NonCon=     1 RMS=9.10D-10 Max=3.63D-09
 LinEq1:  Iter= 12 NonCon=     0 RMS=7.44D-11 Max=2.62D-10
 Linear equations converged to 1.000D-10 1.000D-09 after    12 iterations.
 End of Minotr Frequency-dependent properties file   721 does not exist.
 End of Minotr Frequency-dependent properties file   722 does not exist.

 **********************************************************************

            Population analysis using the SCF density.

 **********************************************************************

 Orbital symmetries:
       Occupied  (A') (A') (A') (A') (A') (A') (A') (A') (A') (A')
                 (A') (A") (A') (A') (A') (A') (A") (A")
       Virtual   (A") (A") (A') (A') (A') (A') (A') (A') (A') (A')
                 (A')
 The electronic state is 1-A'.
 Alpha  occ. eigenvalues --  -15.43039 -15.30488 -11.09463 -11.06155 -11.02885
 Alpha  occ. eigenvalues --   -1.29556  -1.11344  -0.95773  -0.77403  -0.74473
 Alpha  occ. eigenvalues --   -0.71484  -0.56045  -0.55094  -0.54992  -0.50891
 Alpha  occ. eigenvalues --   -0.34563  -0.32966  -0.27438
 Alpha virt. eigenvalues --    0.31011   0.39077   0.57678   0.63728   0.64846
 Alpha virt. eigenvalues --    0.69876   0.75252   0.79347   0.96639   1.01931
 Alpha virt. eigenvalues --    1.09734
          Condensed to atoms (all electrons):
              1          2          3          4          5          6
     1  N    6.515208   0.001709  -0.045305   0.001077   0.405555  -0.021639
     2  H    0.001709   0.457794  -0.025535  -0.001702   0.002636  -0.000042
     3  C   -0.045305  -0.025535   4.785400   0.397537   0.564086  -0.024189
     4  H    0.001077  -0.001702   0.397537   0.557419  -0.017793  -0.001034
     5  C    0.405555   0.002636   0.564086  -0.017793   4.809675   0.398208
     6  H   -0.021639  -0.000042  -0.024189  -0.001034   0.398208   0.572951
     7  H   -0.022377  -0.001386   0.001894  -0.000030   0.003103  -0.000039
     8  C    0.493832  -0.026344  -0.079888   0.002127  -0.080211   0.003021
     9  N   -0.047712   0.357632   0.412919  -0.019316  -0.066839   0.001223
              7          8          9
     1  N   -0.022377   0.493832  -0.047712
     2  H   -0.001386  -0.026344   0.357632
     3  C    0.001894  -0.079888   0.412919
     4  H   -0.000030   0.002127  -0.019316
     5  C    0.003103  -0.080211  -0.066839
     6  H   -0.000039   0.003021   0.001223
     7  H    0.560838   0.397357  -0.024224
     8  C    0.397357   4.741695   0.416863
     9  N   -0.024224   0.416863   6.288668
 Mulliken atomic charges:
              1
     1  N   -0.280349
     2  H    0.235239
     3  C    0.013080
     4  H    0.081715
     5  C   -0.018422
     6  H    0.071540
     7  H    0.084864
     8  C    0.131547
     9  N   -0.319214
 Sum of Mulliken atomic charges =   0.00000
 Mulliken charges with hydrogens summed into heavy atoms:
              1
     1  N   -0.280349
     3  C    0.094796
     5  C    0.053118
     8  C    0.216411
     9  N   -0.083976
 Sum of Mulliken charges with hydrogens summed into heavy atoms =   0.00000
 Electronic spatial extent (au):  <R**2>=            276.8354
 Charge=              0.0000 electrons
 Dipole moment (field-independent basis, Debye):
    X=              1.0786    Y=              3.3923    Z=              0.0000  Tot=              3.5597
 Quadrupole moment (field-independent basis, Debye-Ang):
   XX=            -25.7447   YY=            -24.9553   ZZ=            -28.1887
   XY=             -2.6683   XZ=              0.0000   YZ=              0.0000
 Traceless Quadrupole moment (field-independent basis, Debye-Ang):
   XX=              0.5516   YY=              1.3409   ZZ=             -1.8925
   XY=             -2.6683   XZ=              0.0000   YZ=              0.0000
 Octapole moment (field-independent basis, Debye-Ang**2):
  XXX=             -0.1905  YYY=             13.5275  ZZZ=              0.0000  XYY=              3.9145
  XXY=              5.0994  XXZ=              0.0000  XZZ=             -0.9260  YZZ=              0.3759
  YYZ=              0.0000  XYZ=              0.0000
 Hexadecapole moment (field-independent basis, Debye-Ang**3):
 XXXX=           -148.1828 YYYY=           -129.0891 ZZZZ=            -20.9940 XXXY=             -0.1527
 XXXZ=              0.0000 YYYX=             -4.7777 YYYZ=              0.0000 ZZZX=              0.0000
 ZZZY=              0.0000 XXYY=            -52.1229 XXZZ=            -32.0627 YYZZ=            -29.8147
 XXYZ=              0.0000 YYXZ=              0.0000 ZZXY=              1.2159
 N-N= 1.649791768920D+02 E-N=-8.486888804718D+02  KE= 2.200466944578D+02
 Symmetry A'   KE= 2.110679529326D+02
 Symmetry A"   KE= 8.978741525155D+00
 Calling FoFJK, ICntrl=      2127 FMM=F ISym2X=1 I1Cent= 0 IOpClX= 0 NMat=1 NMatS=1 NMatT=0.
 ***** Axes restored to original set *****
 -------------------------------------------------------------------
 Center     Atomic                   Forces (Hartrees/Bohr)
 Number     Number              X              Y              Z
 -------------------------------------------------------------------
      1        7          -0.041279846   -0.105792692    0.000000000
      2        1           0.001000882    0.055028477    0.000000000
      3        6           0.034871217    0.012776170    0.000000000
      4        1           0.021252978    0.009824775    0.000000000
      5        6           0.029773447   -0.025477372    0.000000000
      6        1           0.012784561   -0.018815477    0.000000000
      7        1          -0.021977715    0.010566785    0.000000000
      8        6          -0.055524497    0.044621624    0.000000000
      9        7           0.019098971    0.017267711    0.000000000
 -------------------------------------------------------------------
 Cartesian Forces:  Max     0.105792692 RMS     0.031172997

 GradGradGradGradGradGradGradGradGradGradGradGradGradGradGradGradGradGrad
 Berny optimization.
 Internal  Forces:  Max     0.098672677 RMS     0.027717894
 Search for a local minimum.
 Step number   1 out of a maximum of   48
 All quantities printed in internal units (Hartrees-Bohrs-Radians)
 Mixed Optimization -- RFO/linear search
 Second derivative matrix not updated -- first step.
 ITU=  0
     Eigenvalues ---    0.02198   0.02341   0.02379   0.02551   0.02603
     Eigenvalues ---    0.02705   0.16000   0.16000   0.16000   0.16000
     Eigenvalues ---    0.22000   0.22911   0.37115   0.37237   0.37427
     Eigenvalues ---    0.45111   0.47811   0.48902   0.51454   0.54834
     Eigenvalues ---    0.67122
 RFO step:  Lambda=-4.83297374D-02 EMin= 2.19829082D-02
 Linear search not attempted -- first point.
 Iteration  1 RMS(Cart)=  0.05933878 RMS(Int)=  0.00033947
 Iteration  2 RMS(Cart)=  0.00035832 RMS(Int)=  0.00016648
 Iteration  3 RMS(Cart)=  0.00000010 RMS(Int)=  0.00016648
 ClnCor:  largest displacement from symmetrization is 4.65D-11 for atom     4.
 Variable       Old X    -DE/DX   Delta X   Delta X   Delta X     New X
                                 (Linear)    (Quad)   (Total)
    R1        2.59131   0.06353   0.00000   0.11539   0.11553   2.70685
    R2        2.43585   0.09867   0.00000   0.13666   0.13693   2.57279
    R3        1.87690   0.05501   0.00000   0.10237   0.10237   1.97927
    R4        2.01907   0.02338   0.00000   0.05532   0.05532   2.07439
    R5        2.55164   0.05786   0.00000   0.09076   0.09059   2.64222
    R6        2.59299   0.04680   0.00000   0.07934   0.07908   2.67206
    R7        2.02190   0.02271   0.00000   0.05399   0.05399   2.07589
    R8        2.02373   0.02429   0.00000   0.05791   0.05791   2.08164
    R9        2.55007   0.06875   0.00000   0.11797   0.11799   2.66807
    A1        1.83847  -0.01489   0.00000  -0.03085  -0.03028   1.80818
    A2        2.31081  -0.00318   0.00000   0.00177   0.00201   2.31282
    A3        2.13616  -0.00584   0.00000  -0.01097  -0.01073   2.12542
    A4        1.83622   0.00902   0.00000   0.00919   0.00873   1.84495
    A5        1.92817   0.00816   0.00000   0.01846   0.01839   1.94656
    A6        2.11874  -0.00282   0.00000  -0.00320  -0.00316   2.11558
    A7        2.23628  -0.00534   0.00000  -0.01526  -0.01523   2.22105
    A8        2.19228   0.00370   0.00000   0.00753   0.00741   2.19969
    A9        1.95834  -0.00303   0.00000   0.00589   0.00613   1.96446
   A10        2.13257  -0.00067   0.00000  -0.01342  -0.01354   2.11903
   A11        2.21222  -0.00197   0.00000  -0.00634  -0.00620   2.20602
   A12        2.20738   0.00123   0.00000   0.00903   0.00917   2.21655
   A13        1.86359   0.00074   0.00000  -0.00269  -0.00297   1.86062
    D1        0.00000   0.00000   0.00000   0.00000   0.00000   0.00000
    D2        3.14159   0.00000   0.00000   0.00000   0.00000   3.14159
    D3        3.14159   0.00000   0.00000   0.00000   0.00000   3.14159
    D4        0.00000   0.00000   0.00000   0.00000   0.00000   0.00000
    D5        3.14159   0.00000   0.00000   0.00000   0.00000   3.14159
    D6        0.00000   0.00000   0.00000   0.00000   0.00000   0.00000
    D7        0.00000   0.00000   0.00000   0.00000   0.00000   0.00000
    D8        3.14159   0.00000   0.00000   0.00000   0.00000   3.14159
    D9        0.00000   0.00000   0.00000   0.00000   0.00000   0.00000
   D10        3.14159   0.00000   0.00000   0.00000   0.00000   3.14159
   D11        3.14159   0.00000   0.00000   0.00000   0.00000   3.14159
   D12        0.00000   0.00000   0.00000   0.00000   0.00000   0.00000
   D13        3.14159   0.00000   0.00000   0.00000   0.00000   3.14159
   D14        0.00000   0.00000   0.00000   0.00000   0.00000   0.00000
   D15        0.00000   0.00000   0.00000   0.00000   0.00000   0.00000
   D16        3.14159   0.00000   0.00000   0.00000   0.00000   3.14159
         Item               Value     Threshold  Converged?
 Maximum Force            0.098673     0.000450     NO 
 RMS     Force            0.027718     0.000300     NO 
 Maximum Displacement     0.167724     0.001800     NO 
 RMS     Displacement     0.059246     0.001200     NO 
 Predicted change in Energy=-2.614255D-02
 GradGradGradGradGradGradGradGradGradGradGradGradGradGradGradGradGradGrad

                          Input orientation:                          
 ---------------------------------------------------------------------
 Center     Atomic      Atomic             Coordinates (Angstroms)
 Number     Number       Type             X           Y           Z
 ---------------------------------------------------------------------
      1          7           0       -0.784692   -1.039178    0.000000
      2          1           0        0.000473    2.177002    0.000000
      3          6           0        1.140327    0.291624    0.000000
      4          1           0        2.158989    0.700662    0.000000
      5          6           0        0.647536   -1.016859    0.000000
      6          1           0        1.231389   -1.947371    0.000000
      7          1           0       -2.150072    0.683365    0.000000
      8          6           0       -1.125441    0.278951    0.000000
      9          7           0        0.001402    1.129617    0.000000
 ---------------------------------------------------------------------
                    Distance matrix (angstroms):
                    1          2          3          4          5
     1  N    0.000000
     2  H    3.310635   0.000000
     3  C    2.340243   2.203161   0.000000
     4  H    3.419401   2.615104   1.097717   0.000000
     5  C    1.432402   3.258748   1.398203   2.287874   0.000000
     6  H    2.211198   4.304139   2.240846   2.805801   1.098516
     7  H    2.198049   2.618358   3.313637   4.309096   3.273740
     8  C    1.361460   2.206872   2.265803   3.311392   2.196035
     9  N    2.306863   1.047386   1.413995   2.199814   2.241617
                    6          7          8          9
     6  H    0.000000
     7  H    4.284280   0.000000
     8  C    3.242091   1.101554   0.000000
     9  N    3.313717   2.197267   1.411881   0.000000
 Stoichiometry    C3H4N2
 Framework group  CS[SG(C3H4N2)]
 Deg. of freedom    15
 Full point group                 CS      NOp   2
 Largest Abelian subgroup         CS      NOp   2
 Largest concise Abelian subgroup C1      NOp   1
                         Standard orientation:                         
 ---------------------------------------------------------------------
 Center     Atomic      Atomic             Coordinates (Angstroms)
 Number     Number       Type             X           Y           Z
 ---------------------------------------------------------------------
      1          7           0       -0.769280   -1.033194    0.000000
      2          1           0       -0.009038    2.188970    0.000000
      3          6           0        1.145379    0.312473    0.000000
      4          1           0        2.160843    0.729385    0.000000
      5          6           0        0.662733   -0.999786    0.000000
      6          1           0        1.253772   -1.925750    0.000000
      7          1           0       -2.147955    0.678727    0.000000
      8          6           0       -1.120223    0.282258    0.000000
      9          7           0        0.000000    1.141622    0.000000
 ---------------------------------------------------------------------
 Rotational constants (GHZ):      9.2678816      8.7749516      4.5073416
 Standard basis: STO-3G (5D, 7F)
 There are    24 symmetry adapted basis functions of A'  symmetry.
 There are     5 symmetry adapted basis functions of A"  symmetry.
 Integral buffers will be    131072 words long.
 Raffenetti 1 integral format.
 Two-electron integral symmetry is turned on.
    29 basis functions,    87 primitive gaussians,    29 cartesian basis functions
    18 alpha electrons       18 beta electrons
       nuclear repulsion energy       158.3999950480 Hartrees.
 NAtoms=    9 NActive=    9 NUniq=    9 SFac= 1.00D+00 NAtFMM=   50 NAOKFM=F Big=F
 One-electron integrals computed using PRISM.
 NBasis=    29 RedAO= T  NBF=    24     5
 NBsUse=    29 1.00D-06 NBFU=    24     5
 Initial guess read from the read-write file.
 B after Tr=     0.000000    0.000000    0.000000
         Rot=    1.000000    0.000000    0.000000    0.000000 Ang=   0.00 deg.
 Initial guess orbital symmetries:
       Occupied  (A') (A') (A') (A') (A') (A') (A') (A') (A') (A')
                 (A') (A") (A') (A') (A') (A') (A") (A")
       Virtual   (A") (A") (A') (A') (A') (A') (A') (A') (A') (A')
                 (A')
 Harris functional with IExCor=  205 diagonalized for initial guess.
 ExpMin= 1.69D-01 ExpMax= 9.91D+01 ExpMxC= 9.91D+01 IAcc=1 IRadAn=         1 AccDes= 0.00D+00
 HarFok:  IExCor=  205 AccDes= 0.00D+00 IRadAn=         1 IDoV= 1
 ScaDFX=  1.000000  1.000000  1.000000  1.000000
 FoFCou: FMM=F IPFlag=           0 FMFlag=      100000 FMFlg1=           0
         NFxFlg=           0 DoJE=T BraDBF=F KetDBF=T FulRan=T
         Omega=  0.000000  0.000000  1.000000  0.000000  0.000000 ICntrl=     500 IOpCl=  0
         NMat0=    1 NMatS0=    1 NMatT0=    0 NMatD0=    1 NMtDS0=    0 NMtDT0=    0
         I1Cent=           4 NGrid=           0.
 Petite list used in FoFCou.
 Requested convergence on RMS density matrix=1.00D-08 within 128 cycles.
 Requested convergence on MAX density matrix=1.00D-06.
 Requested convergence on             energy=1.00D-06.
 No special actions if energy rises.
 Keep R1 ints in memory in canonical form, NReq=915994.
 SCF Done:  E(RHF) =  -221.978442225     A.U. after   13 cycles
             Convg  =    0.7246D-08             -V/T =  2.0112
 Range of M.O.s used for correlation:     1    29
 NBasis=    29 NAE=    18 NBE=    18 NFC=     0 NFV=     0
 NROrb=     29 NOA=    18 NOB=    18 NVA=    11 NVB=    11
 Fully direct method using O(ONN) memory.
 JobTyp=1 Pass  1:  I=   1 to  18 NPSUse=  8 ParTrn=T ParDer=T DoDerP=T.
 Spin components of T(2) and E(2):
     alpha-alpha T2 =       0.1539300134D-01 E2=     -0.3205294560D-01
     alpha-beta  T2 =       0.1166736141D+00 E2=     -0.2437847604D+00
     beta-beta   T2 =       0.1539300134D-01 E2=     -0.3205294560D-01
 ANorm=    0.1071195415D+01
 E2 =    -0.3078906516D+00 EUMP2 =    -0.22228633287696D+03
          IDoAtm=111111111
          Differentiating once with respect to electric field.
                with respect to dipole field.
          Differentiating once with respect to nuclear coordinates.
          Keep R1 ints in memory in canonical form, NReq=895561.
          There are     1 degrees of freedom in the 1st order CPHF.  IDoFFX=0.
 LinEq1:  Iter=  0 NonCon=     1 RMS=9.99D-03 Max=8.54D-02
 AX will form     1 AO Fock derivatives at one time.
 LinEq1:  Iter=  1 NonCon=     1 RMS=2.95D-03 Max=1.02D-02
 LinEq1:  Iter=  2 NonCon=     1 RMS=8.96D-04 Max=5.08D-03
 LinEq1:  Iter=  3 NonCon=     1 RMS=1.73D-04 Max=1.17D-03
 LinEq1:  Iter=  4 NonCon=     1 RMS=6.40D-05 Max=3.79D-04
 LinEq1:  Iter=  5 NonCon=     1 RMS=1.08D-05 Max=5.53D-05
 LinEq1:  Iter=  6 NonCon=     1 RMS=5.32D-06 Max=3.43D-05
 LinEq1:  Iter=  7 NonCon=     1 RMS=8.34D-07 Max=4.92D-06
 LinEq1:  Iter=  8 NonCon=     1 RMS=1.96D-07 Max=9.97D-07
 LinEq1:  Iter=  9 NonCon=     1 RMS=6.97D-08 Max=4.98D-07
 LinEq1:  Iter= 10 NonCon=     1 RMS=1.58D-08 Max=9.12D-08
 LinEq1:  Iter= 11 NonCon=     1 RMS=2.40D-09 Max=8.53D-09
 LinEq1:  Iter= 12 NonCon=     1 RMS=2.17D-10 Max=9.96D-10
 LinEq1:  Iter= 13 NonCon=     0 RMS=3.02D-11 Max=1.15D-10
 Linear equations converged to 1.000D-10 1.000D-09 after    13 iterations.
 End of Minotr Frequency-dependent properties file   721 does not exist.
 End of Minotr Frequency-dependent properties file   722 does not exist.
 Calling FoFJK, ICntrl=      2127 FMM=F ISym2X=1 I1Cent= 0 IOpClX= 0 NMat=1 NMatS=1 NMatT=0.
 ***** Axes restored to original set *****
 -------------------------------------------------------------------
 Center     Atomic                   Forces (Hartrees/Bohr)
 Number     Number              X              Y              Z
 -------------------------------------------------------------------
      1        7          -0.004927726   -0.010670736    0.000000000
      2        1           0.000124903   -0.004735732    0.000000000
      3        6          -0.002060903   -0.005938320    0.000000000
      4        1          -0.001726682   -0.000191487    0.000000000
      5        6           0.006963852    0.011974556    0.000000000
      6        1          -0.001235176    0.001581330    0.000000000
      7        1           0.002385892   -0.000753387    0.000000000
      8        6           0.001102212    0.010989044    0.000000000
      9        7          -0.000626373   -0.002255269    0.000000000
 -------------------------------------------------------------------
 Cartesian Forces:  Max     0.011974556 RMS     0.004441984

 GradGradGradGradGradGradGradGradGradGradGradGradGradGradGradGradGradGrad
 Berny optimization.
 Using GEDIIS/GDIIS optimizer.
 Internal  Forces:  Max     0.009140560 RMS     0.002687675
 Search for a local minimum.
 Step number   2 out of a maximum of   48
 All quantities printed in internal units (Hartrees-Bohrs-Radians)
 Mixed Optimization -- RFO/linear search
 Update second derivatives using D2CorX and points    1    2
 DE= -2.24D-02 DEPred=-2.61D-02 R= 8.55D-01
 SS=  1.41D+00  RLast= 2.87D-01 DXNew= 5.0454D-01 8.6110D-01
 Trust test= 8.55D-01 RLast= 2.87D-01 DXMaxT set to 5.05D-01
 ITU=  1  0
 Use linear search instead of GDIIS.
     Eigenvalues ---    0.02200   0.02341   0.02383   0.02553   0.02603
     Eigenvalues ---    0.02706   0.15997   0.16000   0.16000   0.16008
     Eigenvalues ---    0.21990   0.22783   0.37168   0.37337   0.37936
     Eigenvalues ---    0.45195   0.47994   0.49686   0.51250   0.60055
     Eigenvalues ---    0.67205
 RFO step:  Lambda=-5.78648225D-04 EMin= 2.20009333D-02
 Quartic linear search produced a step of -0.02160.
 Iteration  1 RMS(Cart)=  0.00734539 RMS(Int)=  0.00003455
 Iteration  2 RMS(Cart)=  0.00004490 RMS(Int)=  0.00001024
 Iteration  3 RMS(Cart)=  0.00000000 RMS(Int)=  0.00001024
 ClnCor:  largest displacement from symmetrization is 6.82D-11 for atom     4.
 Variable       Old X    -DE/DX   Delta X   Delta X   Delta X     New X
                                 (Linear)    (Quad)   (Total)
    R1        2.70685   0.00447  -0.00250   0.01300   0.01052   2.71737
    R2        2.57279   0.00605  -0.00296   0.01399   0.01104   2.58383
    R3        1.97927  -0.00474  -0.00221  -0.00619  -0.00840   1.97087
    R4        2.07439  -0.00167  -0.00119  -0.00264  -0.00383   2.07055
    R5        2.64222  -0.00914  -0.00196  -0.01433  -0.01629   2.62593
    R6        2.67206  -0.00385  -0.00171  -0.00633  -0.00805   2.66401
    R7        2.07589  -0.00200  -0.00117  -0.00355  -0.00471   2.07118
    R8        2.08164  -0.00250  -0.00125  -0.00476  -0.00601   2.07563
    R9        2.66807  -0.00469  -0.00255  -0.00425  -0.00681   2.66126
    A1        1.80818  -0.00586   0.00065  -0.01813  -0.01744   1.79075
    A2        2.31282   0.00040  -0.00004   0.00587   0.00583   2.31865
    A3        2.12542  -0.00057   0.00023  -0.00037  -0.00013   2.12529
    A4        1.84495   0.00017  -0.00019  -0.00550  -0.00570   1.83924
    A5        1.94656   0.00356  -0.00040   0.01462   0.01423   1.96079
    A6        2.11558  -0.00199   0.00007  -0.00844  -0.00838   2.10720
    A7        2.22105  -0.00157   0.00033  -0.00617  -0.00585   2.21520
    A8        2.19969   0.00027  -0.00016   0.00023   0.00007   2.19976
    A9        1.96446  -0.00018  -0.00013   0.00235   0.00221   1.96667
   A10        2.11903  -0.00009   0.00029  -0.00257  -0.00228   2.11675
   A11        2.20602  -0.00128   0.00013  -0.00427  -0.00412   2.20190
   A12        2.21655  -0.00104  -0.00020  -0.00239  -0.00257   2.21397
   A13        1.86062   0.00231   0.00006   0.00666   0.00670   1.86732
    D1        0.00000   0.00000   0.00000   0.00000   0.00000   0.00000
    D2        3.14159   0.00000   0.00000   0.00000   0.00000   3.14159
    D3        3.14159   0.00000   0.00000   0.00000   0.00000   3.14159
    D4        0.00000   0.00000   0.00000   0.00000   0.00000   0.00000
    D5        3.14159   0.00000   0.00000   0.00000   0.00000   3.14159
    D6        0.00000   0.00000   0.00000   0.00000   0.00000   0.00000
    D7        0.00000   0.00000   0.00000   0.00000   0.00000   0.00000
    D8        3.14159   0.00000   0.00000   0.00000   0.00000   3.14159
    D9        0.00000   0.00000   0.00000   0.00000   0.00000   0.00000
   D10        3.14159   0.00000   0.00000   0.00000   0.00000   3.14159
   D11        3.14159   0.00000   0.00000   0.00000   0.00000   3.14159
   D12        0.00000   0.00000   0.00000   0.00000   0.00000   0.00000
   D13        3.14159   0.00000   0.00000   0.00000   0.00000   3.14159
   D14        0.00000   0.00000   0.00000   0.00000   0.00000   0.00000
   D15        0.00000   0.00000   0.00000   0.00000   0.00000   0.00000
   D16        3.14159   0.00000   0.00000   0.00000   0.00000   3.14159
         Item               Value     Threshold  Converged?
 Maximum Force            0.009141     0.000450     NO 
 RMS     Force            0.002688     0.000300     NO 
 Maximum Displacement     0.022999     0.001800     NO 
 RMS     Displacement     0.007343     0.001200     NO 
 Predicted change in Energy=-2.991151D-04
 GradGradGradGradGradGradGradGradGradGradGradGradGradGradGradGradGradGrad

                          Input orientation:                          
 ---------------------------------------------------------------------
 Center     Atomic      Atomic             Coordinates (Angstroms)
 Number     Number       Type             X           Y           Z
 ---------------------------------------------------------------------
      1          7           0       -0.790945   -1.046953    0.000000
      2          1           0        0.003070    2.165849    0.000000
      3          6           0        1.140203    0.290478    0.000000
      4          1           0        2.155836    0.701608    0.000000
      5          6           0        0.646510   -1.008446    0.000000
      6          1           0        1.231653   -1.935200    0.000000
      7          1           0       -2.144004    0.688625    0.000000
      8          6           0       -1.124893    0.278944    0.000000
      9          7           0        0.002482    1.122910    0.000000
 ---------------------------------------------------------------------
                    Distance matrix (angstroms):
                    1          2          3          4          5
     1  N    0.000000
     2  H    3.309464   0.000000
     3  C    2.349054   2.193190   0.000000
     4  H    3.426511   2.603536   1.095690   0.000000
     5  C    1.437971   3.238852   1.389582   2.280865   0.000000
     6  H    2.209047   4.281124   2.227557   2.794078   1.096023
     7  H    2.200681   2.606169   3.308253   4.299860   3.266041
     8  C    1.367305   2.198343   2.265125   3.307843   2.189804
     9  N    2.310374   1.042939   1.409735   2.194181   2.226533
                    6          7          8          9
     6  H    0.000000
     7  H    4.275456   0.000000
     8  C    3.233534   1.098375   0.000000
     9  N    3.295891   2.189978   1.408280   0.000000
 Stoichiometry    C3H4N2
 Framework group  CS[SG(C3H4N2)]
 Deg. of freedom    15
 Full point group                 CS      NOp   2
 Largest Abelian subgroup         CS      NOp   2
 Largest concise Abelian subgroup C1      NOp   1
                         Standard orientation:                         
 ---------------------------------------------------------------------
 Center     Atomic      Atomic             Coordinates (Angstroms)
 Number     Number       Type             X           Y           Z
 ---------------------------------------------------------------------
      1          7           0       -0.772645   -1.041010    0.000000
      2          1           0       -0.009382    2.179235    0.000000
      3          6           0        1.145628    0.314822    0.000000
      4          1           0        2.157284    0.735643    0.000000
      5          6           0        0.664376   -0.988763    0.000000
      6          1           0        1.258352   -1.909880    0.000000
      7          1           0       -2.142236    0.681552    0.000000
      8          6           0       -1.119254    0.281633    0.000000
      9          7           0        0.000000    1.136338    0.000000
 ---------------------------------------------------------------------
 Rotational constants (GHZ):      9.3159404      8.7674660      4.5166928
 Standard basis: STO-3G (5D, 7F)
 There are    24 symmetry adapted basis functions of A'  symmetry.
 There are     5 symmetry adapted basis functions of A"  symmetry.
 Integral buffers will be    131072 words long.
 Raffenetti 1 integral format.
 Two-electron integral symmetry is turned on.
    29 basis functions,    87 primitive gaussians,    29 cartesian basis functions
    18 alpha electrons       18 beta electrons
       nuclear repulsion energy       158.5752777929 Hartrees.
 NAtoms=    9 NActive=    9 NUniq=    9 SFac= 1.00D+00 NAtFMM=   50 NAOKFM=F Big=F
 One-electron integrals computed using PRISM.
 NBasis=    29 RedAO= T  NBF=    24     5
 NBsUse=    29 1.00D-06 NBFU=    24     5
 Initial guess read from the read-write file.
 B after Tr=     0.000000    0.000000    0.000000
         Rot=    1.000000    0.000000    0.000000    0.000000 Ang=   0.00 deg.
 Initial guess orbital symmetries:
       Occupied  (A') (A') (A') (A') (A') (A') (A') (A') (A') (A')
                 (A') (A') (A') (A") (A') (A') (A") (A")
       Virtual   (A") (A") (A') (A') (A') (A') (A') (A') (A') (A')
                 (A')
 Harris functional with IExCor=  205 diagonalized for initial guess.
 ExpMin= 1.69D-01 ExpMax= 9.91D+01 ExpMxC= 9.91D+01 IAcc=1 IRadAn=         1 AccDes= 0.00D+00
 HarFok:  IExCor=  205 AccDes= 0.00D+00 IRadAn=         1 IDoV= 1
 ScaDFX=  1.000000  1.000000  1.000000  1.000000
 FoFCou: FMM=F IPFlag=           0 FMFlag=      100000 FMFlg1=           0
         NFxFlg=           0 DoJE=T BraDBF=F KetDBF=T FulRan=T
         Omega=  0.000000  0.000000  1.000000  0.000000  0.000000 ICntrl=     500 IOpCl=  0
         NMat0=    1 NMatS0=    1 NMatT0=    0 NMatD0=    1 NMtDS0=    0 NMtDT0=    0
         I1Cent=           4 NGrid=           0.
 Petite list used in FoFCou.
 Requested convergence on RMS density matrix=1.00D-08 within 128 cycles.
 Requested convergence on MAX density matrix=1.00D-06.
 Requested convergence on             energy=1.00D-06.
 No special actions if energy rises.
 Keep R1 ints in memory in canonical form, NReq=915994.
 SCF Done:  E(RHF) =  -221.979189397     A.U. after   11 cycles
             Convg  =    0.6099D-08             -V/T =  2.0111
 Range of M.O.s used for correlation:     1    29
 NBasis=    29 NAE=    18 NBE=    18 NFC=     0 NFV=     0
 NROrb=     29 NOA=    18 NOB=    18 NVA=    11 NVB=    11
 Fully direct method using O(ONN) memory.
 JobTyp=1 Pass  1:  I=   1 to  18 NPSUse=  8 ParTrn=T ParDer=T DoDerP=T.
 Spin components of T(2) and E(2):
     alpha-alpha T2 =       0.1535931433D-01 E2=     -0.3200369013D-01
     alpha-beta  T2 =       0.1163758009D+00 E2=     -0.2434519058D+00
     beta-beta   T2 =       0.1535931433D-01 E2=     -0.3200369013D-01
 ANorm=    0.1071024943D+01
 E2 =    -0.3074592861D+00 EUMP2 =    -0.22228664868327D+03
          IDoAtm=111111111
          Differentiating once with respect to electric field.
                with respect to dipole field.
          Differentiating once with respect to nuclear coordinates.
          Keep R1 ints in memory in canonical form, NReq=895561.
          There are     1 degrees of freedom in the 1st order CPHF.  IDoFFX=0.
 LinEq1:  Iter=  0 NonCon=     1 RMS=9.96D-03 Max=8.58D-02
 AX will form     1 AO Fock derivatives at one time.
 LinEq1:  Iter=  1 NonCon=     1 RMS=2.93D-03 Max=1.06D-02
 LinEq1:  Iter=  2 NonCon=     1 RMS=9.06D-04 Max=5.65D-03
 LinEq1:  Iter=  3 NonCon=     1 RMS=1.94D-04 Max=1.50D-03
 LinEq1:  Iter=  4 NonCon=     1 RMS=7.10D-05 Max=4.80D-04
 LinEq1:  Iter=  5 NonCon=     1 RMS=1.57D-05 Max=8.67D-05
 LinEq1:  Iter=  6 NonCon=     1 RMS=6.04D-06 Max=2.87D-05
 LinEq1:  Iter=  7 NonCon=     1 RMS=1.08D-06 Max=6.46D-06
 LinEq1:  Iter=  8 NonCon=     1 RMS=2.37D-07 Max=1.38D-06
 LinEq1:  Iter=  9 NonCon=     1 RMS=8.06D-08 Max=4.72D-07
 LinEq1:  Iter= 10 NonCon=     1 RMS=1.72D-08 Max=8.21D-08
 LinEq1:  Iter= 11 NonCon=     1 RMS=2.41D-09 Max=8.78D-09
 LinEq1:  Iter= 12 NonCon=     1 RMS=2.20D-10 Max=9.52D-10
 LinEq1:  Iter= 13 NonCon=     0 RMS=3.14D-11 Max=1.14D-10
 Linear equations converged to 1.000D-10 1.000D-09 after    13 iterations.
 End of Minotr Frequency-dependent properties file   721 does not exist.
 End of Minotr Frequency-dependent properties file   722 does not exist.
 Calling FoFJK, ICntrl=      2127 FMM=F ISym2X=1 I1Cent= 0 IOpClX= 0 NMat=1 NMatS=1 NMatT=0.
 ***** Axes restored to original set *****
 -------------------------------------------------------------------
 Center     Atomic                   Forces (Hartrees/Bohr)
 Number     Number              X              Y              Z
 -------------------------------------------------------------------
      1        7          -0.000125648   -0.002260653    0.000000000
      2        1          -0.000299792   -0.000380392    0.000000000
      3        6          -0.001428776   -0.002399160    0.000000000
      4        1          -0.000236315   -0.000049665    0.000000000
      5        6           0.003503051    0.000351095    0.000000000
      6        1          -0.000071409   -0.000371944    0.000000000
      7        1          -0.000172702    0.000076346    0.000000000
      8        6           0.001042842    0.004759802    0.000000000
      9        7          -0.002211251    0.000274571    0.000000000
 -------------------------------------------------------------------
 Cartesian Forces:  Max     0.004759802 RMS     0.001420727

 GradGradGradGradGradGradGradGradGradGradGradGradGradGradGradGradGradGrad
 Berny optimization.
 Using GEDIIS/GDIIS optimizer.
 Internal  Forces:  Max     0.003202375 RMS     0.000899531
 Search for a local minimum.
 Step number   3 out of a maximum of   48
 All quantities printed in internal units (Hartrees-Bohrs-Radians)
 Mixed Optimization -- En-DIIS/RFO-DIIS
 Update second derivatives using D2CorX and points    1    2    3
 DE= -3.16D-04 DEPred=-2.99D-04 R= 1.06D+00
 SS=  1.41D+00  RLast= 3.88D-02 DXNew= 8.4853D-01 1.1654D-01
 Trust test= 1.06D+00 RLast= 3.88D-02 DXMaxT set to 5.05D-01
 ITU=  1  1  0
 Use linear search instead of GDIIS.
     Eigenvalues ---    0.02200   0.02341   0.02384   0.02554   0.02603
     Eigenvalues ---    0.02704   0.15869   0.16000   0.16003   0.16052
     Eigenvalues ---    0.22283   0.27575   0.36384   0.37200   0.37686
     Eigenvalues ---    0.38532   0.46978   0.48990   0.53238   0.55247
     Eigenvalues ---    0.68272
 RFO step:  Lambda=-7.77877997D-05 EMin= 2.20035871D-02
 Quartic linear search produced a step of  0.05164.
 Iteration  1 RMS(Cart)=  0.00280399 RMS(Int)=  0.00000351
 Iteration  2 RMS(Cart)=  0.00000399 RMS(Int)=  0.00000111
 Iteration  3 RMS(Cart)=  0.00000000 RMS(Int)=  0.00000111
 ClnCor:  largest displacement from symmetrization is 2.00D-11 for atom     4.
 Variable       Old X    -DE/DX   Delta X   Delta X   Delta X     New X
                                 (Linear)    (Quad)   (Total)
    R1        2.71737   0.00122   0.00054   0.00395   0.00449   2.72186
    R2        2.58383   0.00320   0.00057   0.00628   0.00685   2.59068
    R3        1.97087  -0.00038  -0.00043  -0.00132  -0.00176   1.96911
    R4        2.07055  -0.00024  -0.00020  -0.00089  -0.00109   2.06947
    R5        2.62593  -0.00147  -0.00084  -0.00415  -0.00499   2.62094
    R6        2.66401   0.00143  -0.00042   0.00205   0.00164   2.66565
    R7        2.07118   0.00028  -0.00024   0.00049   0.00024   2.07143
    R8        2.07563   0.00019  -0.00031   0.00014  -0.00017   2.07546
    R9        2.66126  -0.00268  -0.00035  -0.00553  -0.00588   2.65538
    A1        1.79075   0.00032  -0.00090   0.00181   0.00090   1.79165
    A2        2.31865  -0.00074   0.00030  -0.00231  -0.00201   2.31664
    A3        2.12529  -0.00083  -0.00001  -0.00339  -0.00340   2.12189
    A4        1.83924   0.00157  -0.00029   0.00570   0.00541   1.84465
    A5        1.96079  -0.00140   0.00073  -0.00533  -0.00459   1.95620
    A6        2.10720   0.00043  -0.00043   0.00079   0.00036   2.10756
    A7        2.21520   0.00097  -0.00030   0.00453   0.00423   2.21943
    A8        2.19976   0.00020   0.00000   0.00068   0.00068   2.20044
    A9        1.96667  -0.00038   0.00011  -0.00106  -0.00095   1.96572
   A10        2.11675   0.00018  -0.00012   0.00038   0.00027   2.11702
   A11        2.20190   0.00035  -0.00021   0.00244   0.00222   2.20412
   A12        2.21397  -0.00024  -0.00013  -0.00132  -0.00146   2.21252
   A13        1.86732  -0.00011   0.00035  -0.00112  -0.00077   1.86655
    D1        0.00000   0.00000   0.00000   0.00000   0.00000   0.00000
    D2        3.14159   0.00000   0.00000   0.00000   0.00000   3.14159
    D3        3.14159   0.00000   0.00000   0.00000   0.00000   3.14159
    D4        0.00000   0.00000   0.00000   0.00000   0.00000   0.00000
    D5        3.14159   0.00000   0.00000   0.00000   0.00000   3.14159
    D6        0.00000   0.00000   0.00000   0.00000   0.00000   0.00000
    D7        0.00000   0.00000   0.00000   0.00000   0.00000   0.00000
    D8        3.14159   0.00000   0.00000   0.00000   0.00000   3.14159
    D9        0.00000   0.00000   0.00000   0.00000   0.00000   0.00000
   D10        3.14159   0.00000   0.00000   0.00000   0.00000   3.14159
   D11        3.14159   0.00000   0.00000   0.00000   0.00000   3.14159
   D12        0.00000   0.00000   0.00000   0.00000   0.00000   0.00000
   D13        3.14159   0.00000   0.00000   0.00000   0.00000   3.14159
   D14        0.00000   0.00000   0.00000   0.00000   0.00000   0.00000
   D15        0.00000   0.00000   0.00000   0.00000   0.00000   0.00000
   D16        3.14159   0.00000   0.00000   0.00000   0.00000   3.14159
         Item               Value     Threshold  Converged?
 Maximum Force            0.003202     0.000450     NO 
 RMS     Force            0.000900     0.000300     NO 
 Maximum Displacement     0.007325     0.001800     NO 
 RMS     Displacement     0.002804     0.001200     NO 
 Predicted change in Energy=-3.968514D-05
 GradGradGradGradGradGradGradGradGradGradGradGradGradGradGradGradGradGrad

                          Input orientation:                          
 ---------------------------------------------------------------------
 Center     Atomic      Atomic             Coordinates (Angstroms)
 Number     Number       Type             X           Y           Z
 ---------------------------------------------------------------------
      1          7           0       -0.789775   -1.047255    0.000000
      2          1           0        0.001143    2.165195    0.000000
      3          6           0        1.138063    0.288283    0.000000
      4          1           0        2.152471    0.700897    0.000000
      5          6           0        0.650091   -1.009983    0.000000
      6          1           0        1.234801   -1.937164    0.000000
      7          1           0       -2.143355    0.692501    0.000000
      8          6           0       -1.124607    0.282155    0.000000
      9          7           0        0.001078    1.123184    0.000000
 ---------------------------------------------------------------------
                    Distance matrix (angstroms):
                    1          2          3          4          5
     1  N    0.000000
     2  H    3.308381   0.000000
     3  C    2.345255   2.194399   0.000000
     4  H    3.422404   2.602379   1.095114   0.000000
     5  C    1.440349   3.240816   1.386943   2.276896   0.000000
     6  H    2.211526   4.283837   2.227548   2.793114   1.096152
     7  H    2.204298   2.601480   3.306221   4.295834   3.271360
     8  C    1.370928   2.193890   2.262679   3.303724   2.195262
     9  N    2.310033   1.042010   1.410601   2.192446   2.229713
                    6          7          8          9
     6  H    0.000000
     7  H    4.281013   0.000000
     8  C    3.239164   1.098285   0.000000
     9  N    3.299667   2.187254   1.405168   0.000000
 Stoichiometry    C3H4N2
 Framework group  CS[SG(C3H4N2)]
 Deg. of freedom    15
 Full point group                 CS      NOp   2
 Largest Abelian subgroup         CS      NOp   2
 Largest concise Abelian subgroup C1      NOp   1
                         Standard orientation:                         
 ---------------------------------------------------------------------
 Center     Atomic      Atomic             Coordinates (Angstroms)
 Number     Number       Type             X           Y           Z
 ---------------------------------------------------------------------
      1          7           0       -0.773146   -1.040134    0.000000
      2          1           0       -0.008424    2.178652    0.000000
      3          6           0        1.143749    0.311064    0.000000
      4          1           0        2.154762    0.731929    0.000000
      5          6           0        0.666369   -0.991134    0.000000
      6          1           0        1.258612   -1.913521    0.000000
      7          1           0       -2.140854    0.688537    0.000000
      8          6           0       -1.118797    0.286504    0.000000
      9          7           0        0.000000    1.136676    0.000000
 ---------------------------------------------------------------------
 Rotational constants (GHZ):      9.2867270      8.7897305      4.5156983
 Standard basis: STO-3G (5D, 7F)
 There are    24 symmetry adapted basis functions of A'  symmetry.
 There are     5 symmetry adapted basis functions of A"  symmetry.
 Integral buffers will be    131072 words long.
 Raffenetti 1 integral format.
 Two-electron integral symmetry is turned on.
    29 basis functions,    87 primitive gaussians,    29 cartesian basis functions
    18 alpha electrons       18 beta electrons
       nuclear repulsion energy       158.5549892612 Hartrees.
 NAtoms=    9 NActive=    9 NUniq=    9 SFac= 1.00D+00 NAtFMM=   50 NAOKFM=F Big=F
 One-electron integrals computed using PRISM.
 NBasis=    29 RedAO= T  NBF=    24     5
 NBsUse=    29 1.00D-06 NBFU=    24     5
 Initial guess read from the read-write file.
 B after Tr=     0.000000    0.000000    0.000000
         Rot=    1.000000    0.000000    0.000000    0.000000 Ang=   0.00 deg.
 Initial guess orbital symmetries:
       Occupied  (A') (A') (A') (A') (A') (A') (A') (A') (A') (A')
                 (A') (A') (A') (A") (A') (A') (A") (A")
       Virtual   (A") (A") (A') (A') (A') (A') (A') (A') (A') (A')
                 (A')
 Requested convergence on RMS density matrix=1.00D-08 within 128 cycles.
 Requested convergence on MAX density matrix=1.00D-06.
 Requested convergence on             energy=1.00D-06.
 No special actions if energy rises.
 Keep R1 ints in memory in canonical form, NReq=915994.
 SCF Done:  E(RHF) =  -221.979133856     A.U. after   10 cycles
             Convg  =    0.6366D-08             -V/T =  2.0111
 Range of M.O.s used for correlation:     1    29
 NBasis=    29 NAE=    18 NBE=    18 NFC=     0 NFV=     0
 NROrb=     29 NOA=    18 NOB=    18 NVA=    11 NVB=    11
 Fully direct method using O(ONN) memory.
 JobTyp=1 Pass  1:  I=   1 to  18 NPSUse=  8 ParTrn=T ParDer=T DoDerP=T.
 Spin components of T(2) and E(2):
     alpha-alpha T2 =       0.1536880121D-01 E2=     -0.3200789973D-01
     alpha-beta  T2 =       0.1164566169D+00 E2=     -0.2435298806D+00
     beta-beta   T2 =       0.1536880121D-01 E2=     -0.3200789973D-01
 ANorm=    0.1071071529D+01
 E2 =    -0.3075456801D+00 EUMP2 =    -0.22228667953611D+03
          IDoAtm=111111111
          Differentiating once with respect to electric field.
                with respect to dipole field.
          Differentiating once with respect to nuclear coordinates.
          Keep R1 ints in memory in canonical form, NReq=895561.
          There are     1 degrees of freedom in the 1st order CPHF.  IDoFFX=0.
 LinEq1:  Iter=  0 NonCon=     1 RMS=9.96D-03 Max=8.62D-02
 AX will form     1 AO Fock derivatives at one time.
 LinEq1:  Iter=  1 NonCon=     1 RMS=2.93D-03 Max=1.06D-02
 LinEq1:  Iter=  2 NonCon=     1 RMS=9.10D-04 Max=5.79D-03
 LinEq1:  Iter=  3 NonCon=     1 RMS=2.02D-04 Max=1.61D-03
 LinEq1:  Iter=  4 NonCon=     1 RMS=7.41D-05 Max=5.22D-04
 LinEq1:  Iter=  5 NonCon=     1 RMS=1.77D-05 Max=1.03D-04
 LinEq1:  Iter=  6 NonCon=     1 RMS=6.39D-06 Max=3.12D-05
 LinEq1:  Iter=  7 NonCon=     1 RMS=1.21D-06 Max=6.72D-06
 LinEq1:  Iter=  8 NonCon=     1 RMS=2.45D-07 Max=1.46D-06
 LinEq1:  Iter=  9 NonCon=     1 RMS=8.19D-08 Max=4.52D-07
 LinEq1:  Iter= 10 NonCon=     1 RMS=1.74D-08 Max=7.87D-08
 LinEq1:  Iter= 11 NonCon=     1 RMS=2.38D-09 Max=8.84D-09
 LinEq1:  Iter= 12 NonCon=     1 RMS=2.20D-10 Max=9.76D-10
 LinEq1:  Iter= 13 NonCon=     0 RMS=3.20D-11 Max=1.20D-10
 Linear equations converged to 1.000D-10 1.000D-09 after    13 iterations.
 End of Minotr Frequency-dependent properties file   721 does not exist.
 End of Minotr Frequency-dependent properties file   722 does not exist.
 Calling FoFJK, ICntrl=      2127 FMM=F ISym2X=1 I1Cent= 0 IOpClX= 0 NMat=1 NMatS=1 NMatT=0.
 ***** Axes restored to original set *****
 -------------------------------------------------------------------
 Center     Atomic                   Forces (Hartrees/Bohr)
 Number     Number              X              Y              Z
 -------------------------------------------------------------------
      1        7          -0.000738579   -0.000165752    0.000000000
      2        1           0.000090950    0.000490435    0.000000000
      3        6           0.000550039    0.000612101    0.000000000
      4        1           0.000312831    0.000173759    0.000000000
      5        6          -0.000469229    0.000099468    0.000000000
      6        1          -0.000105618   -0.000109602    0.000000000
      7        1          -0.000299437   -0.000185658    0.000000000
      8        6           0.000632446   -0.000443595    0.000000000
      9        7           0.000026597   -0.000471156    0.000000000
 -------------------------------------------------------------------
 Cartesian Forces:  Max     0.000738579 RMS     0.000323400

 GradGradGradGradGradGradGradGradGradGradGradGradGradGradGradGradGradGrad
 Berny optimization.
 Using GEDIIS/GDIIS optimizer.
 Internal  Forces:  Max     0.000692618 RMS     0.000262793
 Search for a local minimum.
 Step number   4 out of a maximum of   48
 All quantities printed in internal units (Hartrees-Bohrs-Radians)
 Mixed Optimization -- En-DIIS/RFO-DIIS
 Swaping is turned off.
 Update second derivatives using D2CorX and points    1    2    3    4
 DE= -3.09D-05 DEPred=-3.97D-05 R= 7.77D-01
 SS=  1.41D+00  RLast= 1.51D-02 DXNew= 8.4853D-01 4.5236D-02
 Trust test= 7.77D-01 RLast= 1.51D-02 DXMaxT set to 5.05D-01
 ITU=  1  1  1  0
     Eigenvalues ---    0.02200   0.02341   0.02384   0.02554   0.02603
     Eigenvalues ---    0.02704   0.15342   0.16000   0.16040   0.16162
     Eigenvalues ---    0.22061   0.28892   0.37114   0.37258   0.38102
     Eigenvalues ---    0.39148   0.48585   0.49808   0.53035   0.58941
     Eigenvalues ---    0.67618
 En-DIIS/RFO-DIIS IScMMF=        0 using points:     4    3
 RFO step:  Lambda=-4.01551483D-06.
 DidBck=F Rises=F RFO-DIIS coefs:    0.81884    0.18116
 Iteration  1 RMS(Cart)=  0.00094908 RMS(Int)=  0.00000050
 Iteration  2 RMS(Cart)=  0.00000052 RMS(Int)=  0.00000027
 ClnCor:  largest displacement from symmetrization is 8.32D-12 for atom     4.
 Variable       Old X    -DE/DX   Delta X   Delta X   Delta X     New X
                                  (DIIS)     (GDIIS)  (Total)
    R1        2.72186   0.00016  -0.00081   0.00100   0.00019   2.72205
    R2        2.59068  -0.00043  -0.00124   0.00069  -0.00055   2.59013
    R3        1.96911   0.00049   0.00032   0.00053   0.00085   1.96996
    R4        2.06947   0.00036   0.00020   0.00057   0.00077   2.07024
    R5        2.62094   0.00069   0.00090   0.00025   0.00115   2.62209
    R6        2.66565  -0.00007  -0.00030   0.00041   0.00011   2.66576
    R7        2.07143   0.00004  -0.00004   0.00018   0.00014   2.07157
    R8        2.07546   0.00021   0.00003   0.00050   0.00053   2.07598
    R9        2.65538   0.00041   0.00107  -0.00070   0.00037   2.65575
    A1        1.79165  -0.00041  -0.00016  -0.00115  -0.00131   1.79034
    A2        2.31664   0.00030   0.00036   0.00048   0.00084   2.31748
    A3        2.12189   0.00021   0.00062  -0.00018   0.00044   2.12233
    A4        1.84465  -0.00051  -0.00098  -0.00030  -0.00128   1.84337
    A5        1.95620   0.00045   0.00083   0.00055   0.00138   1.95758
    A6        2.10756  -0.00038  -0.00007  -0.00149  -0.00155   2.10600
    A7        2.21943  -0.00007  -0.00077   0.00094   0.00017   2.21960
    A8        2.20044  -0.00050  -0.00012  -0.00198  -0.00211   2.19834
    A9        1.96572   0.00040   0.00017   0.00093   0.00111   1.96683
   A10        2.11702   0.00009  -0.00005   0.00105   0.00100   2.11802
   A11        2.20412  -0.00012  -0.00040  -0.00001  -0.00041   2.20371
   A12        2.21252   0.00006   0.00026   0.00005   0.00031   2.21283
   A13        1.86655   0.00007   0.00014  -0.00004   0.00010   1.86665
    D1        0.00000   0.00000   0.00000   0.00000   0.00000   0.00000
    D2        3.14159   0.00000   0.00000   0.00000   0.00000   3.14159
    D3        3.14159   0.00000   0.00000   0.00000   0.00000   3.14159
    D4        0.00000   0.00000   0.00000   0.00000   0.00000   0.00000
    D5        3.14159   0.00000   0.00000   0.00000   0.00000   3.14159
    D6        0.00000   0.00000   0.00000   0.00000   0.00000   0.00000
    D7        0.00000   0.00000   0.00000   0.00000   0.00000   0.00000
    D8        3.14159   0.00000   0.00000   0.00000   0.00000   3.14159
    D9        0.00000   0.00000   0.00000   0.00000   0.00000   0.00000
   D10        3.14159   0.00000   0.00000   0.00000   0.00000   3.14159
   D11        3.14159   0.00000   0.00000   0.00000   0.00000   3.14159
   D12        0.00000   0.00000   0.00000   0.00000   0.00000   0.00000
   D13        3.14159   0.00000   0.00000   0.00000   0.00000   3.14159
   D14        0.00000   0.00000   0.00000   0.00000   0.00000   0.00000
   D15        0.00000   0.00000   0.00000   0.00000   0.00000   0.00000
   D16        3.14159   0.00000   0.00000   0.00000   0.00000   3.14159
         Item               Value     Threshold  Converged?
 Maximum Force            0.000693     0.000450     NO 
 RMS     Force            0.000263     0.000300     YES
 Maximum Displacement     0.002978     0.001800     NO 
 RMS     Displacement     0.000949     0.001200     YES
 Predicted change in Energy=-3.198343D-06
 GradGradGradGradGradGradGradGradGradGradGradGradGradGradGradGradGradGrad

                          Input orientation:                          
 ---------------------------------------------------------------------
 Center     Atomic      Atomic             Coordinates (Angstroms)
 Number     Number       Type             X           Y           Z
 ---------------------------------------------------------------------
      1          7           0       -0.790430   -1.047573    0.000000
      2          1           0        0.001488    2.165781    0.000000
      3          6           0        1.138817    0.288867    0.000000
      4          1           0        2.153611    0.701616    0.000000
      5          6           0        0.649516   -1.009550    0.000000
      6          1           0        1.233308   -1.937396    0.000000
      7          1           0       -2.143689    0.690925    0.000000
      8          6           0       -1.124142    0.281819    0.000000
      9          7           0        0.001432    1.123324    0.000000
 ---------------------------------------------------------------------
                    Distance matrix (angstroms):
                    1          2          3          4          5
     1  N    0.000000
     2  H    3.309498   0.000000
     3  C    2.346927   2.194613   0.000000
     4  H    3.424476   2.602963   1.095522   0.000000
     5  C    1.440447   3.240782   1.387552   2.278243   0.000000
     6  H    2.210723   4.284092   2.228267   2.794878   1.096226
     7  H    2.203108   2.603264   3.307037   4.297313   3.270108
     8  C    1.370637   2.194620   2.262971   3.304527   2.193968
     9  N    2.310808   1.042458   1.410660   2.193105   2.229162
                    6          7          8          9
     6  H    0.000000
     7  H    4.279273   0.000000
     8  C    3.237667   1.098564   0.000000
     9  N    3.299321   2.188267   1.405364   0.000000
 Stoichiometry    C3H4N2
 Framework group  CS[SG(C3H4N2)]
 Deg. of freedom    15
 Full point group                 CS      NOp   2
 Largest Abelian subgroup         CS      NOp   2
 Largest concise Abelian subgroup C1      NOp   1
                         Standard orientation:                         
 ---------------------------------------------------------------------
 Center     Atomic      Atomic             Coordinates (Angstroms)
 Number     Number       Type             X           Y           Z
 ---------------------------------------------------------------------
      1          7           0       -0.773549   -1.040736    0.000000
      2          1           0       -0.008725    2.179174    0.000000
      3          6           0        1.144373    0.311905    0.000000
      4          1           0        2.155654    0.733187    0.000000
      5          6           0        0.666025   -0.990586    0.000000
      6          1           0        1.257611   -1.913482    0.000000
      7          1           0       -2.141403    0.686302    0.000000
      8          6           0       -1.118447    0.285798    0.000000
      9          7           0        0.000000    1.136753    0.000000
 ---------------------------------------------------------------------
 Rotational constants (GHZ):      9.2929062      8.7805272      4.5147269
 Standard basis: STO-3G (5D, 7F)
 There are    24 symmetry adapted basis functions of A'  symmetry.
 There are     5 symmetry adapted basis functions of A"  symmetry.
 Integral buffers will be    131072 words long.
 Raffenetti 1 integral format.
 Two-electron integral symmetry is turned on.
    29 basis functions,    87 primitive gaussians,    29 cartesian basis functions
    18 alpha electrons       18 beta electrons
       nuclear repulsion energy       158.5383831136 Hartrees.
 NAtoms=    9 NActive=    9 NUniq=    9 SFac= 1.00D+00 NAtFMM=   50 NAOKFM=F Big=F
 One-electron integrals computed using PRISM.
 NBasis=    29 RedAO= T  NBF=    24     5
 NBsUse=    29 1.00D-06 NBFU=    24     5
 Initial guess read from the read-write file.
 B after Tr=     0.000000    0.000000    0.000000
         Rot=    1.000000    0.000000    0.000000    0.000000 Ang=   0.00 deg.
 Initial guess orbital symmetries:
       Occupied  (A') (A') (A') (A') (A') (A') (A') (A') (A') (A')
                 (A') (A') (A') (A") (A') (A') (A") (A")
       Virtual   (A") (A") (A') (A') (A') (A') (A') (A') (A') (A')
                 (A')
 Requested convergence on RMS density matrix=1.00D-08 within 128 cycles.
 Requested convergence on MAX density matrix=1.00D-06.
 Requested convergence on             energy=1.00D-06.
 No special actions if energy rises.
 Keep R1 ints in memory in canonical form, NReq=915994.
 SCF Done:  E(RHF) =  -221.979029459     A.U. after    9 cycles
             Convg  =    0.4479D-08             -V/T =  2.0111
 Range of M.O.s used for correlation:     1    29
 NBasis=    29 NAE=    18 NBE=    18 NFC=     0 NFV=     0
 NROrb=     29 NOA=    18 NOB=    18 NVA=    11 NVB=    11
 Fully direct method using O(ONN) memory.
 JobTyp=1 Pass  1:  I=   1 to  18 NPSUse=  8 ParTrn=T ParDer=T DoDerP=T.
 Spin components of T(2) and E(2):
     alpha-alpha T2 =       0.1537699604D-01 E2=     -0.3201983510D-01
     alpha-beta  T2 =       0.1165188350D+00 E2=     -0.2436136776D+00
     beta-beta   T2 =       0.1537699604D-01 E2=     -0.3201983510D-01
 ANorm=    0.1071108224D+01
 E2 =    -0.3076533478D+00 EUMP2 =    -0.22228668280626D+03
          IDoAtm=111111111
          Differentiating once with respect to electric field.
                with respect to dipole field.
          Differentiating once with respect to nuclear coordinates.
          Keep R1 ints in memory in canonical form, NReq=895561.
          There are     1 degrees of freedom in the 1st order CPHF.  IDoFFX=0.
 LinEq1:  Iter=  0 NonCon=     1 RMS=9.96D-03 Max=8.62D-02
 AX will form     1 AO Fock derivatives at one time.
 LinEq1:  Iter=  1 NonCon=     1 RMS=2.93D-03 Max=1.07D-02
 LinEq1:  Iter=  2 NonCon=     1 RMS=9.11D-04 Max=5.81D-03
 LinEq1:  Iter=  3 NonCon=     1 RMS=2.03D-04 Max=1.61D-03
 LinEq1:  Iter=  4 NonCon=     1 RMS=7.41D-05 Max=5.20D-04
 LinEq1:  Iter=  5 NonCon=     1 RMS=1.76D-05 Max=1.03D-04
 LinEq1:  Iter=  6 NonCon=     1 RMS=6.40D-06 Max=3.13D-05
 LinEq1:  Iter=  7 NonCon=     1 RMS=1.21D-06 Max=6.73D-06
 LinEq1:  Iter=  8 NonCon=     1 RMS=2.45D-07 Max=1.46D-06
 LinEq1:  Iter=  9 NonCon=     1 RMS=8.21D-08 Max=4.53D-07
 LinEq1:  Iter= 10 NonCon=     1 RMS=1.75D-08 Max=7.90D-08
 LinEq1:  Iter= 11 NonCon=     1 RMS=2.39D-09 Max=8.81D-09
 LinEq1:  Iter= 12 NonCon=     1 RMS=2.20D-10 Max=9.68D-10
 LinEq1:  Iter= 13 NonCon=     0 RMS=3.20D-11 Max=1.20D-10
 Linear equations converged to 1.000D-10 1.000D-09 after    13 iterations.
 End of Minotr Frequency-dependent properties file   721 does not exist.
 End of Minotr Frequency-dependent properties file   722 does not exist.
 Calling FoFJK, ICntrl=      2127 FMM=F ISym2X=1 I1Cent= 0 IOpClX= 0 NMat=1 NMatS=1 NMatT=0.
 ***** Axes restored to original set *****
 -------------------------------------------------------------------
 Center     Atomic                   Forces (Hartrees/Bohr)
 Number     Number              X              Y              Z
 -------------------------------------------------------------------
      1        7          -0.000055935    0.000099870    0.000000000
      2        1           0.000008977    0.000047903    0.000000000
      3        6           0.000182627    0.000018308    0.000000000
      4        1          -0.000013892    0.000005339    0.000000000
      5        6           0.000065457   -0.000102859    0.000000000
      6        1           0.000000313   -0.000013302    0.000000000
      7        1          -0.000018248   -0.000046197    0.000000000
      8        6          -0.000064274    0.000056521    0.000000000
      9        7          -0.000105024   -0.000065583    0.000000000
 -------------------------------------------------------------------
 Cartesian Forces:  Max     0.000182627 RMS     0.000057591

 GradGradGradGradGradGradGradGradGradGradGradGradGradGradGradGradGradGrad
 Berny optimization.
 Using GEDIIS/GDIIS optimizer.
 Internal  Forces:  Max     0.000140624 RMS     0.000040979
 Search for a local minimum.
 Step number   5 out of a maximum of   48
 All quantities printed in internal units (Hartrees-Bohrs-Radians)
 Mixed Optimization -- En-DIIS/RFO-DIIS
 Swaping is turned off.
 Update second derivatives using D2CorX and points    1    2    3    4    5
 DE= -3.27D-06 DEPred=-3.20D-06 R= 1.02D+00
 SS=  1.41D+00  RLast= 4.35D-03 DXNew= 8.4853D-01 1.3060D-02
 Trust test= 1.02D+00 RLast= 4.35D-03 DXMaxT set to 5.05D-01
 ITU=  1  1  1  1  0
     Eigenvalues ---    0.02200   0.02341   0.02384   0.02554   0.02603
     Eigenvalues ---    0.02704   0.14527   0.15907   0.16021   0.16045
     Eigenvalues ---    0.22555   0.30243   0.37172   0.37385   0.38131
     Eigenvalues ---    0.39782   0.47484   0.49765   0.53122   0.58610
     Eigenvalues ---    0.67530
 En-DIIS/RFO-DIIS IScMMF=        0 using points:     5    4    3
 RFO step:  Lambda=-1.08864435D-07.
 DidBck=F Rises=F RFO-DIIS coefs:    1.02491   -0.02427   -0.00063
 Iteration  1 RMS(Cart)=  0.00017837 RMS(Int)=  0.00000002
 Iteration  2 RMS(Cart)=  0.00000003 RMS(Int)=  0.00000000
 ClnCor:  largest displacement from symmetrization is 1.41D-12 for atom     4.
 Variable       Old X    -DE/DX   Delta X   Delta X   Delta X     New X
                                  (DIIS)     (GDIIS)  (Total)
    R1        2.72205   0.00009   0.00001   0.00018   0.00019   2.72224
    R2        2.59013  -0.00004  -0.00001  -0.00008  -0.00009   2.59004
    R3        1.96996   0.00005   0.00002   0.00009   0.00011   1.97007
    R4        2.07024  -0.00001   0.00002  -0.00003  -0.00001   2.07022
    R5        2.62209   0.00007   0.00003   0.00013   0.00015   2.62225
    R6        2.66576   0.00014   0.00000   0.00027   0.00027   2.66603
    R7        2.07157   0.00001   0.00000   0.00002   0.00002   2.07159
    R8        2.07598   0.00000   0.00001  -0.00001   0.00000   2.07599
    R9        2.65575   0.00001   0.00001  -0.00001   0.00000   2.65575
    A1        1.79034   0.00009  -0.00003   0.00028   0.00025   1.79059
    A2        2.31748   0.00003   0.00002   0.00016   0.00018   2.31766
    A3        2.12233   0.00001   0.00001   0.00001   0.00002   2.12235
    A4        1.84337  -0.00004  -0.00003  -0.00017  -0.00020   1.84317
    A5        1.95758  -0.00005   0.00003  -0.00011  -0.00008   1.95750
    A6        2.10600   0.00002  -0.00004   0.00001  -0.00003   2.10597
    A7        2.21960   0.00003   0.00001   0.00011   0.00012   2.21972
    A8        2.19834  -0.00003  -0.00005  -0.00021  -0.00026   2.19807
    A9        1.96683  -0.00005   0.00003  -0.00027  -0.00024   1.96659
   A10        2.11802   0.00008   0.00003   0.00048   0.00050   2.11852
   A11        2.20371  -0.00004  -0.00001  -0.00020  -0.00021   2.20350
   A12        2.21283  -0.00002   0.00001  -0.00007  -0.00006   2.21276
   A13        1.86665   0.00005   0.00000   0.00027   0.00027   1.86693
    D1        0.00000   0.00000   0.00000   0.00000   0.00000   0.00000
    D2        3.14159   0.00000   0.00000   0.00000   0.00000   3.14159
    D3        3.14159   0.00000   0.00000   0.00000   0.00000   3.14159
    D4        0.00000   0.00000   0.00000   0.00000   0.00000   0.00000
    D5        3.14159   0.00000   0.00000   0.00000   0.00000   3.14159
    D6        0.00000   0.00000   0.00000   0.00000   0.00000   0.00000
    D7        0.00000   0.00000   0.00000   0.00000   0.00000   0.00000
    D8        3.14159   0.00000   0.00000   0.00000   0.00000   3.14159
    D9        0.00000   0.00000   0.00000   0.00000   0.00000   0.00000
   D10        3.14159   0.00000   0.00000   0.00000   0.00000   3.14159
   D11        3.14159   0.00000   0.00000   0.00000   0.00000   3.14159
   D12        0.00000   0.00000   0.00000   0.00000   0.00000   0.00000
   D13        3.14159   0.00000   0.00000   0.00000   0.00000   3.14159
   D14        0.00000   0.00000   0.00000   0.00000   0.00000   0.00000
   D15        0.00000   0.00000   0.00000   0.00000   0.00000   0.00000
   D16        3.14159   0.00000   0.00000   0.00000   0.00000   3.14159
         Item               Value     Threshold  Converged?
 Maximum Force            0.000141     0.000450     YES
 RMS     Force            0.000041     0.000300     YES
 Maximum Displacement     0.000528     0.001800     YES
 RMS     Displacement     0.000178     0.001200     YES
 Predicted change in Energy=-9.943024D-08
 Optimization completed.
    -- Stationary point found.
                           ----------------------------
                           !   Optimized Parameters   !
                           ! (Angstroms and Degrees)  !
 --------------------------                            --------------------------
 ! Name  Definition              Value          Derivative Info.                !
 --------------------------------------------------------------------------------
 ! R1    R(1,5)                  1.4404         -DE/DX =    0.0001              !
 ! R2    R(1,8)                  1.3706         -DE/DX =    0.0                 !
 ! R3    R(2,9)                  1.0425         -DE/DX =    0.0                 !
 ! R4    R(3,4)                  1.0955         -DE/DX =    0.0                 !
 ! R5    R(3,5)                  1.3876         -DE/DX =    0.0001              !
 ! R6    R(3,9)                  1.4107         -DE/DX =    0.0001              !
 ! R7    R(5,6)                  1.0962         -DE/DX =    0.0                 !
 ! R8    R(7,8)                  1.0986         -DE/DX =    0.0                 !
 ! R9    R(8,9)                  1.4054         -DE/DX =    0.0                 !
 ! A1    A(5,1,8)              102.579          -DE/DX =    0.0001              !
 ! A2    A(4,3,5)              132.7818         -DE/DX =    0.0                 !
 ! A3    A(4,3,9)              121.6007         -DE/DX =    0.0                 !
 ! A4    A(5,3,9)              105.6175         -DE/DX =    0.0                 !
 ! A5    A(1,5,3)              112.1612         -DE/DX =    0.0                 !
 ! A6    A(1,5,6)              120.6651         -DE/DX =    0.0                 !
 ! A7    A(3,5,6)              127.1736         -DE/DX =    0.0                 !
 ! A8    A(1,8,7)              125.9554         -DE/DX =    0.0                 !
 ! A9    A(1,8,9)              112.691          -DE/DX =    0.0                 !
 ! A10   A(7,8,9)              121.3536         -DE/DX =    0.0001              !
 ! A11   A(2,9,3)              126.263          -DE/DX =    0.0                 !
 ! A12   A(2,9,8)              126.7857         -DE/DX =    0.0                 !
 ! A13   A(3,9,8)              106.9513         -DE/DX =    0.0001              !
[...]
                    16                     17                     18
                    A'                     A'                     A'
 Frequencies --  1599.5496              1634.0444              3557.4861
 Red. masses --     2.5119                 3.6473                 1.0950
 Frc consts  --     3.7865                 5.7379                 8.1650
 IR Inten    --     9.7580                11.8842                 8.8561
  Atom  AN      X      Y      Z        X      Y      Z        X      Y      Z
     1   7     0.02   0.11   0.00    -0.01   0.03   0.00     0.00   0.00   0.00
     2   1     0.41   0.13   0.00     0.44  -0.11   0.00     0.00   0.03   0.00
     3   6     0.14  -0.08   0.00     0.05   0.36   0.00     0.03   0.01   0.00
     4   1     0.02   0.28   0.00     0.44  -0.46   0.00    -0.32  -0.13   0.00
     5   6    -0.11  -0.05   0.00    -0.10  -0.27   0.00    -0.03   0.05   0.00
     6   1     0.39   0.27   0.00     0.36  -0.04   0.00     0.32  -0.50   0.00
     7   1     0.30   0.54   0.00     0.00  -0.15   0.00     0.67  -0.26   0.00
     8   6    -0.01  -0.22   0.00     0.06   0.06   0.00    -0.06   0.02   0.00
     9   7    -0.12   0.10   0.00    -0.09  -0.10   0.00     0.00   0.00   0.00
                    19                     20                     21
                    A'                     A'                     A'
 Frequencies --  3558.6068              3586.2611              3859.9523
 Red. masses --     1.0960                 1.1106                 1.0858
 Frc consts  --     8.1772                 8.4160                 9.5316
 IR Inten    --     8.2458                 6.9737                63.7192
  Atom  AN      X      Y      Z        X      Y      Z        X      Y      Z
     1   7     0.00   0.00   0.00     0.00   0.00   0.00     0.00   0.00   0.00
     2   1     0.00   0.01   0.00     0.00  -0.04   0.00    -0.01   1.00   0.00
     3   6    -0.04  -0.01   0.00    -0.07  -0.03   0.00    -0.01   0.00   0.00
     4   1     0.44   0.18   0.00     0.74   0.31   0.00     0.03   0.01   0.00
     5   6     0.03  -0.04   0.00    -0.03   0.05   0.00     0.00   0.00   0.00
     6   1    -0.30   0.46   0.00     0.31  -0.49   0.00     0.00  -0.01   0.00
     7   1     0.63  -0.25   0.00    -0.09   0.03   0.00    -0.03   0.01   0.00
     8   6    -0.06   0.02   0.00     0.01   0.00   0.00     0.01   0.00   0.00
     9   7     0.00   0.00   0.00     0.00   0.00   0.00     0.00  -0.08   0.00

 -------------------
 - Thermochemistry -
 -------------------
 Temperature   298.150 Kelvin.  Pressure   1.00000 Atm.
 Atom     1 has atomic number  7 and mass  14.00307
 Atom     2 has atomic number  1 and mass   1.00783
 Atom     3 has atomic number  6 and mass  12.00000
 Atom     4 has atomic number  1 and mass   1.00783
 Atom     5 has atomic number  6 and mass  12.00000
 Atom     6 has atomic number  1 and mass   1.00783
 Atom     7 has atomic number  1 and mass   1.00783
 Atom     8 has atomic number  6 and mass  12.00000
 Atom     9 has atomic number  7 and mass  14.00307
 Molecular mass:    68.03745 amu.
 Principal axes and moments of inertia in atomic units:
                           1         2         3
     Eigenvalues --   194.20633 205.53905 399.74538
           X            0.53861   0.84256   0.00000
           Y            0.84256  -0.53861   0.00000
           Z            0.00000   0.00000   1.00000
 This molecule is an asymmetric top.
 Rotational symmetry number  1.
 Rotational temperatures (Kelvin)      0.44599     0.42140     0.21667
 Rotational constants (GHZ):           9.29291     8.78053     4.51473
 Zero-point vibrational energy     196844.7 (Joules/Mol)
                                   47.04702 (Kcal/Mol)
 Warning -- explicit consideration of   1 degrees of freedom as
           vibrations may cause significant error
 Vibrational temperatures:    627.06   948.01   963.73  1142.16  1186.96
          (Kelvin)           1320.50  1326.30  1379.18  1592.00  1653.52
                             1704.34  1728.69  1861.57  2042.48  2269.12
                             2301.39  2351.02  5118.42  5120.04  5159.82
                             5553.60
 
 Zero-point correction=                           0.074974 (Hartree/Particle)
 Thermal correction to Energy=                    0.078741
 Thermal correction to Enthalpy=                  0.079685
 Thermal correction to Gibbs Free Energy=         0.048598
 Sum of electronic and zero-point Energies=           -222.211709
 Sum of electronic and thermal Energies=              -222.207942
 Sum of electronic and thermal Enthalpies=            -222.206998
 Sum of electronic and thermal Free Energies=         -222.238085
 
                     E (Thermal)             CV                S
                      KCal/Mol        Cal/Mol-Kelvin    Cal/Mol-Kelvin
 Total                   49.411             13.135             65.428
 Electronic               0.000              0.000              0.000
 Translational            0.889              2.981             38.570
 Rotational               0.889              2.981             24.282
 Vibrational             47.633              7.174              2.576
 Vibration     1          0.796              1.392              0.840
                       Q            Log10(Q)             Ln(Q)
 Total Bot       0.443023D-22        -22.353573        -51.471005
 Total V=0       0.135548D+13         12.132092         27.935174
 Vib (Bot)       0.444153D-34        -34.352468        -79.099480
 Vib (Bot)    1  0.397964D+00         -0.400157         -0.921395
 Vib (V=0)       0.135893D+01          0.133198          0.306699
 Vib (V=0)    1  0.113904D+01          0.056540          0.130188
 Electronic      0.100000D+01          0.000000          0.000000
 Translational   0.220586D+08          7.343577         16.909211
 Rotational      0.452186D+05          4.655317         10.719264
 ***** Axes restored to original set *****
 -------------------------------------------------------------------
 Center     Atomic                   Forces (Hartrees/Bohr)
 Number     Number              X              Y              Z
 -------------------------------------------------------------------
      1        7          -0.000055934    0.000099867    0.000000000
      2        1           0.000008978    0.000047906    0.000000000
      3        6           0.000182629    0.000018307    0.000000000
      4        1          -0.000013892    0.000005340    0.000000000
      5        6           0.000065451   -0.000102858    0.000000000
      6        1           0.000000313   -0.000013301    0.000000000
      7        1          -0.000018249   -0.000046195    0.000000000
      8        6          -0.000064274    0.000056517    0.000000000
      9        7          -0.000105021   -0.000065583    0.000000000
 -------------------------------------------------------------------
 Cartesian Forces:  Max     0.000182629 RMS     0.000057591

 GradGradGradGradGradGradGradGradGradGradGradGradGradGradGradGradGradGrad
 Berny optimization.
 Internal  Forces:  Max     0.000140623 RMS     0.000040979
 Search for a local minimum.
 Step number   1 out of a maximum of    2
 All quantities printed in internal units (Hartrees-Bohrs-Radians)
 Second derivative matrix not updated -- analytic derivatives used.
 ITU=  0
     Eigenvalues ---    0.00411   0.01355   0.02269   0.03047   0.05949
     Eigenvalues ---    0.06529   0.11014   0.11870   0.12329   0.13404
     Eigenvalues ---    0.24744   0.29167   0.37301   0.43027   0.44410
     Eigenvalues ---    0.44535   0.44669   0.48715   0.52849   0.53871
     Eigenvalues ---    0.58272
 Angle between quadratic step and forces=  35.22 degrees.
 Linear search not attempted -- first point.
 Iteration  1 RMS(Cart)=  0.00016933 RMS(Int)=  0.00000003
 Iteration  2 RMS(Cart)=  0.00000003 RMS(Int)=  0.00000000
 ClnCor:  largest displacement from symmetrization is 9.87D-12 for atom     4.
 Variable       Old X    -DE/DX   Delta X   Delta X   Delta X     New X
                                 (Linear)    (Quad)   (Total)
    R1        2.72205   0.00009   0.00000   0.00017   0.00017   2.72222
    R2        2.59013  -0.00004   0.00000  -0.00008  -0.00008   2.59004
    R3        1.96996   0.00005   0.00000   0.00010   0.00010   1.97006
    R4        2.07024  -0.00001   0.00000  -0.00002  -0.00002   2.07021
    R5        2.62209   0.00007   0.00000   0.00014   0.00014   2.62223
    R6        2.66576   0.00014   0.00000   0.00027   0.00027   2.66603
    R7        2.07157   0.00001   0.00000   0.00002   0.00002   2.07159
    R8        2.07598   0.00000   0.00000  -0.00001  -0.00001   2.07598
    R9        2.65575   0.00001   0.00000  -0.00004  -0.00004   2.65571
    A1        1.79034   0.00009   0.00000   0.00021   0.00021   1.79055
    A2        2.31748   0.00003   0.00000   0.00023   0.00023   2.31771
    A3        2.12233   0.00001   0.00000  -0.00013  -0.00013   2.12221
    A4        1.84337  -0.00004   0.00000  -0.00010  -0.00010   1.84327
    A5        1.95758  -0.00005   0.00000  -0.00012  -0.00012   1.95746
    A6        2.10600   0.00002   0.00000  -0.00003  -0.00003   2.10597
    A7        2.21960   0.00003   0.00000   0.00015   0.00015   2.21975
    A8        2.19834  -0.00003   0.00000  -0.00033  -0.00033   2.19800
    A9        1.96683  -0.00005   0.00000  -0.00013  -0.00013   1.96670
   A10        2.11802   0.00008   0.00000   0.00046   0.00046   2.11849
   A11        2.20371  -0.00004   0.00000  -0.00021  -0.00021   2.20350
   A12        2.21283  -0.00002   0.00000   0.00006   0.00006   2.21288
   A13        1.86665   0.00005   0.00000   0.00015   0.00015   1.86680
    D1        0.00000   0.00000   0.00000   0.00000   0.00000   0.00000
    D2        3.14159   0.00000   0.00000   0.00000   0.00000   3.14159
    D3        3.14159   0.00000   0.00000   0.00000   0.00000   3.14159
    D4        0.00000   0.00000   0.00000   0.00000   0.00000   0.00000
    D5        3.14159   0.00000   0.00000   0.00000   0.00000   3.14159
    D6        0.00000   0.00000   0.00000   0.00000   0.00000   0.00000
    D7        0.00000   0.00000   0.00000   0.00000   0.00000   0.00000
    D8        3.14159   0.00000   0.00000   0.00000   0.00000   3.14159
    D9        0.00000   0.00000   0.00000   0.00000   0.00000   0.00000
   D10        3.14159   0.00000   0.00000   0.00000   0.00000   3.14159
   D11        3.14159   0.00000   0.00000   0.00000   0.00000   3.14159
   D12        0.00000   0.00000   0.00000   0.00000   0.00000   0.00000
   D13        3.14159   0.00000   0.00000   0.00000   0.00000   3.14159
   D14        0.00000   0.00000   0.00000   0.00000   0.00000   0.00000
   D15        0.00000   0.00000   0.00000   0.00000   0.00000   0.00000
   D16        3.14159   0.00000   0.00000   0.00000   0.00000   3.14159
         Item               Value     Threshold  Converged?
 Maximum Force            0.000141     0.000450     YES
 RMS     Force            0.000041     0.000300     YES
 Maximum Displacement     0.000502     0.001800     YES
 RMS     Displacement     0.000169     0.001200     YES
 Predicted change in Energy=-8.730686D-08
 Optimization completed.
    -- Stationary point found.
                           ----------------------------
                           !   Optimized Parameters   !
                           ! (Angstroms and Degrees)  !
 --------------------------                            --------------------------
 ! Name  Definition              Value          Derivative Info.                !
 --------------------------------------------------------------------------------
 ! R1    R(1,5)                  1.4404         -DE/DX =    0.0001              !
 ! R2    R(1,8)                  1.3706         -DE/DX =    0.0                 !
 ! R3    R(2,9)                  1.0425         -DE/DX =    0.0                 !
 ! R4    R(3,4)                  1.0955         -DE/DX =    0.0                 !
 ! R5    R(3,5)                  1.3876         -DE/DX =    0.0001              !
 ! R6    R(3,9)                  1.4107         -DE/DX =    0.0001              !
 ! R7    R(5,6)                  1.0962         -DE/DX =    0.0                 !
 ! R8    R(7,8)                  1.0986         -DE/DX =    0.0                 !
 ! R9    R(8,9)                  1.4054         -DE/DX =    0.0                 !
 ! A1    A(5,1,8)              102.579          -DE/DX =    0.0001              !
 ! A2    A(4,3,5)              132.7818         -DE/DX =    0.0                 !
 ! A3    A(4,3,9)              121.6007         -DE/DX =    0.0                 !
 ! A4    A(5,3,9)              105.6175         -DE/DX =    0.0                 !
 ! A5    A(1,5,3)              112.1612         -DE/DX =    0.0                 !
 ! A6    A(1,5,6)              120.6651         -DE/DX =    0.0                 !
 ! A7    A(3,5,6)              127.1736         -DE/DX =    0.0                 !
 ! A8    A(1,8,7)              125.9554         -DE/DX =    0.0                 !
 ! A9    A(1,8,9)              112.691          -DE/DX =    0.0                 !
 ! A10   A(7,8,9)              121.3536         -DE/DX =    0.0001              !
 ! A11   A(2,9,3)              126.263          -DE/DX =    0.0                 !
 ! A12   A(2,9,8)              126.7857         -DE/DX =    0.0                 !
 ! A13   A(3,9,8)              106.9513         -DE/DX =    0.0001              !
 ! D1    D(8,1,5,3)              0.0            -DE/DX =    0.0                 !
 ! D2    D(8,1,5,6)            180.0            -DE/DX =    0.0                 !
 ! D3    D(5,1,8,7)            180.0            -DE/DX =    0.0                 !
 ! D4    D(5,1,8,9)              0.0            -DE/DX =    0.0                 !
 ! D5    D(4,3,5,1)            180.0            -DE/DX =    0.0                 !
 ! D6    D(4,3,5,6)              0.0            -DE/DX =    0.0                 !
 ! D7    D(9,3,5,1)              0.0            -DE/DX =    0.0                 !
 ! D8    D(9,3,5,6)            180.0            -DE/DX =    0.0                 !
 ! D9    D(4,3,9,2)              0.0            -DE/DX =    0.0                 !
 ! D10   D(4,3,9,8)            180.0            -DE/DX =    0.0                 !
 ! D11   D(5,3,9,2)            180.0            -DE/DX =    0.0                 !
 ! D12   D(5,3,9,8)              0.0            -DE/DX =    0.0                 !
 ! D13   D(1,8,9,2)            180.0            -DE/DX =    0.0                 !
 ! D14   D(1,8,9,3)              0.0            -DE/DX =    0.0                 !
 ! D15   D(7,8,9,2)              0.0            -DE/DX =    0.0                 !
 ! D16   D(7,8,9,3)            180.0            -DE/DX =    0.0                 !
 --------------------------------------------------------------------------------
 GradGradGradGradGradGradGradGradGradGradGradGradGradGradGradGradGradGrad

 1\1\GINC-N276\Freq\RMP2-Full\STO-3G\C3H4N2\RDJ3\08-Feb-2012\0\\#N Geom
 =AllCheck Guess=TCheck SCRF=Check GenChk RMP2-Full/STO-3G Freq\\1himid
 az 1H-Imidazole casno=288324 state=1 config=1 method=2 basis=20\\0,1\N
 ,-0.7904295693,-1.0475727138,0.\H,0.0014875509,2.1657814787,0.\C,1.138
 8172531,0.2888668739,0.\H,2.1536108304,0.7016164228,0.\C,0.6495159766,
 -1.0095498459,0.\H,1.233307894,-1.9373956768,0.\H,-2.1436886232,0.6909
 250008,0.\C,-1.1241423899,0.2818188869,0.\N,0.0014320774,1.1233235734,
 0.\\Version=EM64L-G09RevB.01\State=1-A'\HF=-221.9790295\MP2=-222.28668
 28\RMSD=1.433e-09\RMSF=5.759e-05\ZeroPoint=0.0749742\Thermal=0.0787409
 \Dipole=0.4247491,1.3578188,0.\DipoleDeriv=-0.2252974,0.2121357,0.,-0.
 0228093,-0.3291051,0.,0.,0.,-0.2453701,0.1538254,-0.0082451,0.,0.00326
 61,0.2189879,0.,0.,0.,0.3084666,-0.0174117,-0.1640512,0.,-0.0889238,0.
 2449561,0.,0.,0.,-0.0056591,0.1077006,0.0362966,0.,-0.0090829,0.048637
 6,0.,0.,0.,0.0998844,-0.0428805,-0.2727096,0.,-0.0066446,-0.0423296,0.
 ,0.,0.,-0.0732236,0.0350676,-0.0121429,0.,-0.0117215,0.088177,0.,0.,0.
 ,0.0639081,0.1051091,-0.0271998,0.,0.0066887,0.0307173,0.,0.,0.,0.0833
 531,0.1597905,0.2444615,0.,0.1421747,0.3172606,0.,0.,0.,0.0271423,-0.2
 759036,-0.0085453,0.,-0.0129474,-0.5773019,0.,0.,0.,-0.2585016\Polar=2
 9.1376574,-1.9658572,29.9294685,0.,0.,5.1175881\PG=CS [SG(C3H4N2)]\NIm
 ag=0\\0.45908167,-0.02973257,0.56003287,0.,0.,0.09591022,-0.00535427,-
 0.00662344,0.,0.06086213,-0.00660936,0.00368185,0.,-0.00080587,0.52770
 410,0.,0.,0.00691176,0.,0.,0.01007053,-0.05373164,-0.00611673,0.,0.013
 85153,-0.01339130,0.,0.95871522,-0.07823882,0.00049968,0.,0.02715359,-
 0.00531649,0.,0.13879772,0.78538915,0.,0.,0.01643561,0.,0.,-0.01015888
 ,0.,0.,0.11516041,0.00231941,0.00078431,0.,0.00125746,0.00009458,0.,-0
 .38438056,-0.12814180,0.,0.39254898,-0.00438303,-0.00303593,0.,-0.0007
 2114,0.00072819,0.,-0.14138453,-0.12222806,0.,0.13532769,0.11015942,0.
 ,0.,0.00772676,0.,0.,-0.00163121,0.,0.,-0.02573363,0.,0.,0.02225028,-0
 .26701725,0.01357163,0.,-0.00892626,0.00586656,0.,-0.14738613,-0.08614
 226,0.,0.00215461,-0.02314510,0.,0.64519937,-0.02267244,-0.10308929,0.
 ,0.00442954,0.00267144,0.,-0.10748913,-0.42424496,0.,0.00684542,0.0072
 5628,0.,-0.13087258,0.97752813,0.,0.,-0.06448040,0.,0.,0.00340184,0.,0
 .,-0.06460861,0.,0.,-0.00053499,0.,0.,0.13261220,-0.00755678,0.0278200
 3,0.,0.00148838,-0.00012283,0.,0.01110296,-0.01659315,0.,0.00034444,0.
 00082733,0.,-0.16496407,0.16516890,0.,0.16839262,-0.00598799,0.0099804
 9,0.,0.00118257,-0.00026584,0.,0.02189761,-0.00762546,0.,-0.00053169,0
 .00066256,0.,0.16397465,-0.33689716,0.,-0.17334502,0.33667777,0.,0.,-0
 .00730546,0.,0.,0.00235320,0.,0.,-0.00137473,0.,0.,-0.00306568,0.,0.,-
 0.03034198,0.,0.,0.02597101,0.00201990,-0.00209075,0.,0.00094595,-0.00
 021350,0.,0.00069774,-0.00459980,0.,-0.00037888,0.00075334,0.,0.001859
 65,-0.00054875,0.,0.00039281,0.00022791,0.,0.39108057,0.02797365,-0.00
 077203,0.,0.00052739,0.00062342,0.,-0.00272742,-0.00660191,0.,-0.00076
 293,0.00148004,0.,0.00199243,-0.00622023,0.,0.00190927,0.00079222,0.,-
 0.13143134,0.11359199,0.,0.,-0.00881577,0.,0.,-0.00150347,0.,0.,0.0032
 3182,0.,0.,0.00180411,0.,0.,0.00945475,0.,0.,0.00125475,0.,0.,0.022638
 00,-0.11766728,0.03244341,0.,0.01550511,0.01313533,0.,-0.08798932,0.01
 826787,0.,-0.00003235,0.00352416,0.,-0.06341913,0.04022485,0.,-0.00814
 561,-0.00409002,0.,-0.38258399,0.13038865,0.,0.95563962,0.09821429,-0.
 37691430,0.,-0.02333005,-0.00785341,0.,-0.02284267,0.00199858,0.,0.003
 79519,-0.00925114,0.,0.07164413,-0.03023365,0.,-0.00122843,-0.00070380
 ,0.,0.12089583,-0.11538995,0.,-0.10885117,0.74420160,0.,0.,-0.06443919
 ,0.,0.,-0.01084283,0.,0.,0.01082274,0.,0.,0.00399643,0.,0.,0.00421369,
 0.,0.,0.00645097,0.,0.,-0.02341770,0.,0.,0.11799696,-0.01209376,-0.030
 05592,0.,-0.07963003,0.00204640,0.,-0.31087981,0.12949664,0.,-0.013833
 11,0.02920128,0.,0.00249921,0.04491418,0.,-0.00105475,-0.00332801,0.,-
 0.01403374,-0.02786970,0.,-0.31130706,-0.13829713,0.,0.74033304,0.0214
 3627,-0.09038333,0.,-0.00181258,-0.52197328,0.,0.13325643,-0.22187052,
 0.,-0.01741078,0.01422864,0.,-0.01688946,-0.08677057,0.,-0.00443610,-0
 .00262078,0.,0.01700705,0.01249646,0.,-0.12504308,-0.20585394,0.,-0.00
 610775,1.10274733,0.,0.,0.01805647,0.,0.,0.00139906,0.,0.,-0.04377472,
 0.,0.,-0.00481207,0.,0.,0.01028350,0.,0.,0.00605793,0.,0.,-0.00464648,
 0.,0.,-0.04478106,0.,0.,0.06221737\\0.00005593,-0.00009987,0.,-0.00000
 898,-0.00004791,0.,-0.00018263,-0.00001831,0.,0.00001389,-0.00000534,0
 .,-0.00006545,0.00010286,0.,-0.00000031,0.00001330,0.,0.00001825,0.000
 04620,0.,0.00006427,-0.00005652,0.,0.00010502,0.00006558,0.\\\@


 A MUSTACHE HAIR ACROSS A CHIP IS LIKE A REDWOOD
 TREE FALLING THROUGH A HOUSING PROJECT.
 - AN IBM MANAGER IN EAST FISHKILL, NEW YORK
   AS QUOTED IN "FROM SANDS TO CIRCUITS", IBM INNOVATION JANUARY 1985.
 Job cpu time:  0 days  0 hours  0 minutes 25.2 seconds.
 File lengths (MBytes):  RWF=     16 Int=      0 D2E=      0 Chk=      1 Scr=      1
 Normal termination of Gaussian 09 at Wed Feb  8 11:17:21 2012.
