 Entering Gaussian System, Link 0=g98
 Initial command:
 /usr/local/apps/g98a6/g98/l1.exe /wrk/rdj3/Gau-18036.inp -scrdir=/wrk/rdj3/
 Entering Link 1 = /usr/local/apps/g98a6/g98/l1.exe PID=     15286.
  
 Copyright (c) 1988,1990,1992,1993,1995,1998 Gaussian, Inc.
                  All Rights Reserved.
  
 This is part of the Gaussian(R) 98 program.  It is based on
 the Gaussian 94(TM) system (copyright 1995 Gaussian, Inc.),
 the Gaussian 92(TM) system (copyright 1992 Gaussian, Inc.),
 the Gaussian 90(TM) system (copyright 1990 Gaussian, Inc.),
 the Gaussian 88(TM) system (copyright 1988 Gaussian, Inc.),
 the Gaussian 86(TM) system (copyright 1986 Carnegie Mellon
 University), and the Gaussian 82(TM) system (copyright 1983
 Carnegie Mellon University). Gaussian is a federally registered
 trademark of Gaussian, Inc.
  
 This software contains proprietary and confidential information,
 including trade secrets, belonging to Gaussian, Inc.
  
 This software is provided under written license and may be
 used, copied, transmitted, or stored only in accord with that
 written license.
  
 The following legend is applicable only to US Government
 contracts under DFARS:
  
                    RESTRICTED RIGHTS LEGEND
  
 Use, duplication or disclosure by the US Government is subject
 to restrictions as set forth in subparagraph (c)(1)(ii) of the
 Rights in Technical Data and Computer Software clause at DFARS
 252.227-7013.
  
 Gaussian, Inc.
 Carnegie Office Park, Building 6, Pittsburgh, PA 15106 USA
  
 The following legend is applicable only to US Government
 contracts under FAR:
  
                    RESTRICTED RIGHTS LEGEND
  
 Use, reproduction and disclosure by the US Government is subject
 to restrictions as set forth in subparagraph (c) of the
 Commercial Computer Software - Restricted Rights clause at FAR
 52.227-19.
  
 Gaussian, Inc.
 Carnegie Office Park, Building 6, Pittsburgh, PA 15106 USA
  
  
 ---------------------------------------------------------------
 Warning -- This program may not be used in any manner that
 competes with the business of Gaussian, Inc. or will provide
 assistance to any competitor of Gaussian, Inc.  The licensee
 of this program is prohibited from giving any competitor of
 Gaussian, Inc. access to this program.  By using this program,
 the user acknowledges that Gaussian, Inc. is engaged in the
 business of creating and licensing software in the field of
 computational chemistry and represents and warrants to the
 licensee that it is not a competitor of Gaussian, Inc. and that
 it will not use this program in any manner prohibited above.
 ---------------------------------------------------------------
  

 Cite this work as:
 Gaussian 98, Revision A.6,
 M. J. Frisch, G. W. Trucks, H. B. Schlegel, G. E. Scuseria, 
 M. A. Robb, J. R. Cheeseman, V. G. Zakrzewski, J. A. Montgomery, Jr., 
 R. E. Stratmann, J. C. Burant, S. Dapprich, J. M. Millam, 
 A. D. Daniels, K. N. Kudin, M. C. Strain, O. Farkas, J. Tomasi, 
 V. Barone, M. Cossi, R. Cammi, B. Mennucci, C. Pomelli, C. Adamo, 
 S. Clifford, J. Ochterski, G. A. Petersson, P. Y. Ayala, Q. Cui, 
 K. Morokuma, D. K. Malick, A. D. Rabuck, K. Raghavachari, 
 J. B. Foresman, J. Cioslowski, J. V. Ortiz, B. B. Stefanov, G. Liu, 
 A. Liashenko, P. Piskorz, I. Komaromi, R. Gomperts, R. L. Martin, 
 D. J. Fox, T. Keith, M. A. Al-Laham, C. Y. Peng, A. Nanayakkara, 
 C. Gonzalez, M. Challacombe, P. M. W. Gill, B. Johnson, W. Chen, 
 M. W. Wong, J. L. Andres, C. Gonzalez, M. Head-Gordon, 
 E. S. Replogle, and J. A. Pople, 
 Gaussian, Inc., Pittsburgh PA, 1998.

 **********************************************
 Gaussian 98:  IBM-RS6000-G98RevA.6 19-Oct-1998
                  10-Nov-2000 
 **********************************************
 %mem=24000000
 -----------------------
 #MP2/CEP-121G* opt freq
 -----------------------
 1/18=20,38=1/1,3;
 2/9=110,17=6,18=5/2;
 3/5=9,6=2,7=1,11=9,16=1,25=1,30=1/1,2,3;
 4/11=1/1;
 5/5=2,38=4/2;
 8/6=4,10=1/1;
 9/15=2,16=-3/6;
 10/5=1/2;
 6/7=2,8=2,9=2,10=2/1;
 7/12=2/1,2,3,16;
 1/18=20/3(1);
 99//99;
 2/9=110/2;
 3/5=9,6=2,7=1,11=9,16=1,25=1,30=1/1,2,3;
 4/5=5,11=1,16=2/1;
 5/5=2,38=4/2;
 8/6=4,10=1/1;
 9/15=2,16=-3/6;
 10/5=1/2;
 7/12=2/1,2,3,16;
 1/18=20/3(-8);
 2/9=110/2;
 6/7=2,8=2,9=2,10=2/1;
 99//99;
 --------------------------------
 1H imidazole C3H4N2 casno=288324
 --------------------------------
 Symbolic Z-matrix:
 Charge =  0 Multiplicity = 1
 N                     0.30938   0.        1.30938 
 H                     0.3125    0.       -1.6875 
 C                    -1.06875   0.       -0.28438 
 H                    -1.91875   0.       -0.79063 
 C                    -0.93438   0.        1.02812 
 H                    -1.675     0.        1.6875 
 H                     1.91875   0.        0.09063 
 C                     0.93438   0.        0.19063 
 N                     0.09688   0.       -0.775 

 GradGradGradGradGradGradGradGradGradGradGradGradGradGradGradGradGradGrad
 Berny optimization.
 Initialization pass.
                         ----------------------------
                         !    Initial Parameters    !
                         ! (Angstroms and Degrees)  !
 ------------------------                            -------------------------
 ! Name  Definition              Value          Derivative Info.             !
 -----------------------------------------------------------------------------
 ! R1    R(1,5)                  1.2752         estimate D2E/DX2             !
 ! R2    R(1,8)                  1.2815         estimate D2E/DX2             !
 ! R3    R(2,9)                  0.9376         estimate D2E/DX2             !
 ! R4    R(3,4)                  0.9893         estimate D2E/DX2             !
 ! R5    R(3,5)                  1.3194         estimate D2E/DX2             !
 ! R6    R(3,9)                  1.2647         estimate D2E/DX2             !
 ! R7    R(5,6)                  0.9916         estimate D2E/DX2             !
 ! R8    R(7,8)                  0.9894         estimate D2E/DX2             !
 ! R9    R(8,9)                  1.2782         estimate D2E/DX2             !
 ! A1    A(5,1,8)              106.4483         estimate D2E/DX2             !
 ! A2    A(4,3,5)              126.6232         estimate D2E/DX2             !
 ! A3    A(4,3,9)              126.3957         estimate D2E/DX2             !
 ! A4    A(5,3,9)              106.9812         estimate D2E/DX2             !
 ! A5    A(1,5,3)              108.5877         estimate D2E/DX2             !
 ! A6    A(1,5,6)              125.5794         estimate D2E/DX2             !
 ! A7    A(3,5,6)              125.8329         estimate D2E/DX2             !
 ! A8    A(1,8,7)              124.9909         estimate D2E/DX2             !
 ! A9    A(1,8,9)              109.8741         estimate D2E/DX2             !
 ! A10   A(7,8,9)              125.1349         estimate D2E/DX2             !
 ! A11   A(2,9,3)              126.122          estimate D2E/DX2             !
 ! A12   A(2,9,8)              125.7693         estimate D2E/DX2             !
 ! A13   A(3,9,8)              108.1088         estimate D2E/DX2             !
 ! D1    D(8,1,5,3)              0.             estimate D2E/DX2             !
 ! D2    D(8,1,5,6)            180.             estimate D2E/DX2             !
 ! D3    D(5,1,8,7)            180.             estimate D2E/DX2             !
 ! D4    D(5,1,8,9)              0.             estimate D2E/DX2             !
 ! D5    D(4,3,5,1)            180.             estimate D2E/DX2             !
 ! D6    D(4,3,5,6)              0.             estimate D2E/DX2             !
 ! D7    D(9,3,5,1)              0.             estimate D2E/DX2             !
 ! D8    D(9,3,5,6)            180.             estimate D2E/DX2             !
 ! D9    D(4,3,9,2)              0.             estimate D2E/DX2             !
 ! D10   D(4,3,9,8)            180.             estimate D2E/DX2             !
 ! D11   D(5,3,9,2)            180.             estimate D2E/DX2             !
 ! D12   D(5,3,9,8)              0.             estimate D2E/DX2             !
 ! D13   D(1,8,9,2)            180.             estimate D2E/DX2             !
 ! D14   D(1,8,9,3)              0.             estimate D2E/DX2             !
 ! D15   D(7,8,9,2)              0.             estimate D2E/DX2             !
 ! D16   D(7,8,9,3)            180.             estimate D2E/DX2             !
 -----------------------------------------------------------------------------
 Trust Radius=3.00D-01 FncErr=1.00D-07 GrdErr=1.00D-07
 Number of steps in this run=  48 maximum allowed number of steps= 100.
 GradGradGradGradGradGradGradGradGradGradGradGradGradGradGradGradGradGrad

                          Input orientation:                          
 ---------------------------------------------------------------------
 Center     Atomic     Atomic              Coordinates (Angstroms)
 Number     Number      Type              X           Y           Z
 ---------------------------------------------------------------------
    1          7             0        0.309375    0.000000    1.309375
    2          1             0        0.312500    0.000000   -1.687500
    3          6             0       -1.068750    0.000000   -0.284375
    4          1             0       -1.918750    0.000000   -0.790625
    5          6             0       -0.934375    0.000000    1.028125
    6          1             0       -1.675000    0.000000    1.687500
    7          1             0        1.918750    0.000000    0.090625
    8          6             0        0.934375    0.000000    0.190625
    9          7             0        0.096875    0.000000   -0.775000
 ---------------------------------------------------------------------
                    Distance matrix (angstroms):
                    1          2          3          4          5
     1  N    0.000000
     2  H    2.996877   0.000000
     3  C    2.106957   1.968911   0.000000
     4  H    3.061787   2.404758   0.989338   0.000000
     5  C    1.275153   2.988196   1.319361   2.068054   0.000000
     6  H    2.020080   3.916731   2.062966   2.490084   0.991615
     7  H    2.018772   2.396199   3.010944   3.937386   3.003203
     8  C    1.281494   1.978404   2.058673   3.017147   2.047836
     9  N    2.095179   0.937630   1.264672   2.015686   2.077194
                    6          7          8          9
     6  H    0.000000
     7  H    3.932563   0.000000
     8  C    3.008234   0.989441   0.000000
     9  N    3.033718   2.017061   1.278217   0.000000
 Stoichiometry    C3H4N2
 Framework group  CS[SG(C3H4N2)]
 Deg. of freedom   15
 Full point group                 CS      NOp   2
 Largest Abelian subgroup         CS      NOp   2
 Largest concise Abelian subgroup C1      NOp   1
                         Standard orientation:                         
 ---------------------------------------------------------------------
 Center     Atomic     Atomic              Coordinates (Angstroms)
 Number     Number      Type              X           Y           Z
 ---------------------------------------------------------------------
    1          7             0       -0.674969   -0.941702    0.000000
    2          1             0       -0.005288    1.979393    0.000000
    3          6             0        1.025744    0.302019    0.000000
    4          1             0        1.967693    0.604544    0.000000
    5          6             0        0.600174   -0.946822    0.000000
    6          1             0        1.173884   -1.755622    0.000000
    7          1             0       -1.969692    0.607211    0.000000
    8          6             0       -1.032886    0.288794    0.000000
    9          7             0        0.000000    1.041778    0.000000
 ---------------------------------------------------------------------
 Rotational constants (GHZ):     11.1543393     10.4769603      5.4025219
 Isotopes: N-14,H-1,C-12,H-1,C-12,H-1,H-1,C-12,N-14
 Standard basis: CEP-121G(d) (6D, 10F)
 There are    77 symmetry adapted basis functions of A'  symmetry.
 There are    25 symmetry adapted basis functions of A"  symmetry.
 Crude estimate of integral set expansion from redundant integrals=1.000.
 Integral buffers will be    262144 words long.
 Raffenetti 1 integral format.
 Two-electron integral symmetry is turned on.
   102 basis functions      130 primitive gaussians
    13 alpha electrons       13 beta electrons
       nuclear repulsion energy        90.1770288692 Hartrees.
 One-electron integrals computed using PRISM.
   1 Symmetry operations used in ECPInt.
 ECPInt:  NShTT=     528 NPrTT=    1052 LenC2=     529 LenP2D=     990.
 LDataN:  DoStor=F MaxTD1= 4 Len=   56
 LDataN:  DoStor=T MaxTD1= 4 Len=   56
 NBasis=   102 RedAO= T  NBF=    77    25
 NBsUse=   102 1.00D-04 NBFU=    77    25
 Projected Huckel Guess.
 Initial guess orbital symmetries:
       Occupied  (A') (A') (A') (A') (A') (A') (A") (A') (A') (A')
                 (A") (A') (A")
       Virtual   (A") (A") (A') (A') (A') (A') (A') (A') (A') (A')
                 (A') (A') (A') (A') (A') (A') (A') (A') (A') (A')
                 (A') (A') (A') (A') (A') (A') (A') (A') (A') (A')
                 (A') (A') (A') (A') (A') (A') (A') (A') (A') (A')
                 (A') (A') (A') (A') (A') (A') (A') (A') (A') (A')
                 (A') (A') (A') (A') (A') (A') (A') (A') (A') (A')
                 (A') (A') (A') (A') (A') (A') (A') (A') (A') (A")
                 (A") (A") (A") (A") (A") (A") (A") (A") (A") (A")
                 (A") (A") (A") (A") (A") (A") (A") (A") (A")
 Requested convergence on RMS density matrix=1.00D-08 within  64 cycles.
 Requested convergence on MAX density matrix=1.00D-06.
 Keep R1 integrals in memory in canonical form, NReq=    14379745.
 SCF Done:  E(RHF) =  -38.0876145272     A.U. after   14 cycles
             Convg  =    0.6974D-08             -V/T =  2.2193
             S**2   =   0.0000
 Range of M.O.s used for correlation:     1   102
 NBasis=   102 NAE=    13 NBE=    13 NFC=     0 NFV=     0
 NROrb=    102 NOA=    13 NOB=    13 NVA=    89 NVB=    89

 **** Warning!!: The largest alpha MO coefficient is  0.12328105D+02

 Fully direct method using O(ONN) memory.
 JobTyp=1 Pass  1:  I=   1 to  13.
 Spin components of T(2) and E(2):
     alpha-alpha T2 =       0.3083317118D-01 E2=     -0.9337219703D-01
     alpha-beta  T2 =       0.1605646224D+00 E2=     -0.5073123100D+00
     beta-beta   T2 =       0.3083317118D-01 E2=     -0.9337219703D-01
 ANorm=    0.1105545551D+01
 E2 =    -0.6940567040D+00 EUMP2 =    -0.38781671231245D+02
          Differentiating once with respect to electric field.
                with respect to dipole field.
          Differentiating once with respect to nuclear coordinates.
          Store integrals in memory, NReq=    14240150.
          There are   1 degrees of freedom in the 1st order CPHF.
   1 vectors were produced by pass  0.
 AX will form   1 AO Fock derivatives at one time.
   1 vectors were produced by pass  1.
   1 vectors were produced by pass  2.
   1 vectors were produced by pass  3.
   1 vectors were produced by pass  4.
   1 vectors were produced by pass  5.
   1 vectors were produced by pass  6.
   1 vectors were produced by pass  7.
   1 vectors were produced by pass  8.
   1 vectors were produced by pass  9.
   1 vectors were produced by pass 10.
   1 vectors were produced by pass 11.
   1 vectors were produced by pass 12.
   1 vectors were produced by pass 13.
 Inv2:  IOpt= 1 Iter= 1 AM= 4.40D-16 Conv= 1.00D-12.
 Inverted reduced A of dimension  14 with in-core refinement.

 **********************************************************************

            Population analysis using the SCF density.

 **********************************************************************

 Orbital Symmetries:
       Occupied  (A') (A') (A') (A') (A') (A') (A') (A") (A') (A')
                 (A') (A") (A")
       Virtual   (A') (A') (A") (A') (A') (A") (A') (A') (A') (A')
                 (A") (A') (A') (A") (A') (A") (A') (A') (A') (A')
                 (A') (A') (A") (A') (A') (A') (A") (A') (A') (A')
                 (A') (A') (A') (A') (A') (A") (A') (A") (A") (A")
                 (A") (A') (A') (A') (A') (A') (A') (A') (A") (A')
                 (A") (A') (A") (A") (A') (A') (A') (A") (A') (A')
                 (A') (A') (A') (A') (A') (A') (A') (A') (A') (A")
                 (A") (A") (A') (A') (A') (A') (A') (A') (A") (A")
                 (A') (A') (A') (A') (A') (A') (A') (A') (A')
  The electronic state is 1-A'.
 Alpha  occ. eigenvalues --   -1.42648  -1.21659  -1.04472  -0.87425  -0.83551
 Alpha  occ. eigenvalues --   -0.80459  -0.64438  -0.64168  -0.61653  -0.59679
 Alpha  occ. eigenvalues --   -0.42038  -0.41422  -0.31505
 Alpha virt. eigenvalues --    0.13314   0.18135   0.19296   0.19452   0.21152
 Alpha virt. eigenvalues --    0.24171   0.27605   0.31291   0.36017   0.36328
 Alpha virt. eigenvalues --    0.45496   0.47571   0.48204   0.49586   0.53266
 Alpha virt. eigenvalues --    0.56528   0.60578   0.66458   0.68207   0.69624
 Alpha virt. eigenvalues --    0.71798   0.71957   0.76252   0.79639   0.83680
 Alpha virt. eigenvalues --    0.85616   0.86208   0.91786   0.92926   0.99254
 Alpha virt. eigenvalues --    1.02111   1.07127   1.15322   1.19626   1.23870
 Alpha virt. eigenvalues --    1.47906   1.56902   1.59182   1.61958   1.80921
 Alpha virt. eigenvalues --    1.85348   1.97875   2.09733   2.13699   2.21459
 Alpha virt. eigenvalues --    2.29168   2.32587   2.44562   2.48267   2.51347
 Alpha virt. eigenvalues --    2.56939   2.61286   2.62240   2.71173   2.88422
 Alpha virt. eigenvalues --    2.92400   2.96438   3.01512   3.02027   3.04644
 Alpha virt. eigenvalues --    3.23324   3.25142   3.77773   4.00428   4.38731
 Alpha virt. eigenvalues --    4.44148   4.56135   4.60966   4.64137   5.84610
 Alpha virt. eigenvalues --    5.96285   6.18491   6.21381   6.57995   6.77518
 Alpha virt. eigenvalues --    6.80258   6.99683   8.17432   8.68306   8.78158
 Alpha virt. eigenvalues --   10.04772  10.04982  10.34793  10.73728  43.40418
 Alpha virt. eigenvalues --   43.44393  43.59947  57.81480  57.87289
          Condensed to atoms (all electrons):
              1          2          3          4          5          6
  1  N    4.085165   0.006077  -0.181064   0.002842   0.614219  -0.021426
  2  H    0.006077   0.348952  -0.060637  -0.003847   0.018662   0.000372
  3  C   -0.181064  -0.060637   3.566137   0.370057   0.373016  -0.088711
  4  H    0.002842  -0.003847   0.370057   0.417333  -0.017576   0.005786
  5  C    0.614219   0.018662   0.373016  -0.017576   3.110750   0.424102
  6  H   -0.021426   0.000372  -0.088711   0.005786   0.424102   0.459799
  7  H   -0.026008  -0.002187   0.002386  -0.000638   0.015247  -0.000203
  8  C    0.640863  -0.044796  -0.050644   0.007725  -0.142436   0.008676
  9  N   -0.071930   0.339885   0.487154  -0.016446  -0.186138   0.002772
              7          8          9
  1  N   -0.026008   0.640863  -0.071930
  2  H   -0.002187  -0.044796   0.339885
  3  C    0.002386  -0.050644   0.487154
  4  H   -0.000638   0.007725  -0.016446
  5  C    0.015247  -0.142436  -0.186138
  6  H   -0.000203   0.008676   0.002772
  7  H    0.434120   0.407603  -0.040190
  8  C    0.407603   3.071220   0.464183
  9  N   -0.040190   0.464183   4.033021
 Total atomic charges:
              1
  1  N   -0.048739
  2  H    0.397519
  3  C   -0.417695
  4  H    0.234763
  5  C   -0.209846
  6  H    0.208833
  7  H    0.209869
  8  C   -0.362394
  9  N   -0.012311
 Sum of Mulliken charges=   0.00000
 Atomic charges with hydrogens summed into heavy atoms:
              1
  1  N   -0.048739
  2  H    0.000000
  3  C   -0.182932
  4  H    0.000000
  5  C   -0.001013
  6  H    0.000000
  7  H    0.000000
  8  C   -0.152524
  9  N    0.385208
 Sum of Mulliken charges=   0.00000
 Electronic spatial extent (au):  <R**2>=   216.0549
 Charge=     0.0000 electrons
 Dipole moment (Debye):
    X=     1.1143    Y=     3.9858    Z=     0.0000  Tot=     4.1387
 Quadrupole moment (Debye-Ang):
   XX=   -26.5969   YY=   -25.2705   ZZ=   -31.2190
   XY=    -3.4982   XZ=     0.0000   YZ=     0.0000
 Octapole moment (Debye-Ang**2):
  XXX=     0.2295  YYY=    16.5589  ZZZ=     0.0000  XYY=     5.3264
  XXY=     5.7558  XXZ=     0.0000  XZZ=    -0.9545  YZZ=     1.5610
  YYZ=     0.0000  XYZ=     0.0000
 Hexadecapole moment (Debye-Ang**3):
 XXXX=  -139.2006 YYYY=  -127.2262 ZZZZ=   -33.9862 XXXY=    -3.6066
 XXXZ=     0.0000 YYYX=    -8.0458 YYYZ=     0.0000 ZZZX=     0.0000
 ZZZY=     0.0000 XXYY=   -51.7696 XXZZ=   -35.5232 YYZZ=   -32.9768
 XXYZ=     0.0000 YYXZ=     0.0000 ZZXY=     0.5045
 N-N= 9.017702886917D+01 E-N=-2.680630744669D+02  KE= 3.123611665268D+01
 Symmetry A'   KE= 2.347338214183D+01
 Symmetry A"   KE= 7.762734510853D+00
   2 Symmetry operations used in ECPInt.
 ECPInt:  NShTT=     528 NPrTT=    1052 LenC2=     529 LenP2D=     990.
 LDataN:  DoStor=F MaxTD1= 5 Len=  102
 LDataN:  DoStor=T MaxTD1= 5 Len=  102
 ***** Axes restored to original set *****
 -------------------------------------------------------------------
 Center     Atomic                   Forces (Hartrees/Bohr)
 Number     Number              X              Y              Z
 -------------------------------------------------------------------
    1          7           0.088387783    0.000000000    0.107212902
    2          1           0.019633378    0.000000000   -0.085923449
    3          6          -0.092260696    0.000000000    0.007976251
    4          1          -0.070559258    0.000000000   -0.052224599
    5          6          -0.041055430    0.000000000   -0.003563003
    6          1          -0.060434810    0.000000000    0.060820080
    7          1           0.087022255    0.000000000   -0.011357710
    8          6           0.034731608    0.000000000    0.039083745
    9          7           0.034535169    0.000000000   -0.062024216
 -------------------------------------------------------------------
 Cartesian Forces:  Max     0.107212902 RMS     0.050141303

 GradGradGradGradGradGradGradGradGradGradGradGradGradGradGradGradGradGrad
 Berny optimization.
 Internal  Forces:  Max     0.144633323 RMS     0.051808101
 Search for a local minimum.
 Step number   1 out of a maximum of  48
 All quantities printed in internal units (Hartrees-Bohrs-Radians)
 Second derivative matrix not updated -- first step.
     Eigenvalues ---    0.03211   0.03261   0.03288   0.03318   0.03352
     Eigenvalues ---    0.03407   0.16000   0.16000   0.16000   0.16000
     Eigenvalues ---    0.22000   0.22917   0.49193   0.49594   0.49613
     Eigenvalues ---    0.54578   0.60577   0.63413   0.68379   0.73836
     Eigenvalues ---    0.765081000.000001000.000001000.000001000.00000
     Eigenvalues --- 1000.000001000.000001000.000001000.000001000.00000
     Eigenvalues --- 1000.000001000.000001000.000001000.000001000.00000
     Eigenvalues --- 1000.000001000.000001000.00000
 RFO step:  Lambda=-1.30838197D-01.
 Linear search not attempted -- first point.
 Maximum step size (   0.300) exceeded in Quadratic search.
    -- Step size scaled by   0.720
 Iteration  1 RMS(Cart)=  0.06596184 RMS(Int)=  0.00039281
 Iteration  2 RMS(Cart)=  0.00044974 RMS(Int)=  0.00008702
 Iteration  3 RMS(Cart)=  0.00000021 RMS(Int)=  0.00008702
 Variable       Old X    -DE/DX   Delta X   Delta X   Delta X     New X
                                 (Linear)    (Quad)   (Total)
    R1        2.40969   0.13361   0.00000   0.10773   0.10767   2.51736
    R2        2.42167   0.08064   0.00000   0.06640   0.06625   2.48792
    R3        1.77186   0.08814   0.00000   0.08621   0.08621   1.85807
    R4        1.86958   0.08735   0.00000   0.10037   0.10037   1.96995
    R5        2.49323   0.09681   0.00000   0.09291   0.09303   2.58626
    R6        2.38988   0.14463   0.00000   0.11643   0.11656   2.50644
    R7        1.87388   0.08558   0.00000   0.09901   0.09901   1.97289
    R8        1.86977   0.08772   0.00000   0.10084   0.10084   1.97061
    R9        2.41548   0.12723   0.00000   0.10692   0.10688   2.52236
    A1        1.85787   0.00251   0.00000  -0.00477  -0.00504   1.85283
    A2        2.20999   0.01584   0.00000   0.03320   0.03307   2.24306
    A3        2.20602  -0.00055   0.00000  -0.00739  -0.00752   2.19850
    A4        1.86717  -0.01529   0.00000  -0.02580  -0.02555   1.84162
    A5        1.89521   0.01127   0.00000   0.01953   0.01959   1.91481
    A6        2.19177  -0.01054   0.00000  -0.02192  -0.02196   2.16982
    A7        2.19620  -0.00073   0.00000   0.00240   0.00237   2.19856
    A8        2.18150   0.00150   0.00000   0.00399   0.00406   2.18557
    A9        1.91767   0.00168   0.00000   0.00363   0.00348   1.92114
   A10        2.18402  -0.00318   0.00000  -0.00762  -0.00754   2.17648
   A11        2.20124  -0.00050   0.00000  -0.00514  -0.00520   2.19605
   A12        2.19509   0.00066   0.00000  -0.00228  -0.00233   2.19276
   A13        1.88685  -0.00016   0.00000   0.00742   0.00753   1.89438
    D1        0.00000   0.00000   0.00000   0.00000   0.00000   0.00000
    D2        3.14159   0.00000   0.00000   0.00000   0.00000   3.14159
    D3        3.14159   0.00000   0.00000   0.00000   0.00000   3.14159
    D4        0.00000   0.00000   0.00000   0.00000   0.00000   0.00000
    D5        3.14159   0.00000   0.00000   0.00000   0.00000   3.14159
    D6        0.00000   0.00000   0.00000   0.00000   0.00000   0.00000
    D7        0.00000   0.00000   0.00000   0.00000   0.00000   0.00000
    D8        3.14159   0.00000   0.00000   0.00000   0.00000   3.14159
    D9        0.00000   0.00000   0.00000   0.00000   0.00000   0.00000
   D10        3.14159   0.00000   0.00000   0.00000   0.00000   3.14159
   D11        3.14159   0.00000   0.00000   0.00000   0.00000   3.14159
   D12        0.00000   0.00000   0.00000   0.00000   0.00000   0.00000
   D13        3.14159   0.00000   0.00000   0.00000   0.00000   3.14159
   D14        0.00000   0.00000   0.00000   0.00000   0.00000   0.00000
   D15        0.00000   0.00000   0.00000   0.00000   0.00000   0.00000
   D16        3.14159   0.00000   0.00000   0.00000   0.00000   3.14159
         Item               Value     Threshold  Converged?
 Maximum Force            0.144633     0.000450     NO 
 RMS     Force            0.051808     0.000300     NO 
 Maximum Displacement     0.186185     0.001800     NO 
 RMS     Displacement     0.065908     0.001200     NO 
 Predicted change in Energy=-2.807454D-02
 GradGradGradGradGradGradGradGradGradGradGradGradGradGradGradGradGradGrad

                          Input orientation:                          
 ---------------------------------------------------------------------
 Center     Atomic     Atomic              Coordinates (Angstroms)
 Number     Number      Type              X           Y           Z
 ---------------------------------------------------------------------
    1          7             0        0.477128    0.000000    1.116335
    2          1             0        0.474905    0.000000   -1.999971
    3          6             0       -0.982514    0.000000   -0.541017
    4          1             0       -1.868989    0.000000   -1.089536
    5          6             0       -0.821173    0.000000    0.818031
    6          1             0       -1.587952    0.000000    1.526553
    7          1             0        2.154254    0.000000   -0.145289
    8          6             0        1.117401    0.000000   -0.034037
    9          7             0        0.244752    0.000000   -1.044038
 ---------------------------------------------------------------------
                    Distance matrix (angstroms):
                    1          2          3          4          5
     1  N    0.000000
     2  H    3.116307   0.000000
     3  C    2.208478   2.062188   0.000000
     4  H    3.220269   2.514504   1.042454   0.000000
     5  C    1.332130   3.101766   1.368592   2.176403   0.000000
     6  H    2.105430   4.085554   2.154391   2.631142   1.044009
     7  H    2.098677   2.502011   3.161632   4.132564   3.127482
     8  C    1.316550   2.068260   2.160249   3.167429   2.117566
     9  N    2.172834   0.983249   1.326353   2.114231   2.145576
                    6          7          8          9
     6  H    0.000000
     7  H    4.098677   0.000000
     8  C    3.123199   1.042804   0.000000
     9  N    3.157015   2.110438   1.334773   0.000000
 Stoichiometry    C3H4N2
 Framework group  CS[SG(C3H4N2)]
 Deg. of freedom   15
 Full point group                 CS      NOp   2
 Largest Abelian subgroup         CS      NOp   2
 Largest concise Abelian subgroup C1      NOp   1
                         Standard orientation:                         
 ---------------------------------------------------------------------
 Center     Atomic     Atomic              Coordinates (Angstroms)
 Number     Number      Type              X           Y           Z
 ---------------------------------------------------------------------
    1          7             0       -0.723056   -0.991012    0.000000
    2          1             0       -0.004107    2.041228    0.000000
    3          6             0        1.078661    0.286169    0.000000
    4          1             0        2.067532    0.616081    0.000000
    5          6             0        0.609048   -0.999330    0.000000
    6          1             0        1.192300   -1.865224    0.000000
    7          1             0       -2.065027    0.622542    0.000000
    8          6             0       -1.081563    0.275785    0.000000
    9          7             0        0.000000    1.057987    0.000000
 ---------------------------------------------------------------------
 Rotational constants (GHZ):     10.1819088      9.7568366      4.9824209
 Isotopes: N-14,H-1,C-12,H-1,C-12,H-1,H-1,C-12,N-14
 Standard basis: CEP-121G(d) (6D, 10F)
 There are    77 symmetry adapted basis functions of A'  symmetry.
 There are    25 symmetry adapted basis functions of A"  symmetry.
 Crude estimate of integral set expansion from redundant integrals=1.000.
 Integral buffers will be    262144 words long.
 Raffenetti 1 integral format.
 Two-electron integral symmetry is turned on.
   102 basis functions      130 primitive gaussians
    13 alpha electrons       13 beta electrons
       nuclear repulsion energy        86.5096320846 Hartrees.
 One-electron integrals computed using PRISM.
   1 Symmetry operations used in ECPInt.
 ECPInt:  NShTT=     528 NPrTT=    1052 LenC2=     529 LenP2D=     989.
 LDataN:  DoStor=F MaxTD1= 4 Len=   56
 LDataN:  DoStor=T MaxTD1= 4 Len=   56
 NBasis=   102 RedAO= T  NBF=    77    25
 NBsUse=   102 1.00D-04 NBFU=    77    25
 Initial guess read from the read-write file:
 Initial guess orbital symmetries:
       Occupied  (A') (A') (A') (A') (A') (A') (A') (A") (A') (A')
                 (A') (A") (A")
       Virtual   (A') (A') (A") (A') (A') (A") (A') (A') (A') (A')
                 (A") (A') (A') (A") (A') (A") (A') (A') (A') (A')
                 (A') (A') (A") (A') (A') (A') (A") (A') (A') (A')
                 (A') (A') (A') (A') (A') (A") (A') (A") (A") (A")
                 (A") (A') (A') (A') (A') (A') (A') (A') (A") (A')
                 (A") (A') (A") (A") (A') (A') (A') (A") (A') (A')
                 (A') (A') (A') (A') (A') (A') (A') (A') (A') (A")
                 (A") (A") (A') (A') (A') (A') (A') (A') (A") (A")
                 (A') (A') (A') (A') (A') (A') (A') (A') (A')
 Requested convergence on RMS density matrix=1.00D-08 within  64 cycles.
 Requested convergence on MAX density matrix=1.00D-06.
 Keep R1 integrals in memory in canonical form, NReq=    14379745.
 SCF Done:  E(RHF) =  -38.1376798438     A.U. after   13 cycles
             Convg  =    0.5912D-08             -V/T =  2.2656
             S**2   =   0.0000
 Range of M.O.s used for correlation:     1   102
 NBasis=   102 NAE=    13 NBE=    13 NFC=     0 NFV=     0
 NROrb=    102 NOA=    13 NOB=    13 NVA=    89 NVB=    89
 Fully direct method using O(ONN) memory.
 JobTyp=1 Pass  1:  I=   1 to  13.
 Spin components of T(2) and E(2):
     alpha-alpha T2 =       0.3260501097D-01 E2=     -0.9425346234D-01
     alpha-beta  T2 =       0.1727879064D+00 E2=     -0.5183398351D+00
     beta-beta   T2 =       0.3260501097D-01 E2=     -0.9425346234D-01
 ANorm=    0.1112653553D+01
 E2 =    -0.7068467597D+00 EUMP2 =    -0.38844526603536D+02
          Differentiating once with respect to electric field.
                with respect to dipole field.
          Differentiating once with respect to nuclear coordinates.
          Store integrals in memory, NReq=    14240150.
          There are   1 degrees of freedom in the 1st order CPHF.
   1 vectors were produced by pass  0.
 AX will form   1 AO Fock derivatives at one time.
   1 vectors were produced by pass  1.
   1 vectors were produced by pass  2.
   1 vectors were produced by pass  3.
   1 vectors were produced by pass  4.
   1 vectors were produced by pass  5.
   1 vectors were produced by pass  6.
   1 vectors were produced by pass  7.
   1 vectors were produced by pass  8.
   1 vectors were produced by pass  9.
   1 vectors were produced by pass 10.
   1 vectors were produced by pass 11.
   1 vectors were produced by pass 12.
   1 vectors were produced by pass 13.
   1 vectors were produced by pass 14.
 Inv2:  IOpt= 1 Iter= 1 AM= 2.65D-16 Conv= 1.00D-12.
 Inverted reduced A of dimension  15 with in-core refinement.
   2 Symmetry operations used in ECPInt.
 ECPInt:  NShTT=     528 NPrTT=    1052 LenC2=     529 LenP2D=     989.
 LDataN:  DoStor=F MaxTD1= 5 Len=  102
 LDataN:  DoStor=T MaxTD1= 5 Len=  102
 ***** Axes restored to original set *****
 -------------------------------------------------------------------
 Center     Atomic                   Forces (Hartrees/Bohr)
 Number     Number              X              Y              Z
 -------------------------------------------------------------------
    1          7           0.036612220    0.000000000    0.042655834
    2          1           0.006762939    0.000000000   -0.030303113
    3          6          -0.037821519    0.000000000    0.014653696
    4          1          -0.023407857    0.000000000   -0.022467259
    5          6          -0.016937151    0.000000000   -0.011512282
    6          1          -0.020170188    0.000000000    0.024464674
    7          1           0.031486479    0.000000000   -0.005758678
    8          6           0.005191836    0.000000000    0.018270278
    9          7           0.018283242    0.000000000   -0.030003150
 -------------------------------------------------------------------
 Cartesian Forces:  Max     0.042655834 RMS     0.020061420

 GradGradGradGradGradGradGradGradGradGradGradGradGradGradGradGradGradGrad
 Berny optimization.
 Internal  Forces:  Max     0.055276827 RMS     0.018945978
 Search for a local minimum.
 Step number   2 out of a maximum of  48
 All quantities printed in internal units (Hartrees-Bohrs-Radians)
 Update second derivatives using information from points  1  2
 Trust test= 2.24D+00 RLast= 3.00D-01 DXMaxT set to 4.24D-01
     Eigenvalues ---    0.03210   0.03262   0.03288   0.03314   0.03351
     Eigenvalues ---    0.03406   0.15930   0.16000   0.16000   0.16000
     Eigenvalues ---    0.22110   0.22836   0.49302   0.49604   0.51198
     Eigenvalues ---    0.55567   0.61181   0.64078   0.70072   0.74029
     Eigenvalues ---    0.758121000.000001000.000001000.000001000.00000
     Eigenvalues --- 1000.000001000.000001000.000001000.000001000.00000
     Eigenvalues --- 1000.000001000.000001000.000001000.000001000.00000
     Eigenvalues --- 1000.000001000.000001000.00000
 RFO step:  Lambda=-2.14103401D-03.
 Quartic linear search produced a step of  0.76083.
 Iteration  1 RMS(Cart)=  0.05272616 RMS(Int)=  0.00100046
 Iteration  2 RMS(Cart)=  0.00117965 RMS(Int)=  0.00008357
 Iteration  3 RMS(Cart)=  0.00000166 RMS(Int)=  0.00008356
 Iteration  4 RMS(Cart)=  0.00000000 RMS(Int)=  0.00008356
 Variable       Old X    -DE/DX   Delta X   Delta X   Delta X     New X
                                 (Linear)    (Quad)   (Total)
    R1        2.51736   0.05043   0.08192   0.00176   0.08359   2.60095
    R2        2.48792   0.02762   0.05040  -0.00545   0.04482   2.53274
    R3        1.85807   0.03104   0.06559  -0.00180   0.06379   1.92186
    R4        1.96995   0.03173   0.07637   0.00488   0.08125   2.05120
    R5        2.58626   0.03127   0.07078  -0.01035   0.06051   2.64677
    R6        2.50644   0.05528   0.08868   0.00369   0.09252   2.59896
    R7        1.97289   0.03142   0.07533   0.00617   0.08150   2.05439
    R8        1.97061   0.03192   0.07672   0.00511   0.08184   2.05245
    R9        2.52236   0.04536   0.08131  -0.00360   0.07772   2.60007
    A1        1.85283  -0.00241  -0.00384  -0.02848  -0.03260   1.82023
    A2        2.24306   0.00900   0.02516   0.04957   0.07462   2.31768
    A3        2.19850  -0.00438  -0.00572  -0.05026  -0.05609   2.14241
    A4        1.84162  -0.00462  -0.01944   0.00068  -0.01853   1.82309
    A5        1.91481   0.00587   0.01491   0.01772   0.03264   1.94745
    A6        2.16982  -0.00715  -0.01671  -0.04110  -0.05781   2.11200
    A7        2.19856   0.00129   0.00180   0.02338   0.02517   2.22374
    A8        2.18557   0.00021   0.00309   0.00404   0.00718   2.19275
    A9        1.92114   0.00425   0.00265   0.02958   0.03213   1.95327
   A10        2.17648  -0.00446  -0.00574  -0.03363  -0.03931   2.13717
   A11        2.19605   0.00106  -0.00395   0.00613   0.00210   2.19815
   A12        2.19276   0.00202  -0.00177   0.01338   0.01153   2.20429
   A13        1.89438  -0.00309   0.00573  -0.01951  -0.01363   1.88075
    D1        0.00000   0.00000   0.00000   0.00000   0.00000   0.00000
    D2        3.14159   0.00000   0.00000   0.00000   0.00000   3.14159
    D3        3.14159   0.00000   0.00000   0.00000   0.00000   3.14159
    D4        0.00000   0.00000   0.00000   0.00000   0.00000   0.00000
    D5        3.14159   0.00000   0.00000   0.00000   0.00000   3.14159
    D6        0.00000   0.00000   0.00000   0.00000   0.00000   0.00000
    D7        0.00000   0.00000   0.00000   0.00000   0.00000   0.00000
    D8        3.14159   0.00000   0.00000   0.00000   0.00000   3.14159
    D9        0.00000   0.00000   0.00000   0.00000   0.00000   0.00000
   D10        3.14159   0.00000   0.00000   0.00000   0.00000   3.14159
   D11        3.14159   0.00000   0.00000   0.00000   0.00000   3.14159
   D12        0.00000   0.00000   0.00000   0.00000   0.00000   0.00000
   D13        3.14159   0.00000   0.00000   0.00000   0.00000   3.14159
   D14        0.00000   0.00000   0.00000   0.00000   0.00000   0.00000
   D15        0.00000   0.00000   0.00000   0.00000   0.00000   0.00000
   D16        3.14159   0.00000   0.00000   0.00000   0.00000   3.14159
         Item               Value     Threshold  Converged?
 Maximum Force            0.055277     0.000450     NO 
 RMS     Force            0.018946     0.000300     NO 
 Maximum Displacement     0.156993     0.001800     NO 
 RMS     Displacement     0.052593     0.001200     NO 
 Predicted change in Energy=-1.837918D-02
 GradGradGradGradGradGradGradGradGradGradGradGradGradGradGradGradGradGrad

                          Input orientation:                          
 ---------------------------------------------------------------------
 Center     Atomic     Atomic              Coordinates (Angstroms)
 Number     Number      Type              X           Y           Z
 ---------------------------------------------------------------------
    1          7             0        0.498699    0.000000    1.183515
    2          1             0        0.490380    0.000000   -2.040993
    3          6             0       -1.025486    0.000000   -0.534339
    4          1             0       -1.913745    0.000000   -1.158196
    5          6             0       -0.837539    0.000000    0.853604
    6          1             0       -1.604615    0.000000    1.623967
    7          1             0        2.208099    0.000000   -0.139410
    8          6             0        1.131220    0.000000    0.001891
    9          7             0        0.248174    0.000000   -1.053253
 ---------------------------------------------------------------------
                    Distance matrix (angstroms):
                    1          2          3          4          5
     1  N    0.000000
     2  H    3.224519   0.000000
     3  C    2.296555   2.137255   0.000000
     4  H    3.362068   2.561083   1.085450   0.000000
     5  C    1.376363   3.184660   1.400610   2.281570   0.000000
     6  H    2.148937   4.221485   2.234653   2.799284   1.087136
     7  H    2.161522   2.562534   3.257614   4.245884   3.203434
     8  C    1.340268   2.141040   2.222369   3.258469   2.145094
     9  N    2.250754   1.017003   1.375311   2.164465   2.194282
                    6          7          8          9
     6  H    0.000000
     7  H    4.200749   0.000000
     8  C    3.180554   1.086110   0.000000
     9  N    3.255815   2.162503   1.375899   0.000000
 Stoichiometry    C3H4N2
 Framework group  CS[SG(C3H4N2)]
 Deg. of freedom   15
 Full point group                 CS      NOp   2
 Largest Abelian subgroup         CS      NOp   2
 Largest concise Abelian subgroup C1      NOp   1
                         Standard orientation:                         
 ---------------------------------------------------------------------
 Center     Atomic     Atomic              Coordinates (Angstroms)
 Number     Number      Type              X           Y           Z
 ---------------------------------------------------------------------
    1          7             0       -0.753972   -1.030218    0.000000
    2          1             0       -0.010592    2.107442    0.000000
    3          6             0        1.121778    0.294820    0.000000
    4          1             0        2.128892    0.699694    0.000000
    5          6             0        0.622292   -1.013699    0.000000
    6          1             0        1.193494   -1.938681    0.000000
    7          1             0       -2.116673    0.647646    0.000000
    8          6             0       -1.100385    0.264508    0.000000
    9          7             0        0.000000    1.090494    0.000000
 ---------------------------------------------------------------------
 Rotational constants (GHZ):      9.7287201      9.0994999      4.7017980
 Isotopes: N-14,H-1,C-12,H-1,C-12,H-1,H-1,C-12,N-14
 Standard basis: CEP-121G(d) (6D, 10F)
 There are    77 symmetry adapted basis functions of A'  symmetry.
 There are    25 symmetry adapted basis functions of A"  symmetry.
 Crude estimate of integral set expansion from redundant integrals=1.000.
 Integral buffers will be    262144 words long.
 Raffenetti 1 integral format.
 Two-electron integral symmetry is turned on.
   102 basis functions      130 primitive gaussians
    13 alpha electrons       13 beta electrons
       nuclear repulsion energy        83.9766014186 Hartrees.
 One-electron integrals computed using PRISM.
   1 Symmetry operations used in ECPInt.
 ECPInt:  NShTT=     528 NPrTT=    1052 LenC2=     528 LenP2D=     988.
 LDataN:  DoStor=F MaxTD1= 4 Len=   56
 LDataN:  DoStor=T MaxTD1= 4 Len=   56
 NBasis=   102 RedAO= T  NBF=    77    25
 NBsUse=   102 1.00D-04 NBFU=    77    25
 Initial guess read from the read-write file:
 Initial guess orbital symmetries:
       Occupied  (A') (A') (A') (A') (A') (A') (A') (A") (A') (A')
                 (A') (A") (A")
       Virtual   (A') (A") (A') (A') (A') (A") (A') (A') (A') (A')
                 (A") (A') (A') (A") (A') (A") (A') (A') (A') (A')
                 (A') (A') (A") (A') (A') (A') (A") (A') (A') (A')
                 (A') (A') (A') (A') (A') (A") (A") (A') (A") (A")
                 (A") (A') (A') (A') (A') (A') (A') (A') (A") (A')
                 (A") (A') (A") (A") (A') (A') (A') (A") (A') (A')
                 (A') (A') (A') (A') (A') (A') (A') (A') (A') (A")
                 (A") (A') (A") (A') (A') (A') (A') (A') (A") (A")
                 (A') (A') (A') (A') (A') (A') (A') (A') (A')
 Requested convergence on RMS density matrix=1.00D-08 within  64 cycles.
 Requested convergence on MAX density matrix=1.00D-06.
 Keep R1 integrals in memory in canonical form, NReq=    14379745.
 SCF Done:  E(RHF) =  -38.1402613472     A.U. after   13 cycles
             Convg  =    0.5114D-08             -V/T =  2.2976
             S**2   =   0.0000
 Range of M.O.s used for correlation:     1   102
 NBasis=   102 NAE=    13 NBE=    13 NFC=     0 NFV=     0
 NROrb=    102 NOA=    13 NOB=    13 NVA=    89 NVB=    89
 Fully direct method using O(ONN) memory.
 JobTyp=1 Pass  1:  I=   1 to  13.
 Spin components of T(2) and E(2):
     alpha-alpha T2 =       0.3399474053D-01 E2=     -0.9501543689D-01
     alpha-beta  T2 =       0.1826585070D+00 E2=     -0.5273191895D+00
     beta-beta   T2 =       0.3399474053D-01 E2=     -0.9501543689D-01
 ANorm=    0.1118323740D+01
 E2 =    -0.7173500633D+00 EUMP2 =    -0.38857611410505D+02
          Differentiating once with respect to electric field.
                with respect to dipole field.
          Differentiating once with respect to nuclear coordinates.
          Store integrals in memory, NReq=    14240150.
          There are   1 degrees of freedom in the 1st order CPHF.
   1 vectors were produced by pass  0.
 AX will form   1 AO Fock derivatives at one time.
   1 vectors were produced by pass  1.
   1 vectors were produced by pass  2.
   1 vectors were produced by pass  3.
   1 vectors were produced by pass  4.
   1 vectors were produced by pass  5.
   1 vectors were produced by pass  6.
   1 vectors were produced by pass  7.
   1 vectors were produced by pass  8.
   1 vectors were produced by pass  9.
   1 vectors were produced by pass 10.
   1 vectors were produced by pass 11.
   1 vectors were produced by pass 12.
   1 vectors were produced by pass 13.
   1 vectors were produced by pass 14.
 Inv2:  IOpt= 1 Iter= 1 AM= 6.89D-16 Conv= 1.00D-12.
 Inverted reduced A of dimension  15 with in-core refinement.
   2 Symmetry operations used in ECPInt.
 ECPInt:  NShTT=     528 NPrTT=    1052 LenC2=     528 LenP2D=     988.
 LDataN:  DoStor=F MaxTD1= 5 Len=  102
 LDataN:  DoStor=T MaxTD1= 5 Len=  102
 ***** Axes restored to original set *****
 -------------------------------------------------------------------
 Center     Atomic                   Forces (Hartrees/Bohr)
 Number     Number              X              Y              Z
 -------------------------------------------------------------------
    1          7           0.005774197    0.000000000   -0.006470386
    2          1          -0.000226545    0.000000000    0.002453963
    3          6          -0.007399290    0.000000000    0.009391926
    4          1           0.002320708    0.000000000    0.001607549
    5          6          -0.012793264    0.000000000   -0.003482348
    6          1           0.001637555    0.000000000   -0.002022913
    7          1          -0.002029711    0.000000000    0.000098398
    8          6           0.005587194    0.000000000    0.002070346
    9          7           0.007129156    0.000000000   -0.003646535
 -------------------------------------------------------------------
 Cartesian Forces:  Max     0.012793264 RMS     0.004382333

 GradGradGradGradGradGradGradGradGradGradGradGradGradGradGradGradGradGrad
 Berny optimization.
 Internal  Forces:  Max     0.009017594 RMS     0.002756382
 Search for a local minimum.
 Step number   3 out of a maximum of  48
 All quantities printed in internal units (Hartrees-Bohrs-Radians)
 Update second derivatives using information from points  1  2  3
 Trust test= 7.12D-01 RLast= 2.63D-01 DXMaxT set to 4.24D-01
     Eigenvalues ---    0.03205   0.03260   0.03287   0.03303   0.03349
     Eigenvalues ---    0.03404   0.15562   0.16000   0.16000   0.16003
     Eigenvalues ---    0.22109   0.23391   0.46163   0.49337   0.49613
     Eigenvalues ---    0.55763   0.59200   0.64128   0.65382   0.71559
     Eigenvalues ---    0.747231000.000001000.000001000.000001000.00000
     Eigenvalues --- 1000.000001000.000001000.000001000.000001000.00000
     Eigenvalues --- 1000.000001000.000001000.000001000.000001000.00000
     Eigenvalues --- 1000.000001000.000001000.00000
 RFO step:  Lambda=-5.66154312D-04.
 Quartic linear search produced a step of -0.02136.
 Iteration  1 RMS(Cart)=  0.00687899 RMS(Int)=  0.00002842
 Iteration  2 RMS(Cart)=  0.00002702 RMS(Int)=  0.00000497
 Iteration  3 RMS(Cart)=  0.00000000 RMS(Int)=  0.00000497
 Variable       Old X    -DE/DX   Delta X   Delta X   Delta X     New X
                                 (Linear)    (Quad)   (Total)
    R1        2.60095   0.00725  -0.00179   0.01228   0.01051   2.61146
    R2        2.53274  -0.00297  -0.00096  -0.00255  -0.00350   2.52924
    R3        1.92186  -0.00244  -0.00136  -0.00176  -0.00313   1.91873
    R4        2.05120  -0.00282  -0.00174  -0.00290  -0.00463   2.04657
    R5        2.64677  -0.00781  -0.00129  -0.01015  -0.01144   2.63533
    R6        2.59896   0.00902  -0.00198   0.01465   0.01267   2.61163
    R7        2.05439  -0.00259  -0.00174  -0.00248  -0.00422   2.05017
    R8        2.05245  -0.00203  -0.00175  -0.00130  -0.00305   2.04940
    R9        2.60007  -0.00092  -0.00166   0.00152  -0.00014   2.59993
    A1        1.82023   0.00486   0.00070   0.01785   0.01856   1.83879
    A2        2.31768  -0.00043  -0.00159  -0.00065  -0.00224   2.31544
    A3        2.14241  -0.00047   0.00120  -0.00401  -0.00281   2.13960
    A4        1.82309   0.00091   0.00040   0.00466   0.00506   1.82814
    A5        1.94745  -0.00314  -0.00070  -0.01281  -0.01349   1.93395
    A6        2.11200   0.00184   0.00123   0.00709   0.00832   2.12032
    A7        2.22374   0.00130  -0.00054   0.00572   0.00518   2.22892
    A8        2.19275   0.00192  -0.00015   0.00879   0.00864   2.20139
    A9        1.95327  -0.00349  -0.00069  -0.01439  -0.01508   1.93819
   A10        2.13717   0.00157   0.00084   0.00560   0.00644   2.14361
   A11        2.19815  -0.00008  -0.00004  -0.00031  -0.00035   2.19780
   A12        2.20429  -0.00078  -0.00025  -0.00437  -0.00461   2.19968
   A13        1.88075   0.00086   0.00029   0.00468   0.00496   1.88571
    D1        0.00000   0.00000   0.00000   0.00000   0.00000   0.00000
    D2        3.14159   0.00000   0.00000   0.00000   0.00000   3.14159
    D3        3.14159   0.00000   0.00000   0.00000   0.00000   3.14159
    D4        0.00000   0.00000   0.00000   0.00000   0.00000   0.00000
    D5        3.14159   0.00000   0.00000   0.00000   0.00000   3.14159
    D6        0.00000   0.00000   0.00000   0.00000   0.00000   0.00000
    D7        0.00000   0.00000   0.00000   0.00000   0.00000   0.00000
    D8        3.14159   0.00000   0.00000   0.00000   0.00000   3.14159
    D9        0.00000   0.00000   0.00000   0.00000   0.00000   0.00000
   D10        3.14159   0.00000   0.00000   0.00000   0.00000   3.14159
   D11        3.14159   0.00000   0.00000   0.00000   0.00000   3.14159
   D12        0.00000   0.00000   0.00000   0.00000   0.00000   0.00000
   D13        3.14159   0.00000   0.00000   0.00000   0.00000   3.14159
   D14        0.00000   0.00000   0.00000   0.00000   0.00000   0.00000
   D15        0.00000   0.00000   0.00000   0.00000   0.00000   0.00000
   D16        3.14159   0.00000   0.00000   0.00000   0.00000   3.14159
         Item               Value     Threshold  Converged?
 Maximum Force            0.009018     0.000450     NO 
 RMS     Force            0.002756     0.000300     NO 
 Maximum Displacement     0.020253     0.001800     NO 
 RMS     Displacement     0.006876     0.001200     NO 
 Predicted change in Energy=-2.891138D-04
 GradGradGradGradGradGradGradGradGradGradGradGradGradGradGradGradGradGrad

                          Input orientation:                          
 ---------------------------------------------------------------------
 Center     Atomic     Atomic              Coordinates (Angstroms)
 Number     Number      Type              X           Y           Z
 ---------------------------------------------------------------------
    1          7             0        0.498026    0.000000    1.164286
    2          1             0        0.492208    0.000000   -2.046158
    3          6             0       -1.027893    0.000000   -0.537253
    4          1             0       -1.912903    0.000000   -1.161469
    5          6             0       -0.846619    0.000000    0.845472
    6          1             0       -1.611397    0.000000    1.614971
    7          1             0        2.215998    0.000000   -0.150151
    8          6             0        1.140627    0.000000   -0.009774
    9          7             0        0.251549    0.000000   -1.059742
 ---------------------------------------------------------------------
                    Distance matrix (angstroms):
                    1          2          3          4          5
     1  N    0.000000
     2  H    3.210449   0.000000
     3  C    2.285533   2.141846   0.000000
     4  H    3.349882   2.562662   1.082999   0.000000
     5  C    1.381923   3.186531   1.394557   2.272614   0.000000
     6  H    2.157031   4.222443   2.229920   2.792763   1.084903
     7  H    2.163140   2.562478   3.266907   4.250952   3.220386
     8  C    1.338414   2.137126   2.231751   3.263502   2.163467
     9  N    2.237644   1.015349   1.382016   2.166842   2.199048
                    6          7          8          9
     6  H    0.000000
     7  H    4.214808   0.000000
     8  C    3.195846   1.084495   0.000000
     9  N    3.259549   2.164813   1.375824   0.000000
 Stoichiometry    C3H4N2
 Framework group  CS[SG(C3H4N2)]
 Deg. of freedom   15
 Full point group                 CS      NOp   2
 Largest Abelian subgroup         CS      NOp   2
 Largest concise Abelian subgroup C1      NOp   1
                         Standard orientation:                         
 ---------------------------------------------------------------------
 Center     Atomic     Atomic              Coordinates (Angstroms)
 Number     Number      Type              X           Y           Z
 ---------------------------------------------------------------------
    1          7             0       -0.754180   -1.018482    0.000000
    2          1             0       -0.005989    2.103568    0.000000
    3          6             0        1.123907    0.283997    0.000000
    4          1             0        2.129293    0.686597    0.000000
    5          6             0        0.627743   -1.019310    0.000000
    6          1             0        1.193810   -1.944827    0.000000
    7          1             0       -2.121560    0.657659    0.000000
    8          6             0       -1.107814    0.272369    0.000000
    9          7             0        0.000000    1.088237    0.000000
 ---------------------------------------------------------------------
 Rotational constants (GHZ):      9.6046079      9.1983464      4.6985441
 Isotopes: N-14,H-1,C-12,H-1,C-12,H-1,H-1,C-12,N-14
 Standard basis: CEP-121G(d) (6D, 10F)
 There are    77 symmetry adapted basis functions of A'  symmetry.
 There are    25 symmetry adapted basis functions of A"  symmetry.
 Crude estimate of integral set expansion from redundant integrals=1.000.
 Integral buffers will be    262144 words long.
 Raffenetti 1 integral format.
 Two-electron integral symmetry is turned on.
   102 basis functions      130 primitive gaussians
    13 alpha electrons       13 beta electrons
       nuclear repulsion energy        83.9506770471 Hartrees.
 One-electron integrals computed using PRISM.
   1 Symmetry operations used in ECPInt.
 ECPInt:  NShTT=     528 NPrTT=    1052 LenC2=     528 LenP2D=     988.
 LDataN:  DoStor=F MaxTD1= 4 Len=   56
 LDataN:  DoStor=T MaxTD1= 4 Len=   56
 NBasis=   102 RedAO= T  NBF=    77    25
 NBsUse=   102 1.00D-04 NBFU=    77    25
 Initial guess read from the read-write file:
 Initial guess orbital symmetries:
       Occupied  (A') (A') (A') (A') (A') (A') (A') (A') (A") (A')
                 (A') (A") (A")
       Virtual   (A') (A") (A') (A') (A') (A") (A') (A') (A') (A')
                 (A') (A") (A') (A') (A") (A') (A") (A') (A') (A')
                 (A') (A') (A') (A") (A') (A') (A') (A") (A') (A')
                 (A') (A') (A') (A') (A') (A") (A") (A") (A') (A")
                 (A") (A') (A') (A') (A') (A') (A') (A') (A') (A")
                 (A") (A") (A') (A") (A') (A') (A') (A") (A') (A')
                 (A') (A') (A') (A') (A') (A') (A') (A') (A') (A")
                 (A") (A') (A") (A') (A') (A') (A') (A') (A") (A")
                 (A') (A') (A') (A') (A') (A') (A') (A') (A')
 Requested convergence on RMS density matrix=1.00D-08 within  64 cycles.
 Requested convergence on MAX density matrix=1.00D-06.
 Keep R1 integrals in memory in canonical form, NReq=    14379745.
 SCF Done:  E(RHF) =  -38.1409583146     A.U. after   11 cycles
             Convg  =    0.2306D-08             -V/T =  2.2975
             S**2   =   0.0000
 Range of M.O.s used for correlation:     1   102
 NBasis=   102 NAE=    13 NBE=    13 NFC=     0 NFV=     0
 NROrb=    102 NOA=    13 NOB=    13 NVA=    89 NVB=    89

 **** Warning!!: The largest alpha MO coefficient is  0.10143080D+02

 Fully direct method using O(ONN) memory.
 JobTyp=1 Pass  1:  I=   1 to  13.
 Spin components of T(2) and E(2):
     alpha-alpha T2 =       0.3394454622D-01 E2=     -0.9491784086D-01
     alpha-beta  T2 =       0.1824682452D+00 E2=     -0.5270822783D+00
     beta-beta   T2 =       0.3394454622D-01 E2=     -0.9491784086D-01
 ANorm=    0.1118193784D+01
 E2 =    -0.7169179600D+00 EUMP2 =    -0.38857876274639D+02
          Differentiating once with respect to electric field.
                with respect to dipole field.
          Differentiating once with respect to nuclear coordinates.
          Store integrals in memory, NReq=    14240150.
          There are   1 degrees of freedom in the 1st order CPHF.
   1 vectors were produced by pass  0.
 AX will form   1 AO Fock derivatives at one time.
   1 vectors were produced by pass  1.
   1 vectors were produced by pass  2.
   1 vectors were produced by pass  3.
   1 vectors were produced by pass  4.
   1 vectors were produced by pass  5.
   1 vectors were produced by pass  6.
   1 vectors were produced by pass  7.
   1 vectors were produced by pass  8.
   1 vectors were produced by pass  9.
   1 vectors were produced by pass 10.
   1 vectors were produced by pass 11.
   1 vectors were produced by pass 12.
   1 vectors were produced by pass 13.
   1 vectors were produced by pass 14.
 Inv2:  IOpt= 1 Iter= 1 AM= 2.62D-16 Conv= 1.00D-12.
 Inverted reduced A of dimension  15 with in-core refinement.
   2 Symmetry operations used in ECPInt.
 ECPInt:  NShTT=     528 NPrTT=    1052 LenC2=     528 LenP2D=     988.
 LDataN:  DoStor=F MaxTD1= 5 Len=  102
 LDataN:  DoStor=T MaxTD1= 5 Len=  102
 ***** Axes restored to original set *****
 -------------------------------------------------------------------
 Center     Atomic                   Forces (Hartrees/Bohr)
 Number     Number              X              Y              Z
 -------------------------------------------------------------------
    1          7           0.004831572    0.000000000    0.001076704
    2          1          -0.000649572    0.000000000    0.000665715
    3          6          -0.002331114    0.000000000    0.003681990
    4          1           0.001076318    0.000000000    0.000122798
    5          6          -0.002475102    0.000000000   -0.004173401
    6          1           0.001378193    0.000000000   -0.000616795
    7          1          -0.001158043    0.000000000    0.000252867
    8          6          -0.003713026    0.000000000    0.002699193
    9          7           0.003040774    0.000000000   -0.003709071
 -------------------------------------------------------------------
 Cartesian Forces:  Max     0.004831572 RMS     0.002080217

 GradGradGradGradGradGradGradGradGradGradGradGradGradGradGradGradGradGrad
 Berny optimization.
 Internal  Forces:  Max     0.002559643 RMS     0.001080739
 Search for a local minimum.
 Step number   4 out of a maximum of  48
 All quantities printed in internal units (Hartrees-Bohrs-Radians)
 Update second derivatives using information from points  1  2  3  4
 Trust test= 9.16D-01 RLast= 3.90D-02 DXMaxT set to 4.24D-01
     Eigenvalues ---    0.03205   0.03261   0.03287   0.03303   0.03350
     Eigenvalues ---    0.03404   0.15361   0.15999   0.16000   0.16065
     Eigenvalues ---    0.21754   0.34654   0.45396   0.48888   0.49663
     Eigenvalues ---    0.49801   0.56906   0.60040   0.64599   0.67794
     Eigenvalues ---    0.763591000.000001000.000001000.000001000.00000
     Eigenvalues --- 1000.000001000.000001000.000001000.000001000.00000
     Eigenvalues --- 1000.000001000.000001000.000001000.000001000.00000
     Eigenvalues --- 1000.000001000.000001000.00000
 RFO step:  Lambda=-1.07013911D-04.
 Quartic linear search produced a step of -0.07458.
 Iteration  1 RMS(Cart)=  0.00238977 RMS(Int)=  0.00000419
 Iteration  2 RMS(Cart)=  0.00000429 RMS(Int)=  0.00000232
 Iteration  3 RMS(Cart)=  0.00000000 RMS(Int)=  0.00000232
 Variable       Old X    -DE/DX   Delta X   Delta X   Delta X     New X
                                 (Linear)    (Quad)   (Total)
    R1        2.61146   0.00207  -0.00078   0.00572   0.00494   2.61639
    R2        2.52924  -0.00256   0.00026  -0.00400  -0.00374   2.52550
    R3        1.91873  -0.00080   0.00023  -0.00160  -0.00137   1.91736
    R4        2.04657  -0.00095   0.00035  -0.00244  -0.00209   2.04448
    R5        2.63533  -0.00248   0.00085  -0.00612  -0.00527   2.63006
    R6        2.61163   0.00116  -0.00094   0.00538   0.00444   2.61607
    R7        2.05017  -0.00141   0.00031  -0.00321  -0.00290   2.04727
    R8        2.04940  -0.00118   0.00023  -0.00245  -0.00222   2.04717
    R9        2.59993   0.00031   0.00001   0.00088   0.00090   2.60083
    A1        1.83879  -0.00208  -0.00138  -0.00404  -0.00543   1.83336
    A2        2.31544   0.00059   0.00017   0.00269   0.00286   2.31830
    A3        2.13960  -0.00048   0.00021  -0.00389  -0.00368   2.13592
    A4        1.82814  -0.00011  -0.00038   0.00121   0.00082   1.82897
    A5        1.93395   0.00137   0.00101   0.00210   0.00310   1.93705
    A6        2.12032  -0.00124  -0.00062  -0.00393  -0.00455   2.11577
    A7        2.22892  -0.00013  -0.00039   0.00183   0.00145   2.23036
    A8        2.20139  -0.00130  -0.00064  -0.00304  -0.00368   2.19771
    A9        1.93819   0.00239   0.00112   0.00552   0.00665   1.94484
   A10        2.14361  -0.00109  -0.00048  -0.00248  -0.00297   2.14064
   A11        2.19780   0.00033   0.00003   0.00032   0.00034   2.19814
   A12        2.19968   0.00124   0.00034   0.00446   0.00481   2.20449
   A13        1.88571  -0.00157  -0.00037  -0.00478  -0.00515   1.88056
    D1        0.00000   0.00000   0.00000   0.00000   0.00000   0.00000
    D2        3.14159   0.00000   0.00000   0.00000   0.00000   3.14159
    D3        3.14159   0.00000   0.00000   0.00000   0.00000   3.14159
    D4        0.00000   0.00000   0.00000   0.00000   0.00000   0.00000
    D5        3.14159   0.00000   0.00000   0.00000   0.00000   3.14159
    D6        0.00000   0.00000   0.00000   0.00000   0.00000   0.00000
    D7        0.00000   0.00000   0.00000   0.00000   0.00000   0.00000
    D8        3.14159   0.00000   0.00000   0.00000   0.00000   3.14159
    D9        0.00000   0.00000   0.00000   0.00000   0.00000   0.00000
   D10        3.14159   0.00000   0.00000   0.00000   0.00000   3.14159
   D11        3.14159   0.00000   0.00000   0.00000   0.00000   3.14159
   D12        0.00000   0.00000   0.00000   0.00000   0.00000   0.00000
   D13        3.14159   0.00000   0.00000   0.00000   0.00000   3.14159
   D14        0.00000   0.00000   0.00000   0.00000   0.00000   0.00000
   D15        0.00000   0.00000   0.00000   0.00000   0.00000   0.00000
   D16        3.14159   0.00000   0.00000   0.00000   0.00000   3.14159
         Item               Value     Threshold  Converged?
 Maximum Force            0.002560     0.000450     NO 
 RMS     Force            0.001081     0.000300     NO 
 Maximum Displacement     0.007027     0.001800     NO 
 RMS     Displacement     0.002391     0.001200     NO 
 Predicted change in Energy=-5.522219D-05
 GradGradGradGradGradGradGradGradGradGradGradGradGradGradGradGradGradGrad

                          Input orientation:                          
 ---------------------------------------------------------------------
 Center     Atomic     Atomic              Coordinates (Angstroms)
 Number     Number      Type              X           Y           Z
 ---------------------------------------------------------------------
    1          7             0        0.500286    0.000000    1.167065
    2          1             0        0.491502    0.000000   -2.046736
    3          6             0       -1.028341    0.000000   -0.535113
    4          1             0       -1.911222    0.000000   -1.160423
    5          6             0       -0.846194    0.000000    0.844682
    6          1             0       -1.608087    0.000000    1.614881
    7          1             0        2.212424    0.000000   -0.147053
    8          6             0        1.138155    0.000000   -0.007322
    9          7             0        0.252375    0.000000   -1.060693
 ---------------------------------------------------------------------
                    Distance matrix (angstroms):
                    1          2          3          4          5
     1  N    0.000000
     2  H    3.213813   0.000000
     3  C    2.287818   2.143578   0.000000
     4  H    3.351503   2.560983   1.081892   0.000000
     5  C    1.384536   3.185864   1.391766   2.270403   0.000000
     6  H    2.155406   4.220866   2.226787   2.791809   1.083368
     7  H    2.158315   2.563273   3.263916   4.246337   3.215382
     8  C    1.336436   2.139479   2.229858   3.260114   2.159526
     9  N    2.241510   1.014624   1.384365   2.165894   2.199388
                    6          7          8          9
     6  H    0.000000
     7  H    4.207222   0.000000
     8  C    3.189575   1.083318   0.000000
     9  N    3.258836   2.162529   1.376298   0.000000
 Stoichiometry    C3H4N2
 Framework group  CS[SG(C3H4N2)]
 Deg. of freedom   15
 Full point group                 CS      NOp   2
 Largest Abelian subgroup         CS      NOp   2
 Largest concise Abelian subgroup C1      NOp   1
                         Standard orientation:                         
 ---------------------------------------------------------------------
 Center     Atomic     Atomic              Coordinates (Angstroms)
 Number     Number      Type              X           Y           Z
 ---------------------------------------------------------------------
    1          7             0       -0.756642   -1.019604    0.000000
    2          1             0       -0.004488    2.104954    0.000000
    3          6             0        1.124353    0.282690    0.000000
    4          1             0        2.127960    0.686750    0.000000
    5          6             0        0.627892   -1.017517    0.000000
    6          1             0        1.190902   -1.943102    0.000000
    7          1             0       -2.118258    0.655008    0.000000
    8          6             0       -1.105472    0.270505    0.000000
    9          7             0        0.000000    1.090339    0.000000
 ---------------------------------------------------------------------
 Rotational constants (GHZ):      9.6206389      9.1829683      4.6983550
 Isotopes: N-14,H-1,C-12,H-1,C-12,H-1,H-1,C-12,N-14
 Standard basis: CEP-121G(d) (6D, 10F)
 There are    77 symmetry adapted basis functions of A'  symmetry.
 There are    25 symmetry adapted basis functions of A"  symmetry.
 Crude estimate of integral set expansion from redundant integrals=1.000.
 Integral buffers will be    262144 words long.
 Raffenetti 1 integral format.
 Two-electron integral symmetry is turned on.
   102 basis functions      130 primitive gaussians
    13 alpha electrons       13 beta electrons
       nuclear repulsion energy        83.9570502693 Hartrees.
 One-electron integrals computed using PRISM.
   1 Symmetry operations used in ECPInt.
 ECPInt:  NShTT=     528 NPrTT=    1052 LenC2=     528 LenP2D=     988.
 LDataN:  DoStor=F MaxTD1= 4 Len=   56
 LDataN:  DoStor=T MaxTD1= 4 Len=   56
 NBasis=   102 RedAO= T  NBF=    77    25
 NBsUse=   102 1.00D-04 NBFU=    77    25
 Initial guess read from the read-write file:
 Initial guess orbital symmetries:
       Occupied  (A') (A') (A') (A') (A') (A') (A') (A') (A") (A')
                 (A') (A") (A")
       Virtual   (A') (A") (A') (A') (A') (A") (A') (A') (A') (A')
                 (A') (A") (A') (A') (A") (A') (A") (A') (A') (A')
                 (A') (A') (A') (A") (A') (A') (A') (A") (A') (A')
                 (A') (A') (A') (A') (A') (A") (A") (A") (A') (A")
                 (A") (A') (A') (A') (A') (A') (A') (A') (A') (A")
                 (A") (A") (A') (A") (A') (A') (A') (A") (A') (A')
                 (A') (A') (A') (A') (A') (A') (A') (A') (A') (A")
                 (A") (A') (A") (A') (A') (A') (A') (A') (A") (A")
                 (A') (A') (A') (A') (A') (A') (A') (A') (A')
 Requested convergence on RMS density matrix=1.00D-08 within  64 cycles.
 Requested convergence on MAX density matrix=1.00D-06.
 Keep R1 integrals in memory in canonical form, NReq=    14379745.
 SCF Done:  E(RHF) =  -38.1413129429     A.U. after   11 cycles
             Convg  =    0.5872D-08             -V/T =  2.2972
             S**2   =   0.0000
 Range of M.O.s used for correlation:     1   102
 NBasis=   102 NAE=    13 NBE=    13 NFC=     0 NFV=     0
 NROrb=    102 NOA=    13 NOB=    13 NVA=    89 NVB=    89

 **** Warning!!: The largest alpha MO coefficient is  0.10023220D+02

 Fully direct method using O(ONN) memory.
 JobTyp=1 Pass  1:  I=   1 to  13.
 Spin components of T(2) and E(2):
     alpha-alpha T2 =       0.3389797443D-01 E2=     -0.9485436029D-01
     alpha-beta  T2 =       0.1822985226D+00 E2=     -0.5269272527D+00
     beta-beta   T2 =       0.3389797443D-01 E2=     -0.9485436029D-01
 ANorm=    0.1118076237D+01
 E2 =    -0.7166359733D+00 EUMP2 =    -0.38857948916135D+02
          Differentiating once with respect to electric field.
                with respect to dipole field.
          Differentiating once with respect to nuclear coordinates.
          Store integrals in memory, NReq=    14240150.
          There are   1 degrees of freedom in the 1st order CPHF.
   1 vectors were produced by pass  0.
 AX will form   1 AO Fock derivatives at one time.
   1 vectors were produced by pass  1.
   1 vectors were produced by pass  2.
   1 vectors were produced by pass  3.
   1 vectors were produced by pass  4.
   1 vectors were produced by pass  5.
   1 vectors were produced by pass  6.
   1 vectors were produced by pass  7.
   1 vectors were produced by pass  8.
   1 vectors were produced by pass  9.
   1 vectors were produced by pass 10.
   1 vectors were produced by pass 11.
   1 vectors were produced by pass 12.
   1 vectors were produced by pass 13.
   1 vectors were produced by pass 14.
 Inv2:  IOpt= 1 Iter= 1 AM= 3.48D-16 Conv= 1.00D-12.
 Inverted reduced A of dimension  15 with in-core refinement.
   2 Symmetry operations used in ECPInt.
 ECPInt:  NShTT=     528 NPrTT=    1052 LenC2=     528 LenP2D=     988.
 LDataN:  DoStor=F MaxTD1= 5 Len=  102
 LDataN:  DoStor=T MaxTD1= 5 Len=  102
 ***** Axes restored to original set *****
 -------------------------------------------------------------------
 Center     Atomic                   Forces (Hartrees/Bohr)
 Number     Number              X              Y              Z
 -------------------------------------------------------------------
    1          7           0.001966881    0.000000000    0.000007195
    2          1          -0.000234522    0.000000000    0.000235738
    3          6          -0.000523159    0.000000000    0.001398173
    4          1           0.000216695    0.000000000   -0.000035046
    5          6          -0.001266336    0.000000000   -0.001714489
    6          1           0.000370650    0.000000000   -0.000037608
    7          1          -0.000169635    0.000000000    0.000022832
    8          6          -0.001551181    0.000000000    0.000863408
    9          7           0.001190606    0.000000000   -0.000740202
 -------------------------------------------------------------------
 Cartesian Forces:  Max     0.001966881 RMS     0.000771825

 GradGradGradGradGradGradGradGradGradGradGradGradGradGradGradGradGradGrad
 Berny optimization.
 Internal  Forces:  Max     0.001098015 RMS     0.000373677
 Search for a local minimum.
 Step number   5 out of a maximum of  48
 All quantities printed in internal units (Hartrees-Bohrs-Radians)
 Update second derivatives using information from points  1  2  3  4  5

 Trust test= 1.32D+00 RLast= 1.75D-02 DXMaxT set to 4.24D-01
     Eigenvalues ---    0.03204   0.03261   0.03287   0.03303   0.03350
     Eigenvalues ---    0.03404   0.14446   0.15935   0.16000   0.16023
     Eigenvalues ---    0.21335   0.28582   0.42005   0.48681   0.49545
     Eigenvalues ---    0.49715   0.56667   0.59726   0.64870   0.66898
     Eigenvalues ---    0.758911000.000001000.000001000.000001000.00000
     Eigenvalues --- 1000.000001000.000001000.000001000.000001000.00000
     Eigenvalues --- 1000.000001000.000001000.000001000.000001000.00000
     Eigenvalues --- 1000.000001000.000001000.00000
 RFO step:  Lambda=-2.75941535D-06.
 Quartic linear search produced a step of  0.45949.
 Iteration  1 RMS(Cart)=  0.00099994 RMS(Int)=  0.00000169
 Iteration  2 RMS(Cart)=  0.00000102 RMS(Int)=  0.00000144
 Iteration  3 RMS(Cart)=  0.00000000 RMS(Int)=  0.00000144
 Variable       Old X    -DE/DX   Delta X   Delta X   Delta X     New X
                                 (Linear)    (Quad)   (Total)
    R1        2.61639   0.00103   0.00227   0.00118   0.00344   2.61984
    R2        2.52550  -0.00110  -0.00172  -0.00083  -0.00254   2.52295
    R3        1.91736  -0.00028  -0.00063  -0.00012  -0.00075   1.91661
    R4        2.04448  -0.00016  -0.00096   0.00036  -0.00060   2.04388
    R5        2.63006  -0.00107  -0.00242  -0.00088  -0.00331   2.62675
    R6        2.61607   0.00039   0.00204   0.00032   0.00236   2.61843
    R7        2.04727  -0.00029  -0.00133   0.00035  -0.00098   2.04629
    R8        2.04717  -0.00017  -0.00102   0.00052  -0.00050   2.04667
    R9        2.60083  -0.00025   0.00041  -0.00070  -0.00028   2.60055
    A1        1.83336  -0.00055  -0.00249   0.00042  -0.00207   1.83129
    A2        2.31830   0.00018   0.00131   0.00016   0.00147   2.31977
    A3        2.13592  -0.00013  -0.00169  -0.00015  -0.00184   2.13409
    A4        1.82897  -0.00005   0.00038  -0.00001   0.00037   1.82933
    A5        1.93705   0.00025   0.00142  -0.00053   0.00089   1.93794
    A6        2.11577  -0.00037  -0.00209  -0.00059  -0.00268   2.11309
    A7        2.23036   0.00012   0.00067   0.00112   0.00179   2.23215
    A8        2.19771  -0.00034  -0.00169   0.00045  -0.00125   2.19646
    A9        1.94484   0.00068   0.00306  -0.00032   0.00273   1.94757
   A10        2.14064  -0.00034  -0.00136  -0.00012  -0.00149   2.13915
   A11        2.19814  -0.00001   0.00016  -0.00058  -0.00043   2.19771
   A12        2.20449   0.00032   0.00221   0.00014   0.00235   2.20683
   A13        1.88056  -0.00032  -0.00236   0.00044  -0.00192   1.87864
    D1        0.00000   0.00000   0.00000   0.00000   0.00000   0.00000
    D2        3.14159   0.00000   0.00000   0.00000   0.00000   3.14159
    D3        3.14159   0.00000   0.00000   0.00000   0.00000   3.14159
    D4        0.00000   0.00000   0.00000   0.00000   0.00000   0.00000
    D5        3.14159   0.00000   0.00000   0.00000   0.00000   3.14159
    D6        0.00000   0.00000   0.00000   0.00000   0.00000   0.00000
    D7        0.00000   0.00000   0.00000   0.00000   0.00000   0.00000
    D8        3.14159   0.00000   0.00000   0.00000   0.00000   3.14159
    D9        0.00000   0.00000   0.00000   0.00000   0.00000   0.00000
   D10        3.14159   0.00000   0.00000   0.00000   0.00000   3.14159
   D11        3.14159   0.00000   0.00000   0.00000   0.00000   3.14159
   D12        0.00000   0.00000   0.00000   0.00000   0.00000   0.00000
   D13        3.14159   0.00000   0.00000   0.00000   0.00000   3.14159
   D14        0.00000   0.00000   0.00000   0.00000   0.00000   0.00000
   D15        0.00000   0.00000   0.00000   0.00000   0.00000   0.00000
   D16        3.14159   0.00000   0.00000   0.00000   0.00000   3.14159
         Item               Value     Threshold  Converged?
 Maximum Force            0.001098     0.000450     NO 
 RMS     Force            0.000374     0.000300     NO 
 Maximum Displacement     0.002654     0.001800     NO 
 RMS     Displacement     0.001000     0.001200     YES
 Predicted change in Energy=-9.366188D-06
 GradGradGradGradGradGradGradGradGradGradGradGradGradGradGradGradGradGrad

                          Input orientation:                          
 ---------------------------------------------------------------------
 Center     Atomic     Atomic              Coordinates (Angstroms)
 Number     Number      Type              X           Y           Z
 ---------------------------------------------------------------------
    1          7             0        0.501284    0.000000    1.167336
    2          1             0        0.490928    0.000000   -2.047097
    3          6             0       -1.028813    0.000000   -0.534536
    4          1             0       -1.910592    0.000000   -1.160847
    5          6             0       -0.846721    0.000000    0.843499
    6          1             0       -1.606775    0.000000    1.614783
    7          1             0        2.210977    0.000000   -0.146457
    8          6             0        1.136978    0.000000   -0.006698
    9          7             0        0.252800    0.000000   -1.061220
 ---------------------------------------------------------------------
                    Distance matrix (angstroms):
                    1          2          3          4          5
     1  N    0.000000
     2  H    3.214450   0.000000
     3  C    2.288573   2.144167   0.000000
     4  H    3.352251   2.559832   1.081573   0.000000
     5  C    1.386358   3.185098   1.390014   2.269190   0.000000
     6  H    2.155023   4.220157   2.225672   2.792209   1.082849
     7  H    2.156178   2.563396   3.262950   4.244563   3.213959
     8  C    1.335090   2.140235   2.229185   3.258795   2.158217
     9  N    2.242367   1.014228   1.385614   2.165685   2.199296
                    6          7          8          9
     6  H    0.000000
     7  H    4.204426   0.000000
     8  C    3.187065   1.083054   0.000000
     9  N    3.258683   2.161307   1.376150   0.000000
 Stoichiometry    C3H4N2
 Framework group  CS[SG(C3H4N2)]
 Deg. of freedom   15
 Full point group                 CS      NOp   2
 Largest Abelian subgroup         CS      NOp   2
 Largest concise Abelian subgroup C1      NOp   1
                         Standard orientation:                         
 ---------------------------------------------------------------------
 Center     Atomic     Atomic              Coordinates (Angstroms)
 Number     Number      Type              X           Y           Z
 ---------------------------------------------------------------------
    1          7             0       -0.758095   -1.019422    0.000000
[...]
 Frequencies --  1498.7585              1527.7794              3278.8221
 Red. masses --     3.0238                 2.8844                 1.0923
 Frc consts  --     4.0019                 3.9667                 6.9188
 IR Inten    --    20.1584                 8.2646                 4.1849
 Raman Activ --     0.0000                 0.0000                 0.0000
 Depolar     --     0.0000                 0.0000                 0.0000
 Atom AN      X      Y      Z        X      Y      Z        X      Y      Z
   1   7    -0.01  -0.13   0.00     0.00   0.13   0.00     0.00   0.00   0.00
   2   1     0.10  -0.15   0.00     0.58  -0.01   0.00     0.00  -0.01   0.00
   3   6    -0.03   0.20   0.00     0.10   0.20   0.00    -0.03  -0.01   0.00
   4   1     0.26  -0.49   0.00     0.32  -0.23   0.00     0.40   0.16   0.00
   5   6     0.03  -0.08   0.00    -0.13  -0.20   0.00     0.04  -0.07   0.00
   6   1    -0.10  -0.18   0.00     0.48   0.12   0.00    -0.46   0.77   0.00
   7   1    -0.27  -0.61   0.00     0.22   0.23   0.00    -0.07   0.03   0.00
   8   6     0.07   0.30   0.00     0.05  -0.14   0.00     0.01   0.00   0.00
   9   7    -0.05  -0.13   0.00    -0.13  -0.01   0.00     0.00   0.00   0.00
                    19                     20                     21
                    A'                     A'                     A'
 Frequencies --  3285.4472              3303.4268              3656.9287
 Red. masses --     1.0976                 1.1061                 1.0827
 Frc consts  --     6.9804                 7.1117                 8.5305
 IR Inten    --     1.7370                 2.2569                63.0284
 Raman Activ --     0.0000                 0.0000                 0.0000
 Depolar     --     0.0000                 0.0000                 0.0000
 Atom AN      X      Y      Z        X      Y      Z        X      Y      Z
   1   7     0.00   0.00   0.00     0.00   0.00   0.00     0.00   0.00   0.00
   2   1    -0.01   0.02   0.00     0.00  -0.02   0.00     0.00   1.00   0.00
   3   6    -0.01   0.00   0.00    -0.08  -0.03   0.00     0.00   0.00   0.00
   4   1     0.11   0.04   0.00     0.83   0.34   0.00     0.01   0.00   0.00
   5   6     0.00   0.00   0.00    -0.02   0.04   0.00     0.00   0.00   0.00
   6   1    -0.02   0.03   0.00     0.22  -0.37   0.00     0.00   0.00   0.00
   7   1     0.93  -0.35   0.00    -0.08   0.03   0.00    -0.01   0.00   0.00
   8   6    -0.08   0.03   0.00     0.01   0.00   0.00     0.00   0.00   0.00
   9   7     0.00   0.00   0.00     0.00   0.00   0.00     0.00  -0.08   0.00

 -------------------
 - Thermochemistry -
 -------------------
 Temperature   298.150 Kelvin.  Pressure   1.00000 Atm.
 Atom  1 has atomic number  7 and mass  14.00307
 Atom  2 has atomic number  1 and mass   1.00783
 Atom  3 has atomic number  6 and mass  12.00000
 Atom  4 has atomic number  1 and mass   1.00783
 Atom  5 has atomic number  6 and mass  12.00000
 Atom  6 has atomic number  1 and mass   1.00783
 Atom  7 has atomic number  1 and mass   1.00783
 Atom  8 has atomic number  6 and mass  12.00000
 Atom  9 has atomic number  7 and mass  14.00307
 Molecular mass:    68.03745 amu.
 Principal axes and moments of inertia in atomic units:
                           1         2         3
     EIGENVALUES --   187.52338 196.55966 384.08304
           X            0.46765   0.88392   0.00000
           Y            0.88392  -0.46765   0.00000
           Z            0.00000   0.00000   1.00000
 THIS MOLECULE IS AN ASYMMETRIC TOP.
 ROTATIONAL SYMMETRY NUMBER  1.
 ROTATIONAL TEMPERATURES (KELVIN)      0.46188     0.44065     0.22551
 ROTATIONAL CONSTANTS (GHZ)            9.62409     9.18165     4.69883
 Zero-point vibrational energy     185083.4 (Joules/Mol)
                                   44.23601 (Kcal/Mol)
 WARNING-- EXPLICIT CONSIDERATION OF   2 DEGREES OF FREEDOM AS
           VIBRATIONS MAY CAUSE SIGNIFICANT ERROR
 VIBRATIONAL TEMPERATURES:    717.89   881.37   945.91   967.01  1089.24
          (KELVIN)           1116.99  1277.43  1337.02  1557.92  1580.64
                             1653.09  1689.78  1832.42  1964.13  2096.46
                             2156.37  2198.12  4717.47  4727.00  4752.87
                             5261.47
 
 Zero-point correction=                           0.070495 (Hartree/Particle)
 Thermal correction to Energy=                    0.074370
 Thermal correction to Enthalpy=                  0.075314
 Thermal correction to Gibbs Free Energy=         0.044154
 Sum of electronic and zero-point Energies=            -38.787464
 Sum of electronic and thermal Energies=               -38.783589
 Sum of electronic and thermal Enthalpies=             -38.782645
 Sum of electronic and thermal Free Energies=          -38.813805
 
                     E (Thermal)             CV                S
                      KCAL/MOL        CAL/MOL-KELVIN    CAL/MOL-KELVIN
 TOTAL                   46.668             13.958             65.582
 ELECTRONIC               0.000              0.000              0.000
 TRANSLATIONAL            0.889              2.981             38.570
 ROTATIONAL               0.889              2.981             24.163
 VIBRATIONAL             44.890              7.997              2.849
 VIBRATION  1             0.854              1.252              0.661
 VIBRATION  2             0.972              1.005              0.429
                       Q            LOG10(Q)             LN(Q)
 TOTAL BOT       0.490771D-20        -20.309121        -46.763479
 TOTAL V=0       0.130589D+13         12.115907         27.897907
 VIB (BOT)       0.522348D-32        -32.282040        -74.332145
 VIB (BOT)  1    0.329697D+00         -0.481885         -1.109581
 VIB (BOT)  2    0.240593D+00         -0.618716         -1.424647
 VIB (V=0)       0.138991D+01          0.142988          0.329241
 VIB (V=0)  1    0.109892D+01          0.040964          0.094324
 VIB (V=0)  2    0.105487D+01          0.023201          0.053421
 ELECTRONIC      0.100000D+01          0.000000          0.000000
 TRANSLATIONAL   0.220588D+08          7.343582         16.909224
 ROTATIONAL      0.425929D+05          4.629337         10.659442
 ***** Axes restored to original set *****
 -------------------------------------------------------------------
 Center     Atomic                   Forces (Hartrees/Bohr)
 Number     Number              X              Y              Z
 -------------------------------------------------------------------
    1          7           0.000223607    0.000000000   -0.000001985
    2          1          -0.000015166    0.000000000   -0.000024470
    3          6           0.000252349    0.000000000   -0.000038569
    4          1          -0.000063717    0.000000000   -0.000035920
    5          6          -0.000233158    0.000000000   -0.000086761
    6          1          -0.000023209    0.000000000    0.000088611
    7          1           0.000096084    0.000000000   -0.000024536
    8          6          -0.000300510    0.000000000   -0.000097347
    9          7           0.000063721    0.000000000    0.000220977
 -------------------------------------------------------------------
 Cartesian Forces:  Max     0.000300510 RMS     0.000114526

 GradGradGradGradGradGradGradGradGradGradGradGradGradGradGradGradGradGrad
 Berny optimization.
 Internal  Forces:  Max     0.000199430 RMS     0.000059018
 Search for a local minimum.
 Step number   1 out of a maximum of  48
 All quantities printed in internal units (Hartrees-Bohrs-Radians)
 Second derivative matrix not updated -- analytic derivatives used.
     Eigenvalues ---    0.00473   0.00821   0.01708   0.02560   0.05499
     Eigenvalues ---    0.05950   0.09657   0.10395   0.10936   0.11850
     Eigenvalues ---    0.23286   0.25297   0.34710   0.37597   0.37939
     Eigenvalues ---    0.38161   0.39254   0.45476   0.46961   0.47821
     Eigenvalues ---    0.544051000.000001000.000001000.000001000.00000
     Eigenvalues --- 1000.000001000.000001000.000001000.000001000.00000
     Eigenvalues --- 1000.000001000.000001000.000001000.000001000.00000
     Eigenvalues --- 1000.000001000.000001000.00000
 Angle between quadratic step and forces=  27.88 degrees.
 Linear search not attempted -- first point.
 Iteration  1 RMS(Cart)=  0.00018375 RMS(Int)=  0.00000003
 Iteration  2 RMS(Cart)=  0.00000004 RMS(Int)=  0.00000000
 Variable       Old X    -DE/DX   Delta X   Delta X   Delta X     New X
                                 (Linear)    (Quad)   (Total)
    R1        2.61984   0.00016   0.00000   0.00061   0.00061   2.62044
    R2        2.52295  -0.00005   0.00000  -0.00012  -0.00012   2.52284
    R3        1.91661   0.00002   0.00000   0.00004   0.00004   1.91665
    R4        2.04388   0.00007   0.00000   0.00020   0.00020   2.04408
    R5        2.62675   0.00001   0.00000  -0.00001  -0.00001   2.62674
    R6        2.61843  -0.00011   0.00000  -0.00028  -0.00028   2.61815
    R7        2.04629   0.00008   0.00000   0.00019   0.00019   2.04647
    R8        2.04667   0.00010   0.00000   0.00027   0.00027   2.04695
    R9        2.60055  -0.00020   0.00000  -0.00051  -0.00051   2.60004
    A1        1.83129  -0.00004   0.00000  -0.00013  -0.00013   1.83117
    A2        2.31977  -0.00002   0.00000  -0.00020  -0.00020   2.31957
    A3        2.13409  -0.00001   0.00000   0.00003   0.00003   2.13412
    A4        1.82933   0.00003   0.00000   0.00017   0.00017   1.82950
    A5        1.93794  -0.00010   0.00000  -0.00032  -0.00032   1.93762
    A6        2.11309   0.00000   0.00000  -0.00037  -0.00037   2.11273
    A7        2.23215   0.00009   0.00000   0.00069   0.00069   2.23284
    A8        2.19646  -0.00002   0.00000  -0.00005  -0.00005   2.19641
    A9        1.94757   0.00006   0.00000   0.00020   0.00020   1.94777
   A10        2.13915  -0.00004   0.00000  -0.00014  -0.00014   2.13901
   A11        2.19771  -0.00004   0.00000  -0.00026  -0.00026   2.19745
   A12        2.20683   0.00000   0.00000   0.00018   0.00018   2.20702
   A13        1.87864   0.00004   0.00000   0.00008   0.00008   1.87872
    D1        0.00000   0.00000   0.00000   0.00000   0.00000   0.00000
    D2        3.14159   0.00000   0.00000   0.00000   0.00000   3.14159
    D3        3.14159   0.00000   0.00000   0.00000   0.00000   3.14159
    D4        0.00000   0.00000   0.00000   0.00000   0.00000   0.00000
    D5        3.14159   0.00000   0.00000   0.00000   0.00000   3.14159
    D6        0.00000   0.00000   0.00000   0.00000   0.00000   0.00000
    D7        0.00000   0.00000   0.00000   0.00000   0.00000   0.00000
    D8        3.14159   0.00000   0.00000   0.00000   0.00000   3.14159
    D9        0.00000   0.00000   0.00000   0.00000   0.00000   0.00000
   D10        3.14159   0.00000   0.00000   0.00000   0.00000   3.14159
   D11        3.14159   0.00000   0.00000   0.00000   0.00000   3.14159
   D12        0.00000   0.00000   0.00000   0.00000   0.00000   0.00000
   D13        3.14159   0.00000   0.00000   0.00000   0.00000   3.14159
   D14        0.00000   0.00000   0.00000   0.00000   0.00000   0.00000
   D15        0.00000   0.00000   0.00000   0.00000   0.00000   0.00000
   D16        3.14159   0.00000   0.00000   0.00000   0.00000   3.14159
         Item               Value     Threshold  Converged?
 Maximum Force            0.000199     0.000450     YES
 RMS     Force            0.000059     0.000300     YES
 Maximum Displacement     0.000637     0.001800     YES
 RMS     Displacement     0.000184     0.001200     YES
 Predicted change in Energy=-2.177953D-07
 Optimization completed.
    -- Stationary point found.
                         ----------------------------
                         !   Optimized Parameters   !
                         ! (Angstroms and Degrees)  !
 ------------------------                            -------------------------
 ! Name  Definition              Value          Derivative Info.             !
 -----------------------------------------------------------------------------
 ! R1    R(1,5)                  1.3864         -DE/DX =    0.0002           !
 ! R2    R(1,8)                  1.3351         -DE/DX =    0.               !
 ! R3    R(2,9)                  1.0142         -DE/DX =    0.               !
 ! R4    R(3,4)                  1.0816         -DE/DX =    0.0001           !
 ! R5    R(3,5)                  1.39           -DE/DX =    0.               !
 ! R6    R(3,9)                  1.3856         -DE/DX =   -0.0001           !
 ! R7    R(5,6)                  1.0828         -DE/DX =    0.0001           !
 ! R8    R(7,8)                  1.0831         -DE/DX =    0.0001           !
 ! R9    R(8,9)                  1.3761         -DE/DX =   -0.0002           !
 ! A1    A(5,1,8)              104.9254         -DE/DX =    0.               !
 ! A2    A(4,3,5)              132.9128         -DE/DX =    0.               !
 ! A3    A(4,3,9)              122.2742         -DE/DX =    0.               !
 ! A4    A(5,3,9)              104.813          -DE/DX =    0.               !
 ! A5    A(1,5,3)              111.0358         -DE/DX =   -0.0001           !
 ! A6    A(1,5,6)              121.0714         -DE/DX =    0.               !
 ! A7    A(3,5,6)              127.8928         -DE/DX =    0.0001           !
 ! A8    A(1,8,7)              125.848          -DE/DX =    0.               !
 ! A9    A(1,8,9)              111.5876         -DE/DX =    0.0001           !
 ! A10   A(7,8,9)              122.5644         -DE/DX =    0.               !
 ! A11   A(2,9,3)              125.9195         -DE/DX =    0.               !
 ! A12   A(2,9,8)              126.4423         -DE/DX =    0.               !
 ! A13   A(3,9,8)              107.6382         -DE/DX =    0.               !
 ! D1    D(8,1,5,3)              0.             -DE/DX =    0.               !
 ! D2    D(8,1,5,6)            180.             -DE/DX =    0.               !
 ! D3    D(5,1,8,7)            180.             -DE/DX =    0.               !
 ! D4    D(5,1,8,9)              0.             -DE/DX =    0.               !
 ! D5    D(4,3,5,1)            180.             -DE/DX =    0.               !
 ! D6    D(4,3,5,6)              0.             -DE/DX =    0.               !
 ! D7    D(9,3,5,1)              0.             -DE/DX =    0.               !
 ! D8    D(9,3,5,6)            180.             -DE/DX =    0.               !
 ! D9    D(4,3,9,2)              0.             -DE/DX =    0.               !
 ! D10   D(4,3,9,8)            180.             -DE/DX =    0.               !
 ! D11   D(5,3,9,2)            180.             -DE/DX =    0.               !
 ! D12   D(5,3,9,8)              0.             -DE/DX =    0.               !
 ! D13   D(1,8,9,2)            180.             -DE/DX =    0.               !
 ! D14   D(1,8,9,3)              0.             -DE/DX =    0.               !
 ! D15   D(7,8,9,2)              0.             -DE/DX =    0.               !
 ! D16   D(7,8,9,3)            180.             -DE/DX =    0.               !
 -----------------------------------------------------------------------------
 GradGradGradGradGradGradGradGradGradGradGradGradGradGradGradGradGradGrad

 1\1\GINC-INDIUM\Freq\RMP2-FC\CEP-121G(d)\C3H4N2\RDJ3\10-Nov-2000\0\\#N
  GEOM=ALLCHECK GUESS=TCHECK RMP2(FC)/CEP-121G(D) FREQ\\1H imidazole C3
 H4N2 casno=288324\\0,1\N,0.501255841,0.,1.167335498\H,0.4908999963,0.,
 -2.0470978268\C,-1.0288410064,0.,-0.5345369881\H,-1.9106206109,0.,-1.1
 608478392\C,-0.8467495038,0.,0.8434982138\H,-1.6068032935,0.,1.6147824
 277\H,2.2109484426,0.,-0.1464578077\C,1.1369500233,0.,-0.0066991482\N,
 0.2527716417,0.,-1.0612209508\\Version=IBM-RS6000-G98RevA.6\State=1-A'
 \HF=-38.1415021\MP2=-38.8579586\RMSD=1.479e-09\RMSF=1.145e-04\Dipole=-
 0.1343054,0.,-1.5790569\DipoleDeriv=-0.3149493,0.,0.004967,0.,-0.28954
 59,0.,-0.0847913,0.,-0.5487746,0.1912927,0.,-0.0142085,0.,0.3490132,0.
 ,-0.0044154,0.,0.2113008,0.0549805,0.,-0.2121007,0.,-0.1500246,0.,-0.1
 001906,0.,0.1566954,0.0224639,0.,-0.0458357,0.,0.2095482,0.,-0.0705868
 ,0.,0.0430545,0.1599407,0.,-0.0381826,0.,-0.179263,0.,-0.0571566,0.,0.
 1170655,-0.0009548,0.,0.0583818,0.,0.1800252,0.,0.0874677,0.,0.0342463
 ,-0.0220181,0.,0.0373588,0.,0.1859176,0.,0.0309388,0.,0.0671974,0.0768
 846,0.,0.0870171,0.,-0.0537954,0.,0.1301791,0.,0.562248,-0.16764,0.,0.
 1226029,0.,-0.2518753,0.,0.0685551,0.,-0.6430334\Polar=51.4285228,0.,2
 5.2814665,-0.4463052,0.,47.9584749\PG=CS [SG(C3H4N2)]\NImag=0\\0.49491
 145,0.,0.09698126,-0.05287281,0.,0.53700446,-0.00312783,0.,-0.00843566
 ,0.07943502,0.,0.00697732,0.,0.,0.01137333,-0.00367071,0.,-0.00291293,
 -0.09599578,0.,0.45154865,-0.03179123,0.,-0.01838721,0.00608724,0.,-0.
 00434871,0.75750142,0.,0.01182903,0.,0.,-0.00898668,0.,0.,0.08093826,-
 0.07649262,0.,-0.01816595,0.02845762,0.,-0.00004161,0.14802545,0.,0.71
 980607,0.00147626,0.,0.00167950,0.00030855,0.,-0.00003079,-0.25908222,
 0.,-0.14335553,0.27174538,0.,0.00753910,0.,0.,-0.00078066,0.,0.,-0.012
 29146,0.,0.,0.01493776,-0.00409796,0.,-0.00535051,-0.00088860,0.,-0.00
 001606,-0.15526754,0.,-0.16827814,0.15553782,0.,0.15997328,-0.27212880
 ,0.,-0.03022461,-0.00926043,0.,-0.00046757,-0.09621183,0.,-0.02105929,
 0.00567115,0.,-0.02042025,0.66754404,0.,-0.06101129,0.,0.,0.00279549,0
 .,0.,-0.04457544,0.,0.,-0.00622067,0.,0.,0.10551616,-0.05597305,0.,-0.
 10795526,0.00333725,0.,0.00094204,-0.02488249,0.,-0.36857612,0.0033425
 7,0.,0.00369774,-0.15665572,0.,0.77087997,-0.01768885,0.,0.02138904,0.
 00083248,0.,-0.00004349,0.00842959,0.,-0.00789366,-0.00036119,0.,0.000
 49181,-0.19779325,0.,0.15169957,0.21283625,0.,-0.00697608,0.,0.,0.0022
 2412,0.,0.,-0.00472661,0.,0.,-0.00086360,0.,0.,-0.02092643,0.,0.,0.019
 92827,-0.00932890,0.,0.01173671,0.00124461,0.,0.00030050,0.01949392,0.
 ,-0.00592588,-0.00029249,0.,-0.00019537,0.15581699,0.,-0.22072122,-0.1
 6200477,0.,0.21941890,-0.00602220,0.,-0.00000327,-0.00056927,0.,-0.000
 14805,0.00060539,0.,-0.00267269,-0.00029305,0.,0.00043795,0.00058784,0
 .,0.00223559,-0.00024592,0.,-0.00024923,0.37378437,0.,-0.00630656,0.,0
 .,-0.00105273,0.,0.,0.00243170,0.,0.,0.00220998,0.,0.,0.00602507,0.,0.
 ,0.00149683,0.,0.,0.01848395,0.02868340,0.,0.00132506,0.00051607,0.,0.
 00029951,-0.00134825,0.,-0.00605717,-0.00110285,0.,0.00112419,0.003182
 66,0.,-0.00498367,0.00151380,0.,0.00080324,-0.04007264,0.,0.06223722,-
 0.15341616,0.,0.09859822,0.01724691,0.,0.01413553,-0.08480909,0.,0.002
 17853,-0.00321209,0.,0.00437546,-0.08554863,0.,0.01569585,-0.00642190,
 0.,-0.00364043,-0.35753068,0.,0.03908875,0.88570535,0.,-0.07025083,0.,
 0.,-0.00946563,0.,0.,0.01543188,0.,0.,0.00241627,0.,0.,0.01055971,0.,0
 .,0.00498557,0.,0.,-0.01936512,0.,0.,0.11725723,0.14502732,0.,-0.31997
 348,-0.01740338,0.,-0.00897843,-0.03475558,0.,-0.01043547,0.00369066,0
 .,-0.00543734,0.05839791,0.,-0.00683708,-0.00191174,0.,0.00027935,0.03
 490182,0.,-0.06124354,-0.06577084,0.,0.63332004,-0.01221264,0.,-0.0117
 4319,-0.09095267,0.,0.09056958,-0.30072927,0.,0.07281221,-0.01625280,0
 .,0.01983133,-0.01286009,0.,0.06120042,0.00041279,0.,-0.00103969,-0.01
 031649,0.,-0.03046094,-0.21201371,0.,-0.12217619,0.65492487,0.,0.02121
 805,0.,0.,-0.00308456,0.,0.,-0.04005068,0.,0.,-0.00694672,0.,0.,0.0078
 3740,0.,0.,0.00485793,0.,0.,-0.00392311,0.,0.,-0.05156908,0.,0.,0.0716
 6078,0.02872533,0.,-0.09570810,0.08916788,0.,-0.44114167,0.07147041,0.
 ,-0.14232573,-0.01946890,0.,0.01448221,0.01142988,0.,-0.06644640,-0.00
 324055,0.,-0.00569623,0.00557053,0.,0.00649516,-0.10466107,0.,-0.22069
 404,-0.07899351,0.,0.95103480\\-0.00022361,0.,0.00000198,0.00001517,0.
 ,0.00002447,-0.00025235,0.,0.00003857,0.00006372,0.,0.00003592,0.00023
 316,0.,0.00008676,0.00002321,0.,-0.00008861,-0.00009608,0.,0.00002454,
 0.00030051,0.,0.00009735,-0.00006372,0.,-0.00022098\\\@


 DESK:  A WASTEBASKET WITH DRAWERS.
 Job cpu time:  0 days  0 hours 26 minutes 32.2 seconds.
 File lengths (MBytes):  RWF=  553 Int=    0 D2E=    0 Chk=    9 Scr=    1
 Normal termination of Gaussian 98.
