 Entering Link 1 = C:\G03W\l1.exe PID=    116480.
  
 Copyright (c) 1988,1990,1992,1993,1995,1998,2003, Gaussian, Inc.
                  All Rights Reserved.
  
 This is the Gaussian(R) 03 program.  It is based on the
 the Gaussian(R) 98 system (copyright 1998, Gaussian, Inc.),
 the Gaussian(R) 94 system (copyright 1995, Gaussian, Inc.),
 the Gaussian 92(TM) system (copyright 1992, Gaussian, Inc.),
 the Gaussian 90(TM) system (copyright 1990, Gaussian, Inc.),
 the Gaussian 88(TM) system (copyright 1988, Gaussian, Inc.),
 the Gaussian 86(TM) system (copyright 1986, Carnegie Mellon
 University), and the Gaussian 82(TM) system (copyright 1983,
 Carnegie Mellon University). Gaussian is a federally registered
 trademark of Gaussian, Inc.
  
 This software contains proprietary and confidential information,
 including trade secrets, belonging to Gaussian, Inc.
  
 This software is provided under written license and may be
 used, copied, transmitted, or stored only in accord with that
 written license.
  
 The following legend is applicable only to US Government
 contracts under DFARS:
  
                    RESTRICTED RIGHTS LEGEND
  
 Use, duplication or disclosure by the US Government is subject
 to restrictions as set forth in subparagraph (c)(1)(ii) of the
 Rights in Technical Data and Computer Software clause at DFARS
 252.227-7013.
  
 Gaussian, Inc.
 Carnegie Office Park, Building 6, Pittsburgh, PA 15106 USA
  
 The following legend is applicable only to US Government
 contracts under FAR:
  
                    RESTRICTED RIGHTS LEGEND
  
 Use, reproduction and disclosure by the US Government is subject
 to restrictions as set forth in subparagraph (c) of the
 Commercial Computer Software - Restricted Rights clause at FAR
 52.227-19.
  
 Gaussian, Inc.
 Carnegie Office Park, Building 6, Pittsburgh, PA 15106 USA
  
  
 ---------------------------------------------------------------
 Warning -- This program may not be used in any manner that
 competes with the business of Gaussian, Inc. or will provide
 assistance to any competitor of Gaussian, Inc.  The licensee
 of this program is prohibited from giving any competitor of
 Gaussian, Inc. access to this program.  By using this program,
 the user acknowledges that Gaussian, Inc. is engaged in the
 business of creating and licensing software in the field of
 computational chemistry and represents and warrants to the
 licensee that it is not a competitor of Gaussian, Inc. and that
 it will not use this program in any manner prohibited above.
 ---------------------------------------------------------------
  

 Cite this work as:
 Gaussian 03, Revision B.05,
 M. J. Frisch, G. W. Trucks, H. B. Schlegel, G. E. Scuseria, 
 M. A. Robb, J. R. Cheeseman, J. A. Montgomery, Jr., T. Vreven, 
 K. N. Kudin, J. C. Burant, J. M. Millam, S. S. Iyengar, J. Tomasi, 
 V. Barone, B. Mennucci, M. Cossi, G. Scalmani, N. Rega, 
 G. A. Petersson, H. Nakatsuji, M. Hada, M. Ehara, K. Toyota, 
 R. Fukuda, J. Hasegawa, M. Ishida, T. Nakajima, Y. Honda, O. Kitao, 
 H. Nakai, M. Klene, X. Li, J. E. Knox, H. P. Hratchian, J. B. Cross, 
 C. Adamo, J. Jaramillo, R. Gomperts, R. E. Stratmann, O. Yazyev, 
 A. J. Austin, R. Cammi, C. Pomelli, J. W. Ochterski, P. Y. Ayala, 
 K. Morokuma, G. A. Voth, P. Salvador, J. J. Dannenberg, 
 V. G. Zakrzewski, S. Dapprich, A. D. Daniels, M. C. Strain, 
 O. Farkas, D. K. Malick, A. D. Rabuck, K. Raghavachari, 
 J. B. Foresman, J. V. Ortiz, Q. Cui, A. G. Baboul, S. Clifford, 
 J. Cioslowski, B. B. Stefanov, G. Liu, A. Liashenko, P. Piskorz, 
 I. Komaromi, R. L. Martin, D. J. Fox, T. Keith, M. A. Al-Laham, 
 C. Y. Peng, A. Nanayakkara, M. Challacombe, P. M. W. Gill, 
 B. Johnson, W. Chen, M. W. Wong, C. Gonzalez, and J. A. Pople, 
 Gaussian, Inc., Pittsburgh PA, 2003.
 
 **********************************************
 Gaussian 03:  x86-Win32-G03RevB.05  8-Nov-2003
                  09-Jul-2004 
 **********************************************
 %mem=56000000
 Default route:  MaxDisk=6000MB MP2=InCore
 --------------------
 #MP2/STO-3G opt freq
 --------------------
 1/18=20,38=1/1,3;
 2/9=110,17=6,18=5,40=1/2;
 3/6=3,11=9,16=1,25=1,30=1/1,2,3;
 4//1;
 5/5=2,38=5/2;
 8/6=4,10=1,27=786432000/1;
 9/15=2,16=-3,27=786432000/6;
 10/5=1/2;
 6/7=2,8=2,9=2,10=2/1;
 7/12=2/1,2,3,16;
 1/18=20/3(1);
 99//99;
 2/9=110/2;
 3/6=3,11=9,16=1,25=1,30=1/1,2,3;
 4/5=5,16=3/1;
 5/5=2,38=5/2;
 8/6=4,10=1,27=786432000/1;
 9/15=2,16=-3,27=786432000/6;
 10/5=1/2;
 7/12=2/1,2,3,16;
 1/18=20/3(-8);
 2/9=110/2;
 6/7=2,8=2,9=2,10=2/1;
 99//99;
 ----------------------------------------------------
 1himidaz 1H-Imidazole casno=288324 method=3 basis=20
 ----------------------------------------------------
 Symbolic Z-matrix:
 Charge =  0 Multiplicity = 1
 N                    -0.74624  -0.96754   0. 
 H                    -0.00102   2.09728   0. 
 C                     1.11782   0.28524   0. 
 H                     2.10821   0.67107   0. 
 C                     0.6474   -0.98273   0. 
 H                     1.19398  -1.89369   0. 
 H                    -2.09203   0.65661   0. 
 C                    -1.09612   0.28423   0. 
 N                     0.        1.10301   0. 
 

 GradGradGradGradGradGradGradGradGradGradGradGradGradGradGradGradGradGrad
 Berny optimization.
 Initialization pass.
                           ----------------------------
                           !    Initial Parameters    !
                           ! (Angstroms and Degrees)  !
 --------------------------                            --------------------------
 ! Name  Definition              Value          Derivative Info.                !
 --------------------------------------------------------------------------------
 ! R1    R(1,5)                  1.3937         estimate D2E/DX2                !
 ! R2    R(1,8)                  1.2998         estimate D2E/DX2                !
 ! R3    R(2,9)                  0.9943         estimate D2E/DX2                !
 ! R4    R(3,4)                  1.0629         estimate D2E/DX2                !
 ! R5    R(3,5)                  1.3524         estimate D2E/DX2                !
 ! R6    R(3,9)                  1.385          estimate D2E/DX2                !
 ! R7    R(5,6)                  1.0624         estimate D2E/DX2                !
 ! R8    R(7,8)                  1.0632         estimate D2E/DX2                !
 ! R9    R(8,9)                  1.3682         estimate D2E/DX2                !
 ! A1    A(5,1,8)              106.2404         estimate D2E/DX2                !
 ! A2    A(4,3,5)              131.6391         estimate D2E/DX2                !
 ! A3    A(4,3,9)              122.5274         estimate D2E/DX2                !
 ! A4    A(5,3,9)              105.8335         estimate D2E/DX2                !
 ! A5    A(1,5,3)              109.7304         estimate D2E/DX2                !
 ! A6    A(1,5,6)              121.5885         estimate D2E/DX2                !
 ! A7    A(3,5,6)              128.6811         estimate D2E/DX2                !
 ! A8    A(1,8,7)              126.1173         estimate D2E/DX2                !
 ! A9    A(1,8,9)              111.1428         estimate D2E/DX2                !
 ! A10   A(7,8,9)              122.7399         estimate D2E/DX2                !
 ! A11   A(2,9,3)              126.2473         estimate D2E/DX2                !
 ! A12   A(2,9,8)              126.6998         estimate D2E/DX2                !
 ! A13   A(3,9,8)              107.0529         estimate D2E/DX2                !
 ! D1    D(8,1,5,3)              0.0            estimate D2E/DX2                !
 ! D2    D(8,1,5,6)            180.0            estimate D2E/DX2                !
 ! D3    D(5,1,8,7)            180.0            estimate D2E/DX2                !
 ! D4    D(5,1,8,9)              0.0            estimate D2E/DX2                !
 ! D5    D(4,3,5,1)            180.0            estimate D2E/DX2                !
 ! D6    D(4,3,5,6)              0.0            estimate D2E/DX2                !
 ! D7    D(9,3,5,1)              0.0            estimate D2E/DX2                !
 ! D8    D(9,3,5,6)            180.0            estimate D2E/DX2                !
 ! D9    D(4,3,9,2)              0.0            estimate D2E/DX2                !
 ! D10   D(4,3,9,8)            180.0            estimate D2E/DX2                !
 ! D11   D(5,3,9,2)            180.0            estimate D2E/DX2                !
 ! D12   D(5,3,9,8)              0.0            estimate D2E/DX2                !
 ! D13   D(1,8,9,2)            180.0            estimate D2E/DX2                !
 ! D14   D(1,8,9,3)              0.0            estimate D2E/DX2                !
 ! D15   D(7,8,9,2)              0.0            estimate D2E/DX2                !
 ! D16   D(7,8,9,3)            180.0            estimate D2E/DX2                !
 --------------------------------------------------------------------------------
 Trust Radius=3.00D-01 FncErr=1.00D-07 GrdErr=1.00D-07
 Number of steps in this run=  48 maximum allowed number of steps= 100.
 GradGradGradGradGradGradGradGradGradGradGradGradGradGradGradGradGradGrad

                          Input orientation:                          
 ---------------------------------------------------------------------
 Center     Atomic     Atomic              Coordinates (Angstroms)
 Number     Number      Type              X           Y           Z
 ---------------------------------------------------------------------
    1          7             0       -0.746242   -0.967544    0.000000
    2          1             0       -0.001024    2.097278    0.000000
    3          6             0        1.117815    0.285244    0.000000
    4          1             0        2.108213    0.671072    0.000000
    5          6             0        0.647399   -0.982731    0.000000
    6          1             0        1.193984   -1.893692    0.000000
    7          1             0       -2.092028    0.656612    0.000000
    8          6             0       -1.096122    0.284233    0.000000
    9          7             0        0.000000    1.103009    0.000000
 ---------------------------------------------------------------------
                    Distance matrix (angstroms):
                    1          2          3          4          5
     1  N    0.000000
     2  H    3.154122   0.000000
     3  C    2.245927   2.129617   0.000000
     4  H    3.291349   2.546163   1.062898   0.000000
     5  C    1.393724   3.147524   1.352424   2.206591   0.000000
     6  H    2.149937   4.166040   2.180267   2.722835   1.062358
     7  H    2.109271   2.539255   3.231255   4.200266   3.192476
     8  C    1.299754   2.118106   2.213937   3.227601   2.155241
     9  N    2.200924   0.994270   1.385009   2.152006   2.183904
                    6          7          8          9
     6  H    0.000000
     7  H    4.159558   0.000000
     8  C    3.160371   1.063247   0.000000
     9  N    3.225805   2.139124   1.368166   0.000000
 Stoichiometry    C3H4N2
 Framework group  CS[SG(C3H4N2)]
 Deg. of freedom    15
 Full point group                 CS      NOp   2
 Largest Abelian subgroup         CS      NOp   2
 Largest concise Abelian subgroup C1      NOp   1
                         Standard orientation:                         
 ---------------------------------------------------------------------
 Center     Atomic     Atomic              Coordinates (Angstroms)
 Number     Number      Type              X           Y           Z
 ---------------------------------------------------------------------
    1          7             0       -0.746242   -0.967544    0.000000
    2          1             0       -0.001024    2.097278    0.000000
    3          6             0        1.117815    0.285244    0.000000
    4          1             0        2.108213    0.671072    0.000000
    5          6             0        0.647399   -0.982731    0.000000
    6          1             0        1.193984   -1.893692    0.000000
    7          1             0       -2.092028    0.656612    0.000000
    8          6             0       -1.096122    0.284233    0.000000
    9          7             0        0.000000    1.103009    0.000000
 ---------------------------------------------------------------------
 Rotational constants (GHZ):      9.6694010      9.5604807      4.8073162
 Standard basis: STO-3G (5D, 7F)
 There are    24 symmetry adapted basis functions of A'  symmetry.
 There are     5 symmetry adapted basis functions of A"  symmetry.
 Integral buffers will be    262144 words long.
 Raffenetti 1 integral format.
 Two-electron integral symmetry is turned on.
    29 basis functions,    87 primitive gaussians,    29 cartesian basis functions
    18 alpha electrons       18 beta electrons
       nuclear repulsion energy       163.6405015755 Hartrees.
 NAtoms=    9 NActive=    9 NUniq=    9 SFac= 1.00D+00 NAtFMM=   60 Big=F
 One-electron integrals computed using PRISM.
 NBasis=    29 RedAO= T  NBF=    24     5
 NBsUse=    29 1.00D-06 NBFU=    24     5
 Harris functional with IExCor=  205 diagonalized for initial guess.
 ExpMin= 1.69D-01 ExpMax= 9.91D+01 ExpMxC= 9.91D+01 IAcc=1 IRadAn=         1 AccDes= 1.00D-06
 HarFok:  IExCor= 205 AccDes= 1.00D-06 IRadAn=         1 IDoV=1
 ScaDFX=  1.000000  1.000000  1.000000  1.000000
 Initial guess orbital symmetries:
       Occupied  (A') (A') (A') (A') (A') (A') (A') (A') (A') (A')
                 (A') (A') (A') (A') (A") (A') (A") (A")
       Virtual   (A") (A") (A') (A') (A') (A') (A') (A') (A') (A')
                 (A')
 The electronic state of the initial guess is 1-A'.
 Requested convergence on RMS density matrix=1.00D-08 within 128 cycles.
 Requested convergence on MAX density matrix=1.00D-06.
 Requested convergence on             energy=1.00D-06.
 No special actions if energy rises.
 Keep R1 integrals in memory in canonical form, NReq=      528061.
 SCF Done:  E(RHF) =  -221.984917720     A.U. after   13 cycles
             Convg  =    0.6127D-08             -V/T =  2.0093
             S**2   =   0.0000
 ExpMin= 1.69D-01 ExpMax= 9.91D+01 ExpMxC= 9.91D+01 IAcc=1 IRadAn=         1 AccDes= 1.00D-06
 HarFok:  IExCor= 205 AccDes= 1.00D-06 IRadAn=         1 IDoV=1
 ScaDFX=  1.000000  1.000000  1.000000  1.000000
 Range of M.O.s used for correlation:     6    29
 NBasis=    29 NAE=    18 NBE=    18 NFC=     5 NFV=     0
 NROrb=     24 NOA=    13 NOB=    13 NVA=    11 NVB=    11
 Fully direct method using O(ONN) memory.
 JobTyp=1 Pass  1:  I=   6 to  18 NPSUse=  1 ParTrn=F ParDer=F DoDerP=T.
 Spin components of T(2) and E(2):
     alpha-alpha T2 =       0.1337362028D-01 E2=     -0.2927991204D-01
     alpha-beta  T2 =       0.1019314176D+00 E2=     -0.2243750656D+00
     beta-beta   T2 =       0.1337362028D-01 E2=     -0.2927991204D-01
 ANorm=    0.1062392893D+01
 E2 =    -0.2829348897D+00 EUMP2 =    -0.22226785260996D+03
          Differentiating once with respect to electric field.
                with respect to dipole field.
          Differentiating once with respect to nuclear coordinates.
          Store integrals in memory, NReq=      496074.
          There are   1 degrees of freedom in the 1st order CPHF.
     1 vectors were produced by pass  0.
 AX will form   1 AO Fock derivatives at one time.
     1 vectors were produced by pass  1.
     1 vectors were produced by pass  2.
     1 vectors were produced by pass  3.
     1 vectors were produced by pass  4.
     1 vectors were produced by pass  5.
     1 vectors were produced by pass  6.
     1 vectors were produced by pass  7.
     1 vectors were produced by pass  8.
     1 vectors were produced by pass  9.
     1 vectors were produced by pass 10.
     1 vectors were produced by pass 11.
     1 vectors were produced by pass 12.
 Inv2:  IOpt= 1 Iter= 1 AM= 3.84D-16 Conv= 1.00D-12.
 Inverted reduced A of dimension   13 with in-core refinement.
 End of Minotr Frequency-dependent properties file   721 does not exist.

 **********************************************************************

            Population analysis using the SCF density.

 **********************************************************************

 Orbital symmetries:
       Occupied  (A') (A') (A') (A') (A') (A') (A') (A') (A') (A')
                 (A') (A") (A') (A') (A') (A') (A") (A")
       Virtual   (A") (A") (A') (A') (A') (A') (A') (A') (A') (A')
                 (A')
 The electronic state is 1-A'.
 Alpha  occ. eigenvalues --  -15.42348 -15.30359 -11.09357 -11.06289 -11.02837
 Alpha  occ. eigenvalues --   -1.28104  -1.10273  -0.95602  -0.76935  -0.74178
 Alpha  occ. eigenvalues --   -0.71240  -0.55028  -0.54981  -0.54803  -0.50998
 Alpha  occ. eigenvalues --   -0.34249  -0.32294  -0.27464
 Alpha virt. eigenvalues --    0.30576   0.38430   0.57682   0.63373   0.63683
 Alpha virt. eigenvalues --    0.69505   0.74641   0.79081   0.94593   1.00853
 Alpha virt. eigenvalues --    1.08898
          Condensed to atoms (all electrons):
              1          2          3          4          5          6
     1  N    6.516540   0.001662  -0.044047   0.001081   0.396941  -0.020557
     2  H    0.001662   0.462285  -0.025704  -0.001583   0.002503  -0.000041
     3  C   -0.044047  -0.025704   4.779801   0.397876   0.563128  -0.023742
     4  H    0.001081  -0.001583   0.397876   0.556757  -0.018372  -0.001044
     5  C    0.396941   0.002503   0.563128  -0.018372   4.812266   0.399592
     6  H   -0.020557  -0.000041  -0.023742  -0.001044   0.399592   0.567878
     7  H   -0.021522  -0.001146   0.001744  -0.000027   0.002817  -0.000035
     8  C    0.490860  -0.025648  -0.074196   0.001991  -0.072929   0.002698
     9  N   -0.047103   0.356485   0.410594  -0.018928  -0.063144   0.001173
              7          8          9
     1  N   -0.021522   0.490860  -0.047103
     2  H   -0.001146  -0.025648   0.356485
     3  C    0.001744  -0.074196   0.410594
     4  H   -0.000027   0.001991  -0.018928
     5  C    0.002817  -0.072929  -0.063144
     6  H   -0.000035   0.002698   0.001173
     7  H    0.555130   0.398254  -0.023096
     8  C    0.398254   4.744015   0.409562
     9  N   -0.023096   0.409562   6.293131
 Mulliken atomic charges:
              1
     1  N   -0.273854
     2  H    0.231186
     3  C    0.014545
     4  H    0.082249
     5  C   -0.022802
     6  H    0.074078
     7  H    0.087881
     8  C    0.125392
     9  N   -0.318675
 Sum of Mulliken charges=   0.00000
 Atomic charges with hydrogens summed into heavy atoms:
              1
     1  N   -0.273854
     2  H    0.000000
     3  C    0.096794
     4  H    0.000000
     5  C    0.051277
     6  H    0.000000
     7  H    0.000000
     8  C    0.213273
     9  N   -0.087489
 Sum of Mulliken charges=   0.00000
 Electronic spatial extent (au):  <R**2>=   280.2144
 Charge=     0.0000 electrons
 Dipole moment (field-independent basis, Debye):
    X=     1.0790    Y=     3.3216    Z=     0.0000  Tot=     3.4925
 Quadrupole moment (field-independent basis, Debye-Ang):
   XX=   -25.5551   YY=   -24.9970   ZZ=   -28.2177
   XY=    -2.7124   XZ=     0.0000   YZ=     0.0000
 Traceless Quadrupole moment (field-independent basis, Debye-Ang):
   XX=     0.7015   YY=     1.2596   ZZ=    -1.9611
   XY=    -2.7124   XZ=     0.0000   YZ=     0.0000
 Octapole moment (field-independent basis, Debye-Ang**2):
  XXX=    -0.3775  YYY=    13.3677  ZZZ=     0.0000  XYY=     4.0347
  XXY=     5.1053  XXZ=     0.0000  XZZ=    -0.9195  YZZ=     0.3582
  YYZ=     0.0000  XYZ=     0.0000
 Hexadecapole moment (field-independent basis, Debye-Ang**3):
 XXXX=  -150.5831 YYYY=  -130.3495 ZZZZ=   -21.0270 XXXY=     0.0212
 XXXZ=     0.0000 YYYX=    -4.3502 YYYZ=     0.0000 ZZZX=     0.0000
 ZZZY=     0.0000 XXYY=   -52.8017 XXZZ=   -32.5889 YYZZ=   -30.0730
 XXYZ=     0.0000 YYXZ=     0.0000 ZZXY=     1.3844
 N-N= 1.636405015755D+02 E-N=-8.460526362630D+02  KE= 2.199485657209D+02
 Symmetry A'   KE= 2.109589697888D+02
 Symmetry A"   KE= 8.989595932059D+00
 ***** Axes restored to original set *****
 -------------------------------------------------------------------
 Center     Atomic                   Forces (Hartrees/Bohr)
 Number     Number              X              Y              Z
 -------------------------------------------------------------------
    1          7          -0.029800236   -0.095412000    0.000000000
    2          1           0.001309229    0.054256946    0.000000000
    3          6           0.015797967    0.013098958    0.000000000
    4          1           0.026371000    0.013267568    0.000000000
    5          6           0.000554730   -0.006350821    0.000000000
    6          1           0.015856099   -0.025384307    0.000000000
    7          1          -0.028897960    0.013099878    0.000000000
    8          6          -0.014790087    0.033664952    0.000000000
    9          7           0.013599259   -0.000241174    0.000000000
 -------------------------------------------------------------------
 Cartesian Forces:  Max     0.095412000 RMS     0.025610937

 GradGradGradGradGradGradGradGradGradGradGradGradGradGradGradGradGradGrad
 Berny optimization.
 Internal  Forces:  Max     0.080377593 RMS     0.023073681
 Search for a local minimum.
 Step number   1 out of a maximum of  48
 All quantities printed in internal units (Hartrees-Bohrs-Radians)
 Second derivative matrix not updated -- first step.
     Eigenvalues ---    0.01997   0.02158   0.02222   0.02406   0.02463
     Eigenvalues ---    0.02551   0.16000   0.16000   0.16000   0.16000
     Eigenvalues ---    0.22000   0.22912   0.38097   0.38142   0.38213
     Eigenvalues ---    0.42443   0.46026   0.48397   0.48710   0.52859
     Eigenvalues ---    0.643341000.000001000.000001000.000001000.00000
     Eigenvalues --- 1000.000001000.000001000.000001000.000001000.00000
     Eigenvalues --- 1000.000001000.000001000.000001000.000001000.00000
     Eigenvalues --- 1000.000001000.000001000.00000
 RFO step:  Lambda=-3.73382325D-02.
 Linear search not attempted -- first point.
 Iteration  1 RMS(Cart)=  0.05288012 RMS(Int)=  0.00064793
 Iteration  2 RMS(Cart)=  0.00075163 RMS(Int)=  0.00020117
 Iteration  3 RMS(Cart)=  0.00000030 RMS(Int)=  0.00020117
 Variable       Old X    -DE/DX   Delta X   Delta X   Delta X     New X
                                 (Linear)    (Quad)   (Total)
    R1        2.63376   0.03934   0.00000   0.07935   0.07965   2.71341
    R2        2.45618   0.08038   0.00000   0.11715   0.11738   2.57356
    R3        1.87890   0.05426   0.00000   0.10345   0.10345   1.98235
    R4        2.00859   0.02939   0.00000   0.07018   0.07018   2.07876
    R5        2.55571   0.05153   0.00000   0.08447   0.08443   2.64014
    R6        2.61729   0.02723   0.00000   0.04835   0.04800   2.66529
    R7        2.00757   0.02992   0.00000   0.07134   0.07134   2.07891
    R8        2.00925   0.03166   0.00000   0.07568   0.07568   2.08492
    R9        2.58546   0.04757   0.00000   0.08842   0.08828   2.67374
    A1        1.85424  -0.02194   0.00000  -0.06279  -0.06207   1.79218
    A2        2.29754   0.00026   0.00000   0.01367   0.01388   2.31141
    A3        2.13851  -0.00534   0.00000  -0.01473  -0.01452   2.12399
    A4        1.84714   0.00507   0.00000   0.00106   0.00064   1.84778
    A5        1.91516   0.01223   0.00000   0.03909   0.03927   1.95443
    A6        2.12212  -0.00558   0.00000  -0.01682  -0.01691   2.10521
    A7        2.24591  -0.00665   0.00000  -0.02227  -0.02236   2.22355
    A8        2.20116  -0.00139   0.00000  -0.00831  -0.00833   2.19283
    A9        1.93981   0.00711   0.00000   0.03850   0.03854   1.97835
   A10        2.14222  -0.00571   0.00000  -0.03019  -0.03021   2.11200
   A11        2.20343  -0.00005   0.00000   0.00143   0.00169   2.20512
   A12        2.21133   0.00252   0.00000   0.01443   0.01469   2.22602
   A13        1.86843  -0.00247   0.00000  -0.01586  -0.01638   1.85204
    D1        0.00000   0.00000   0.00000   0.00000   0.00000   0.00000
    D2        3.14159   0.00000   0.00000   0.00000   0.00000   3.14159
    D3        3.14159   0.00000   0.00000   0.00000   0.00000   3.14159
    D4        0.00000   0.00000   0.00000   0.00000   0.00000   0.00000
    D5        3.14159   0.00000   0.00000   0.00000   0.00000   3.14159
    D6        0.00000   0.00000   0.00000   0.00000   0.00000   0.00000
    D7        0.00000   0.00000   0.00000   0.00000   0.00000   0.00000
    D8        3.14159   0.00000   0.00000   0.00000   0.00000   3.14159
    D9        0.00000   0.00000   0.00000   0.00000   0.00000   0.00000
   D10        3.14159   0.00000   0.00000   0.00000   0.00000   3.14159
   D11        3.14159   0.00000   0.00000   0.00000   0.00000   3.14159
   D12        0.00000   0.00000   0.00000   0.00000   0.00000   0.00000
   D13        3.14159   0.00000   0.00000   0.00000   0.00000   3.14159
   D14        0.00000   0.00000   0.00000   0.00000   0.00000   0.00000
   D15        0.00000   0.00000   0.00000   0.00000   0.00000   0.00000
   D16        3.14159   0.00000   0.00000   0.00000   0.00000   3.14159
         Item               Value     Threshold  Converged?
 Maximum Force            0.080378     0.000450     NO 
 RMS     Force            0.023074     0.000300     NO 
 Maximum Displacement     0.159233     0.001800     NO 
 RMS     Displacement     0.052693     0.001200     NO 
 Predicted change in Energy=-2.002971D-02
 GradGradGradGradGradGradGradGradGradGradGradGradGradGradGradGradGradGrad

                          Input orientation:                          
 ---------------------------------------------------------------------
 Center     Atomic     Atomic              Coordinates (Angstroms)
 Number     Number      Type              X           Y           Z
 ---------------------------------------------------------------------
    1          7             0       -0.789858   -1.047321    0.000000
    2          1             0        0.008778    2.181541    0.000000
    3          6             0        1.138621    0.292941    0.000000
    4          1             0        2.160188    0.700957    0.000000
    5          6             0        0.645637   -1.014294    0.000000
    6          1             0        1.227592   -1.947873    0.000000
    7          1             0       -2.144920    0.680914    0.000000
    8          6             0       -1.119373    0.274085    0.000000
    9          7             0        0.005330    1.132531    0.000000
 ---------------------------------------------------------------------
                    Distance matrix (angstroms):
                    1          2          3          4          5
     1  N    0.000000
     2  H    3.326164   0.000000
     3  C    2.348475   2.200762   0.000000
     4  H    3.429176   2.611646   1.100035   0.000000
     5  C    1.435875   3.258672   1.397103   2.288220   0.000000
     6  H    2.209321   4.305527   2.242579   2.808208   1.100110
     7  H    2.196130   2.624937   3.306382   4.305155   3.265109
     8  C    1.361871   2.216103   2.258073   3.307226   2.185218
     9  N    2.320362   1.049015   1.410411   2.197651   2.240279
                    6          7          8          9
     6  H    0.000000
     7  H    4.276021   0.000000
     8  C    3.231925   1.103293   0.000000
     9  N    3.314032   2.197165   1.414880   0.000000
 Stoichiometry    C3H4N2
 Framework group  CS[SG(C3H4N2)]
 Deg. of freedom    15
 Full point group                 CS      NOp   2
 Largest Abelian subgroup         CS      NOp   2
 Largest concise Abelian subgroup C1      NOp   1
                         Standard orientation:                         
 ---------------------------------------------------------------------
 Center     Atomic     Atomic              Coordinates (Angstroms)
 Number     Number      Type              X           Y           Z
 ---------------------------------------------------------------------
    1          7             0       -0.771749   -1.042563    0.000000
    2          1             0       -0.007810    2.194683    0.000000
    3          6             0        1.142236    0.318317    0.000000
    4          1             0        2.159366    0.737272    0.000000
    5          6             0        0.663309   -0.994133    0.000000
    6          1             0        1.255249   -1.921412    0.000000
    7          1             0       -2.145279    0.671030    0.000000
    8          6             0       -1.115426    0.275230    0.000000
    9          7             0        0.000000    1.145697    0.000000
 ---------------------------------------------------------------------
 Rotational constants (GHZ):      9.3358881      8.6988027      4.5030464
 Standard basis: STO-3G (5D, 7F)
 There are    24 symmetry adapted basis functions of A'  symmetry.
 There are     5 symmetry adapted basis functions of A"  symmetry.
 Integral buffers will be    262144 words long.
 Raffenetti 1 integral format.
 Two-electron integral symmetry is turned on.
    29 basis functions,    87 primitive gaussians,    29 cartesian basis functions
    18 alpha electrons       18 beta electrons
       nuclear repulsion energy       158.3328538418 Hartrees.
 NAtoms=    9 NActive=    9 NUniq=    9 SFac= 1.00D+00 NAtFMM=   60 Big=F
 One-electron integrals computed using PRISM.
 NBasis=    29 RedAO= T  NBF=    24     5
 NBsUse=    29 1.00D-06 NBFU=    24     5
 Initial guess read from the read-write file:
 Initial guess orbital symmetries:
       Occupied  (A') (A') (A') (A') (A') (A') (A') (A') (A') (A')
                 (A') (A") (A') (A') (A') (A') (A") (A")
       Virtual   (A") (A") (A') (A') (A') (A') (A') (A') (A') (A')
                 (A')
 Harris functional with IExCor=  205 diagonalized for initial guess.
 ExpMin= 1.69D-01 ExpMax= 9.91D+01 ExpMxC= 9.91D+01 IAcc=1 IRadAn=         1 AccDes= 1.00D-06
 HarFok:  IExCor= 205 AccDes= 1.00D-06 IRadAn=         1 IDoV=1
 ScaDFX=  1.000000  1.000000  1.000000  1.000000
 Requested convergence on RMS density matrix=1.00D-08 within 128 cycles.
 Requested convergence on MAX density matrix=1.00D-06.
 Requested convergence on             energy=1.00D-06.
 No special actions if energy rises.
 Keep R1 integrals in memory in canonical form, NReq=      528061.
 SCF Done:  E(RHF) =  -221.977711601     A.U. after   12 cycles
             Convg  =    0.6579D-08             -V/T =  2.0112
             S**2   =   0.0000
 ExpMin= 1.69D-01 ExpMax= 9.91D+01 ExpMxC= 9.91D+01 IAcc=1 IRadAn=         1 AccDes= 1.00D-06
 HarFok:  IExCor= 205 AccDes= 1.00D-06 IRadAn=         1 IDoV=1
 ScaDFX=  1.000000  1.000000  1.000000  1.000000
 Range of M.O.s used for correlation:     6    29
 NBasis=    29 NAE=    18 NBE=    18 NFC=     5 NFV=     0
 NROrb=     24 NOA=    13 NOB=    13 NVA=    11 NVB=    11
 Fully direct method using O(ONN) memory.
 JobTyp=1 Pass  1:  I=   6 to  18 NPSUse=  1 ParTrn=F ParDer=F DoDerP=T.
 Spin components of T(2) and E(2):
     alpha-alpha T2 =       0.1541672667D-01 E2=     -0.3190952433D-01
     alpha-beta  T2 =       0.1169507559D+00 E2=     -0.2429643175D+00
     beta-beta   T2 =       0.1541672667D-01 E2=     -0.3190952433D-01
 ANorm=    0.1071346914D+01
 E2 =    -0.3067833661D+00 EUMP2 =    -0.22228449496750D+03
          Differentiating once with respect to electric field.
                with respect to dipole field.
          Differentiating once with respect to nuclear coordinates.
          Store integrals in memory, NReq=      496074.
          There are   1 degrees of freedom in the 1st order CPHF.
     1 vectors were produced by pass  0.
 AX will form   1 AO Fock derivatives at one time.
     1 vectors were produced by pass  1.
     1 vectors were produced by pass  2.
     1 vectors were produced by pass  3.
     1 vectors were produced by pass  4.
     1 vectors were produced by pass  5.
     1 vectors were produced by pass  6.
     1 vectors were produced by pass  7.
     1 vectors were produced by pass  8.
     1 vectors were produced by pass  9.
     1 vectors were produced by pass 10.
     1 vectors were produced by pass 11.
     1 vectors were produced by pass 12.
 Inv2:  IOpt= 1 Iter= 1 AM= 5.58D-16 Conv= 1.00D-12.
 Inverted reduced A of dimension   13 with in-core refinement.
 End of Minotr Frequency-dependent properties file   721 does not exist.
 ***** Axes restored to original set *****
 -------------------------------------------------------------------
 Center     Atomic                   Forces (Hartrees/Bohr)
 Number     Number              X              Y              Z
 -------------------------------------------------------------------
    1          7           0.000540704   -0.004895329    0.000000000
    2          1          -0.000841486   -0.006541305    0.000000000
    3          6           0.003474905   -0.006503639    0.000000000
    4          1          -0.003327956   -0.001293494    0.000000000
    5          6           0.007868260    0.005718083    0.000000000
    6          1          -0.001014003    0.003076867    0.000000000
    7          1           0.003405439   -0.001015105    0.000000000
    8          6          -0.005558296    0.015465824    0.000000000
    9          7          -0.004547569   -0.004011902    0.000000000
 -------------------------------------------------------------------
 Cartesian Forces:  Max     0.015465824 RMS     0.004552024

 GradGradGradGradGradGradGradGradGradGradGradGradGradGradGradGradGradGrad
 Berny optimization.
 Internal  Forces:  Max     0.009492984 RMS     0.003088757
 Search for a local minimum.
 Step number   2 out of a maximum of  48
 All quantities printed in internal units (Hartrees-Bohrs-Radians)
 Update second derivatives using D2CorX and points  1  2
 Trust test= 8.31D-01 RLast= 2.71D-01 DXMaxT set to 4.24D-01
     Eigenvalues ---    0.01998   0.02161   0.02234   0.02413   0.02467
     Eigenvalues ---    0.02547   0.15986   0.16000   0.16000   0.16022
     Eigenvalues ---    0.21956   0.23538   0.38117   0.38184   0.39489
     Eigenvalues ---    0.42348   0.46134   0.47747   0.49638   0.58228
     Eigenvalues ---    0.632081000.000001000.000001000.000001000.00000
     Eigenvalues --- 1000.000001000.000001000.000001000.000001000.00000
     Eigenvalues --- 1000.000001000.000001000.000001000.000001000.00000
     Eigenvalues --- 1000.000001000.000001000.00000
 RFO step:  Lambda=-6.69198255D-04.
 Quartic linear search produced a step of -0.06392.
 Iteration  1 RMS(Cart)=  0.00933711 RMS(Int)=  0.00004708
 Iteration  2 RMS(Cart)=  0.00004351 RMS(Int)=  0.00002756
 Iteration  3 RMS(Cart)=  0.00000000 RMS(Int)=  0.00002756
 Variable       Old X    -DE/DX   Delta X   Delta X   Delta X     New X
                                 (Linear)    (Quad)   (Total)
    R1        2.71341   0.00408  -0.00509   0.01509   0.00995   2.72336
    R2        2.57356   0.00617  -0.00750   0.01890   0.01138   2.58494
    R3        1.98235  -0.00654  -0.00661  -0.00436  -0.01098   1.97137
    R4        2.07876  -0.00357  -0.00449  -0.00327  -0.00776   2.07101
    R5        2.64014  -0.00949  -0.00540  -0.01028  -0.01569   2.62445
    R6        2.66529   0.00157  -0.00307   0.00565   0.00262   2.66791
    R7        2.07891  -0.00315  -0.00456  -0.00213  -0.00669   2.07222
    R8        2.08492  -0.00354  -0.00484  -0.00278  -0.00762   2.07731
    R9        2.67374  -0.00758  -0.00564  -0.00663  -0.01223   2.66150
    A1        1.79218   0.00040   0.00397   0.00212   0.00600   1.79817
    A2        2.31141   0.00027  -0.00089   0.00442   0.00352   2.31493
    A3        2.12399   0.00020   0.00093   0.00202   0.00293   2.12692
    A4        1.84778  -0.00046  -0.00004  -0.00644  -0.00645   1.84134
    A5        1.95443   0.00007  -0.00251   0.00264   0.00008   1.95451
    A6        2.10521   0.00076   0.00108   0.00352   0.00462   2.10983
    A7        2.22355  -0.00083   0.00143  -0.00616  -0.00470   2.21884
    A8        2.19283   0.00285   0.00053   0.01067   0.01119   2.20402
    A9        1.97835  -0.00506  -0.00246  -0.01601  -0.01845   1.95990
   A10        2.11200   0.00220   0.00193   0.00534   0.00726   2.11926
   A11        2.20512  -0.00171  -0.00011  -0.00457  -0.00472   2.20041
   A12        2.22602  -0.00334  -0.00094  -0.01312  -0.01410   2.21192
   A13        1.85204   0.00505   0.00105   0.01769   0.01882   1.87086
    D1        0.00000   0.00000   0.00000   0.00000   0.00000   0.00000
    D2        3.14159   0.00000   0.00000   0.00000   0.00000   3.14159
    D3        3.14159   0.00000   0.00000   0.00000   0.00000   3.14159
    D4        0.00000   0.00000   0.00000   0.00000   0.00000   0.00000
    D5        3.14159   0.00000   0.00000   0.00000   0.00000   3.14159
    D6        0.00000   0.00000   0.00000   0.00000   0.00000   0.00000
    D7        0.00000   0.00000   0.00000   0.00000   0.00000   0.00000
    D8        3.14159   0.00000   0.00000   0.00000   0.00000   3.14159
    D9        0.00000   0.00000   0.00000   0.00000   0.00000   0.00000
   D10        3.14159   0.00000   0.00000   0.00000   0.00000   3.14159
   D11        3.14159   0.00000   0.00000   0.00000   0.00000   3.14159
   D12        0.00000   0.00000   0.00000   0.00000   0.00000   0.00000
   D13        3.14159   0.00000   0.00000   0.00000   0.00000   3.14159
   D14        0.00000   0.00000   0.00000   0.00000   0.00000   0.00000
   D15        0.00000   0.00000   0.00000   0.00000   0.00000   0.00000
   D16        3.14159   0.00000   0.00000   0.00000   0.00000   3.14159
         Item               Value     Threshold  Converged?
 Maximum Force            0.009493     0.000450     NO 
 RMS     Force            0.003089     0.000300     NO 
 Maximum Displacement     0.031226     0.001800     NO 
 RMS     Displacement     0.009342     0.001200     NO 
 Predicted change in Energy=-3.951240D-04
 GradGradGradGradGradGradGradGradGradGradGradGradGradGradGradGradGradGrad

                          Input orientation:                          
 ---------------------------------------------------------------------
 Center     Atomic     Atomic              Coordinates (Angstroms)
 Number     Number      Type              X           Y           Z
 ---------------------------------------------------------------------
    1          7             0       -0.789223   -1.043614    0.000000
    2          1             0        0.004989    2.165017    0.000000
    3          6             0        1.142242    0.288168    0.000000
    4          1             0        2.158763    0.697738    0.000000
    5          6             0        0.651548   -1.011056    0.000000
    6          1             0        1.235545   -1.939179    0.000000
    7          1             0       -2.147116    0.692830    0.000000
    8          6             0       -1.127604    0.281765    0.000000
    9          7             0        0.002852    1.121812    0.000000
 ---------------------------------------------------------------------
                    Distance matrix (angstroms):
                    1          2          3          4          5
     1  N    0.000000
     2  H    3.305463   0.000000
     3  C    2.346103   2.194517   0.000000
     4  H    3.423876   2.606080   1.095930   0.000000
     5  C    1.441140   3.241215   1.388799   2.278524   0.000000
     6  H    2.213984   4.284704   2.229300   2.793861   1.096569
     7  H    2.204339   2.607468   3.314155   4.305882   3.276545
     8  C    1.367893   2.197590   2.269854   3.312588   2.199266
     9  N    2.305744   1.043207   1.411797   2.197223   2.229335
                    6          7          8          9
     6  H    0.000000
     7  H    4.286008   0.000000
     8  C    3.243003   1.099263   0.000000
     9  N    3.299879   2.192348   1.408406   0.000000
 Stoichiometry    C3H4N2
 Framework group  CS[SG(C3H4N2)]
 Deg. of freedom    15
 Full point group                 CS      NOp   2
 Largest Abelian subgroup         CS      NOp   2
 Largest concise Abelian subgroup C1      NOp   1
                         Standard orientation:                         
 ---------------------------------------------------------------------
 Center     Atomic     Atomic              Coordinates (Angstroms)
 Number     Number      Type              X           Y           Z
 ---------------------------------------------------------------------
    1          7             0       -0.773078   -1.037010    0.000000
    2          1             0       -0.007001    2.178454    0.000000
    3          6             0        1.146648    0.311638    0.000000
    4          1             0        2.159543    0.730096    0.000000
    5          6             0        0.667353   -0.991834    0.000000
    6          1             0        1.259457   -1.914806    0.000000
    7          1             0       -2.146128    0.687474    0.000000
    8          6             0       -1.123054    0.285355    0.000000
    9          7             0        0.000000    1.135271    0.000000
 ---------------------------------------------------------------------
 Rotational constants (GHZ):      9.2577404      8.7956394      4.5103879
 Standard basis: STO-3G (5D, 7F)
 There are    24 symmetry adapted basis functions of A'  symmetry.
 There are     5 symmetry adapted basis functions of A"  symmetry.
 Integral buffers will be    262144 words long.
 Raffenetti 1 integral format.
 Two-electron integral symmetry is turned on.
    29 basis functions,    87 primitive gaussians,    29 cartesian basis functions
    18 alpha electrons       18 beta electrons
       nuclear repulsion energy       158.4586097510 Hartrees.
 NAtoms=    9 NActive=    9 NUniq=    9 SFac= 1.00D+00 NAtFMM=   60 Big=F
 One-electron integrals computed using PRISM.
 NBasis=    29 RedAO= T  NBF=    24     5
 NBsUse=    29 1.00D-06 NBFU=    24     5
 Initial guess read from the read-write file:
 Initial guess orbital symmetries:
       Occupied  (A') (A') (A') (A') (A') (A') (A') (A') (A') (A')
                 (A') (A') (A') (A") (A') (A') (A") (A")
       Virtual   (A") (A") (A') (A') (A') (A') (A') (A') (A') (A')
                 (A')
 Harris functional with IExCor=  205 diagonalized for initial guess.
 ExpMin= 1.69D-01 ExpMax= 9.91D+01 ExpMxC= 9.91D+01 IAcc=1 IRadAn=         1 AccDes= 1.00D-06
 HarFok:  IExCor= 205 AccDes= 1.00D-06 IRadAn=         1 IDoV=1
 ScaDFX=  1.000000  1.000000  1.000000  1.000000
 Requested convergence on RMS density matrix=1.00D-08 within 128 cycles.
 Requested convergence on MAX density matrix=1.00D-06.
 Requested convergence on             energy=1.00D-06.
 No special actions if energy rises.
 Keep R1 integrals in memory in canonical form, NReq=      528061.
 SCF Done:  E(RHF) =  -221.978980007     A.U. after   11 cycles
             Convg  =    0.2457D-08             -V/T =  2.0112
             S**2   =   0.0000
 ExpMin= 1.69D-01 ExpMax= 9.91D+01 ExpMxC= 9.91D+01 IAcc=1 IRadAn=         1 AccDes= 1.00D-06
 HarFok:  IExCor= 205 AccDes= 1.00D-06 IRadAn=         1 IDoV=1
 ScaDFX=  1.000000  1.000000  1.000000  1.000000
 Range of M.O.s used for correlation:     6    29
 NBasis=    29 NAE=    18 NBE=    18 NFC=     5 NFV=     0
 NROrb=     24 NOA=    13 NOB=    13 NVA=    11 NVB=    11
 Fully direct method using O(ONN) memory.
 JobTyp=1 Pass  1:  I=   6 to  18 NPSUse=  1 ParTrn=F ParDer=F DoDerP=T.
 Spin components of T(2) and E(2):
     alpha-alpha T2 =       0.1535584308D-01 E2=     -0.3179967014D-01
     alpha-beta  T2 =       0.1164821309D+00 E2=     -0.2422775117D+00
     beta-beta   T2 =       0.1535584308D-01 E2=     -0.3179967014D-01
 ANorm=    0.1071071341D+01
 E2 =    -0.3058768520D+00 EUMP2 =    -0.22228485685903D+03
          Differentiating once with respect to electric field.
                with respect to dipole field.
          Differentiating once with respect to nuclear coordinates.
          Store integrals in memory, NReq=      496074.
          There are   1 degrees of freedom in the 1st order CPHF.
     1 vectors were produced by pass  0.
 AX will form   1 AO Fock derivatives at one time.
     1 vectors were produced by pass  1.
     1 vectors were produced by pass  2.
     1 vectors were produced by pass  3.
     1 vectors were produced by pass  4.
     1 vectors were produced by pass  5.
     1 vectors were produced by pass  6.
     1 vectors were produced by pass  7.
     1 vectors were produced by pass  8.
     1 vectors were produced by pass  9.
     1 vectors were produced by pass 10.
     1 vectors were produced by pass 11.
     1 vectors were produced by pass 12.
 Inv2:  IOpt= 1 Iter= 1 AM= 6.75D-16 Conv= 1.00D-12.
 Inverted reduced A of dimension   13 with in-core refinement.
 End of Minotr Frequency-dependent properties file   721 does not exist.
 ***** Axes restored to original set *****
 -------------------------------------------------------------------
 Center     Atomic                   Forces (Hartrees/Bohr)
 Number     Number              X              Y              Z
 -------------------------------------------------------------------
    1          7          -0.000575807   -0.004593143    0.000000000
    2          1          -0.000049002   -0.000500299    0.000000000
    3          6          -0.001925820   -0.001138206    0.000000000
    4          1          -0.000506571    0.000394034    0.000000000
    5          6          -0.000682586    0.002013651    0.000000000
    6          1          -0.000524317   -0.000014295    0.000000000
    7          1           0.000530267   -0.000399890    0.000000000
    8          6           0.004458567    0.002860910    0.000000000
    9          7          -0.000724732    0.001377239    0.000000000
 -------------------------------------------------------------------
 Cartesian Forces:  Max     0.004593143 RMS     0.001525341

 GradGradGradGradGradGradGradGradGradGradGradGradGradGradGradGradGradGrad
 Berny optimization.
 Internal  Forces:  Max     0.002797525 RMS     0.001029258
 Search for a local minimum.
 Step number   3 out of a maximum of  48
 All quantities printed in internal units (Hartrees-Bohrs-Radians)
 Update second derivatives using D2CorX and points  1  2  3
 Trust test= 9.16D-01 RLast= 4.64D-02 DXMaxT set to 4.24D-01
     Eigenvalues ---    0.01997   0.02157   0.02231   0.02414   0.02467
     Eigenvalues ---    0.02545   0.15826   0.16000   0.16014   0.16133
     Eigenvalues ---    0.21994   0.30006   0.37931   0.38167   0.38618
     Eigenvalues ---    0.41102   0.45701   0.48353   0.49702   0.52554
     Eigenvalues ---    0.636701000.000001000.000001000.000001000.00000
     Eigenvalues --- 1000.000001000.000001000.000001000.000001000.00000
     Eigenvalues --- 1000.000001000.000001000.000001000.000001000.00000
     Eigenvalues --- 1000.000001000.000001000.00000
 RFO step:  Lambda=-1.03929537D-04.
 Quartic linear search produced a step of -0.09681.
 Iteration  1 RMS(Cart)=  0.00344251 RMS(Int)=  0.00000787
 Iteration  2 RMS(Cart)=  0.00000773 RMS(Int)=  0.00000411
 Iteration  3 RMS(Cart)=  0.00000000 RMS(Int)=  0.00000411
 Variable       Old X    -DE/DX   Delta X   Delta X   Delta X     New X
                                 (Linear)    (Quad)   (Total)
    R1        2.72336  -0.00130  -0.00096   0.00008  -0.00088   2.72248
    R2        2.58494   0.00235  -0.00110   0.00612   0.00503   2.58997
    R3        1.97137  -0.00050   0.00106  -0.00339  -0.00233   1.96904
    R4        2.07101  -0.00032   0.00075  -0.00250  -0.00175   2.06926
    R5        2.62445  -0.00035   0.00152  -0.00430  -0.00278   2.62167
    R6        2.66791  -0.00161  -0.00025  -0.00253  -0.00279   2.66512
    R7        2.07222  -0.00027   0.00065  -0.00211  -0.00146   2.07075
    R8        2.07731  -0.00064   0.00074  -0.00321  -0.00247   2.07483
    R9        2.66150  -0.00220   0.00118  -0.00664  -0.00546   2.65605
    A1        1.79817  -0.00280  -0.00058  -0.00822  -0.00878   1.78939
    A2        2.31493   0.00007  -0.00034   0.00254   0.00220   2.31714
    A3        2.12692  -0.00108  -0.00028  -0.00414  -0.00442   2.12250
    A4        1.84134   0.00101   0.00062   0.00159   0.00221   1.84355
    A5        1.95451   0.00093  -0.00001   0.00355   0.00355   1.95806
    A6        2.10983  -0.00093  -0.00045  -0.00329  -0.00374   2.10609
    A7        2.21884   0.00000   0.00046  -0.00026   0.00019   2.21904
    A8        2.20402  -0.00141  -0.00108  -0.00346  -0.00454   2.19948
    A9        1.95990   0.00245   0.00179   0.00589   0.00768   1.96758
   A10        2.11926  -0.00105  -0.00070  -0.00243  -0.00313   2.11613
   A11        2.20041   0.00085   0.00046   0.00278   0.00324   2.20364
   A12        2.21192   0.00075   0.00137   0.00005   0.00142   2.21334
   A13        1.87086  -0.00160  -0.00182  -0.00282  -0.00466   1.86620
    D1        0.00000   0.00000   0.00000   0.00000   0.00000   0.00000
    D2        3.14159   0.00000   0.00000   0.00000   0.00000   3.14159
    D3        3.14159   0.00000   0.00000   0.00000   0.00000   3.14159
    D4        0.00000   0.00000   0.00000   0.00000   0.00000   0.00000
    D5        3.14159   0.00000   0.00000   0.00000   0.00000   3.14159
    D6        0.00000   0.00000   0.00000   0.00000   0.00000   0.00000
    D7        0.00000   0.00000   0.00000   0.00000   0.00000   0.00000
    D8        3.14159   0.00000   0.00000   0.00000   0.00000   3.14159
    D9        0.00000   0.00000   0.00000   0.00000   0.00000   0.00000
   D10        3.14159   0.00000   0.00000   0.00000   0.00000   3.14159
   D11        3.14159   0.00000   0.00000   0.00000   0.00000   3.14159
   D12        0.00000   0.00000   0.00000   0.00000   0.00000   0.00000
   D13        3.14159   0.00000   0.00000   0.00000   0.00000   3.14159
   D14        0.00000   0.00000   0.00000   0.00000   0.00000   0.00000
   D15        0.00000   0.00000   0.00000   0.00000   0.00000   0.00000
   D16        3.14159   0.00000   0.00000   0.00000   0.00000   3.14159
         Item               Value     Threshold  Converged?
 Maximum Force            0.002798     0.000450     NO 
 RMS     Force            0.001029     0.000300     NO 
 Maximum Displacement     0.012281     0.001800     NO 
 RMS     Displacement     0.003445     0.001200     NO 
 Predicted change in Energy=-5.620211D-05
 GradGradGradGradGradGradGradGradGradGradGradGradGradGradGradGradGradGrad

                          Input orientation:                          
 ---------------------------------------------------------------------
 Center     Atomic     Atomic              Coordinates (Angstroms)
 Number     Number      Type              X           Y           Z
 ---------------------------------------------------------------------
    1          7             0       -0.790328   -1.047989    0.000000
    2          1             0        0.004385    2.164864    0.000000
    3          6             0        1.139879    0.287730    0.000000
    4          1             0        2.154593    0.699304    0.000000
    5          6             0        0.649850   -1.010171    0.000000
    6          1             0        1.233356   -1.937687    0.000000
    7          1             0       -2.140617    0.692852    0.000000
    8          6             0       -1.122558    0.281687    0.000000
    9          7             0        0.003435    1.122891    0.000000
 ---------------------------------------------------------------------
                    Distance matrix (angstroms):
                    1          2          3          4          5
     1  N    0.000000
     2  H    3.309682   0.000000
     3  C    2.347306   2.193850   0.000000
     4  H    3.424265   2.602164   1.095005   0.000000
     5  C    1.440674   3.239980   1.387327   2.277401   0.000000
     6  H    2.210625   4.282674   2.227380   2.793278   1.095795
     7  H    2.203136   2.601510   3.305417   4.295215   3.269097
     8  C    1.370553   2.194620   2.262445   3.303652   2.193245
     9  N    2.311446   1.041974   1.410318   2.192465   2.228857
                    6          7          8          9
     6  H    0.000000
     7  H    4.278251   0.000000
     8  C    3.236657   1.097954   0.000000
     9  N    3.298461   2.186755   1.405519   0.000000
 Stoichiometry    C3H4N2
 Framework group  CS[SG(C3H4N2)]
 Deg. of freedom    15
 Full point group                 CS      NOp   2
 Largest Abelian subgroup         CS      NOp   2
 Largest concise Abelian subgroup C1      NOp   1
                         Standard orientation:                         
 ---------------------------------------------------------------------
 Center     Atomic     Atomic              Coordinates (Angstroms)
 Number     Number      Type              X           Y           Z
 ---------------------------------------------------------------------
    1          7             0       -0.773723   -1.041251    0.000000
    2          1             0       -0.008653    2.178790    0.000000
    3          6             0        1.144092    0.312201    0.000000
    4          1             0        2.154970    0.733109    0.000000
    5          6             0        0.666045   -0.990162    0.000000
    6          1             0        1.258075   -1.912261    0.000000
    7          1             0       -2.139999    0.687072    0.000000
    8          6             0       -1.118193    0.285307    0.000000
    9          7             0        0.000000    1.136853    0.000000
 ---------------------------------------------------------------------
 Rotational constants (GHZ):      9.2983414      8.7782627      4.5154102
 Standard basis: STO-3G (5D, 7F)
 There are    24 symmetry adapted basis functions of A'  symmetry.
 There are     5 symmetry adapted basis functions of A"  symmetry.
 Integral buffers will be    262144 words long.
 Raffenetti 1 integral format.
 Two-electron integral symmetry is turned on.
    29 basis functions,    87 primitive gaussians,    29 cartesian basis functions
    18 alpha electrons       18 beta electrons
       nuclear repulsion energy       158.5541879069 Hartrees.
 NAtoms=    9 NActive=    9 NUniq=    9 SFac= 1.00D+00 NAtFMM=   60 Big=F
 One-electron integrals computed using PRISM.
 NBasis=    29 RedAO= T  NBF=    24     5
 NBsUse=    29 1.00D-06 NBFU=    24     5
 Initial guess read from the read-write file:
 Initial guess orbital symmetries:
       Occupied  (A') (A') (A') (A') (A') (A') (A') (A') (A') (A')
                 (A') (A') (A') (A") (A') (A') (A") (A")
       Virtual   (A") (A") (A') (A') (A') (A') (A') (A') (A') (A')
                 (A')
 Requested convergence on RMS density matrix=1.00D-08 within 128 cycles.
 Requested convergence on MAX density matrix=1.00D-06.
 Requested convergence on             energy=1.00D-06.
 No special actions if energy rises.
 Keep R1 integrals in memory in canonical form, NReq=      528061.
 SCF Done:  E(RHF) =  -221.979097258     A.U. after   11 cycles
             Convg  =    0.2912D-08             -V/T =  2.0111
             S**2   =   0.0000
 ExpMin= 1.69D-01 ExpMax= 9.91D+01 ExpMxC= 9.91D+01 IAcc=1 IRadAn=         1 AccDes= 1.00D-06
 HarFok:  IExCor= 205 AccDes= 1.00D-06 IRadAn=         1 IDoV=1
 ScaDFX=  1.000000  1.000000  1.000000  1.000000
 Range of M.O.s used for correlation:     6    29
 NBasis=    29 NAE=    18 NBE=    18 NFC=     5 NFV=     0
 NROrb=     24 NOA=    13 NOB=    13 NVA=    11 NVB=    11
 Fully direct method using O(ONN) memory.
 JobTyp=1 Pass  1:  I=   6 to  18 NPSUse=  1 ParTrn=F ParDer=F DoDerP=T.
 Spin components of T(2) and E(2):
     alpha-alpha T2 =       0.1535710553D-01 E2=     -0.3180803273D-01
     alpha-beta  T2 =       0.1163961100D+00 E2=     -0.2421912789D+00
     beta-beta   T2 =       0.1535710553D-01 E2=     -0.3180803273D-01
 ANorm=    0.1071032362D+01
 E2 =    -0.3058073444D+00 EUMP2 =    -0.22228490460259D+03
          Differentiating once with respect to electric field.
                with respect to dipole field.
          Differentiating once with respect to nuclear coordinates.
          Store integrals in memory, NReq=      496074.
          There are   1 degrees of freedom in the 1st order CPHF.
     1 vectors were produced by pass  0.
 AX will form   1 AO Fock derivatives at one time.
     1 vectors were produced by pass  1.
     1 vectors were produced by pass  2.
     1 vectors were produced by pass  3.
     1 vectors were produced by pass  4.
     1 vectors were produced by pass  5.
     1 vectors were produced by pass  6.
     1 vectors were produced by pass  7.
     1 vectors were produced by pass  8.
     1 vectors were produced by pass  9.
     1 vectors were produced by pass 10.
     1 vectors were produced by pass 11.
     1 vectors were produced by pass 12.
 Inv2:  IOpt= 1 Iter= 1 AM= 6.58D-16 Conv= 1.00D-12.
 Inverted reduced A of dimension   13 with in-core refinement.
 End of Minotr Frequency-dependent properties file   721 does not exist.
 ***** Axes restored to original set *****
 -------------------------------------------------------------------
 Center     Atomic                   Forces (Hartrees/Bohr)
 Number     Number              X              Y              Z
 -------------------------------------------------------------------
    1          7           0.000096622    0.000153947    0.000000000
    2          1          -0.000053614    0.000554392    0.000000000
    3          6           0.000281773   -0.000072941    0.000000000
    4          1           0.000433516    0.000178603    0.000000000
    5          6          -0.000013472   -0.000347745    0.000000000
    6          1           0.000188785   -0.000389327    0.000000000
    7          1          -0.000627285    0.000002270    0.000000000
    8          6           0.000019045    0.000400567    0.000000000
    9          7          -0.000325370   -0.000479767    0.000000000
 -------------------------------------------------------------------
 Cartesian Forces:  Max     0.000627285 RMS     0.000261512

 GradGradGradGradGradGradGradGradGradGradGradGradGradGradGradGradGradGrad
 Berny optimization.
 Internal  Forces:  Max     0.000742807 RMS     0.000258495
 Search for a local minimum.
 Step number   4 out of a maximum of  48
 All quantities printed in internal units (Hartrees-Bohrs-Radians)
 Update second derivatives using D2CorX and points  1  2  3  4
 Trust test= 8.49D-01 RLast= 1.86D-02 DXMaxT set to 4.24D-01
     Eigenvalues ---    0.01997   0.02159   0.02233   0.02415   0.02467
     Eigenvalues ---    0.02545   0.15450   0.16004   0.16085   0.16116
     Eigenvalues ---    0.22384   0.32376   0.38150   0.38177   0.39815
     Eigenvalues ---    0.40470   0.46896   0.47414   0.50003   0.55516
     Eigenvalues ---    0.623441000.000001000.000001000.000001000.00000
     Eigenvalues --- 1000.000001000.000001000.000001000.000001000.00000
     Eigenvalues --- 1000.000001000.000001000.000001000.000001000.00000
     Eigenvalues --- 1000.000001000.000001000.00000
 RFO step:  Lambda=-3.38702128D-06.
 Quartic linear search produced a step of -0.13113.
 Iteration  1 RMS(Cart)=  0.00086166 RMS(Int)=  0.00000054
 Iteration  2 RMS(Cart)=  0.00000051 RMS(Int)=  0.00000032
 Variable       Old X    -DE/DX   Delta X   Delta X   Delta X     New X
                                 (Linear)    (Quad)   (Total)
    R1        2.72248   0.00021   0.00012   0.00008   0.00020   2.72268
    R2        2.58997   0.00021  -0.00066   0.00092   0.00026   2.59023
    R3        1.96904   0.00055   0.00031   0.00067   0.00098   1.97002
    R4        2.06926   0.00047   0.00023   0.00082   0.00105   2.07031
    R5        2.62167   0.00042   0.00036   0.00039   0.00076   2.62242
    R6        2.66512   0.00074   0.00037   0.00083   0.00120   2.66631
    R7        2.07075   0.00043   0.00019   0.00076   0.00095   2.07171
    R8        2.07483   0.00058   0.00032   0.00095   0.00127   2.07610
    R9        2.65605   0.00008   0.00072  -0.00068   0.00003   2.65608
    A1        1.78939   0.00048   0.00115   0.00009   0.00124   1.79063
    A2        2.31714   0.00005  -0.00029   0.00040   0.00011   2.31725
    A3        2.12250   0.00004   0.00058  -0.00069  -0.00011   2.12239
    A4        1.84355  -0.00009  -0.00029   0.00028   0.00000   1.84354
    A5        1.95806  -0.00027  -0.00047  -0.00036  -0.00082   1.95723
    A6        2.10609   0.00008   0.00049  -0.00047   0.00002   2.10611
    A7        2.21904   0.00018  -0.00003   0.00083   0.00081   2.21984
    A8        2.19948  -0.00009   0.00060  -0.00155  -0.00095   2.19853
    A9        1.96758  -0.00030  -0.00101   0.00020  -0.00081   1.96677
   A10        2.11613   0.00039   0.00041   0.00135   0.00176   2.11789
   A11        2.20364  -0.00004  -0.00042   0.00050   0.00007   2.20372
   A12        2.21334  -0.00014  -0.00019  -0.00029  -0.00047   2.21286
   A13        1.86620   0.00018   0.00061  -0.00021   0.00040   1.86660
    D1        0.00000   0.00000   0.00000   0.00000   0.00000   0.00000
    D2        3.14159   0.00000   0.00000   0.00000   0.00000   3.14159
    D3        3.14159   0.00000   0.00000   0.00000   0.00000   3.14159
    D4        0.00000   0.00000   0.00000   0.00000   0.00000   0.00000
    D5        3.14159   0.00000   0.00000   0.00000   0.00000   3.14159
    D6        0.00000   0.00000   0.00000   0.00000   0.00000   0.00000
    D7        0.00000   0.00000   0.00000   0.00000   0.00000   0.00000
    D8        3.14159   0.00000   0.00000   0.00000   0.00000   3.14159
    D9        0.00000   0.00000   0.00000   0.00000   0.00000   0.00000
   D10        3.14159   0.00000   0.00000   0.00000   0.00000   3.14159
   D11        3.14159   0.00000   0.00000   0.00000   0.00000   3.14159
   D12        0.00000   0.00000   0.00000   0.00000   0.00000   0.00000
   D13        3.14159   0.00000   0.00000   0.00000   0.00000   3.14159
   D14        0.00000   0.00000   0.00000   0.00000   0.00000   0.00000
   D15        0.00000   0.00000   0.00000   0.00000   0.00000   0.00000
   D16        3.14159   0.00000   0.00000   0.00000   0.00000   3.14159
         Item               Value     Threshold  Converged?
 Maximum Force            0.000743     0.000450     NO 
 RMS     Force            0.000258     0.000300     YES
 Maximum Displacement     0.002949     0.001800     NO 
 RMS     Displacement     0.000862     0.001200     YES
 Predicted change in Energy=-2.810725D-06
 GradGradGradGradGradGradGradGradGradGradGradGradGradGradGradGradGradGrad

                          Input orientation:                          
 ---------------------------------------------------------------------
 Center     Atomic     Atomic              Coordinates (Angstroms)
 Number     Number      Type              X           Y           Z
 ---------------------------------------------------------------------
    1          7             0       -0.790044   -1.047353    0.000000
    2          1             0        0.004213    2.165613    0.000000
    3          6             0        1.140383    0.287639    0.000000
    4          1             0        2.155545    0.699580    0.000000
    5          6             0        0.650268   -1.010658    0.000000
    6          1             0        1.233335   -1.939046    0.000000
    7          1             0       -2.142178    0.692283    0.000000
    8          6             0       -1.122914    0.282303    0.000000
    9          7             0        0.003388    1.123121    0.000000
 ---------------------------------------------------------------------
                    Distance matrix (angstroms):
                    1          2          3          4          5
     1  N    0.000000
     2  H    3.309682   0.000000
     3  C    2.347073   2.194919   0.000000
     4  H    3.424656   2.603360   1.095559   0.000000
     5  C    1.440779   3.241309   1.387727   2.278327   0.000000
     6  H    2.211149   4.284736   2.228624   2.795142   1.096299
     7  H    2.203316   2.603401   3.307408   4.297729   3.270743
     8  C    1.370689   2.194828   2.263304   3.304908   2.194521
     9  N    2.310951   1.042492   1.410953   2.193437   2.229679
                    6          7          8          9
     6  H    0.000000
     7  H    4.279951   0.000000
     8  C    3.238256   1.098627   0.000000
     9  N    3.299945   2.188396   1.405536   0.000000
 Stoichiometry    C3H4N2
 Framework group  CS[SG(C3H4N2)]
 Deg. of freedom    15
 Full point group                 CS      NOp   2
 Largest Abelian subgroup         CS      NOp   2
 Largest concise Abelian subgroup C1      NOp   1
                         Standard orientation:                         
 ---------------------------------------------------------------------
 Center     Atomic     Atomic              Coordinates (Angstroms)
 Number     Number      Type              X           Y           Z
 ---------------------------------------------------------------------
    1          7             0       -0.773713   -1.040650    0.000000
    2          1             0       -0.008631    2.179388    0.000000
    3          6             0        1.144526    0.311796    0.000000
    4          1             0        2.155910    0.732928    0.000000
    5          6             0        0.666206   -0.990892    0.000000
    6          1             0        1.257670   -1.913954    0.000000
    7          1             0       -2.141570    0.686651    0.000000
    8          6             0       -1.118630    0.285933    0.000000
    9          7             0        0.000000    1.136932    0.000000
 ---------------------------------------------------------------------
 Rotational constants (GHZ):      9.2888336      8.7794386      4.5134777
 Standard basis: STO-3G (5D, 7F)
 There are    24 symmetry adapted basis functions of A'  symmetry.
 There are     5 symmetry adapted basis functions of A"  symmetry.
 Integral buffers will be    262144 words long.
 Raffenetti 1 integral format.
 Two-electron integral symmetry is turned on.
    29 basis functions,    87 primitive gaussians,    29 cartesian basis functions
    18 alpha electrons       18 beta electrons
       nuclear repulsion energy       158.5170430404 Hartrees.
 NAtoms=    9 NActive=    9 NUniq=    9 SFac= 1.00D+00 NAtFMM=   60 Big=F
 One-electron integrals computed using PRISM.
 NBasis=    29 RedAO= T  NBF=    24     5
 NBsUse=    29 1.00D-06 NBFU=    24     5
 Initial guess read from the read-write file:
 Initial guess orbital symmetries:
       Occupied  (A') (A') (A') (A') (A') (A') (A') (A') (A') (A')
                 (A') (A') (A') (A") (A') (A') (A") (A")
       Virtual   (A") (A") (A') (A') (A') (A') (A') (A') (A') (A')
                 (A')
 Requested convergence on RMS density matrix=1.00D-08 within 128 cycles.
 Requested convergence on MAX density matrix=1.00D-06.
 Requested convergence on             energy=1.00D-06.
 No special actions if energy rises.
 Keep R1 integrals in memory in canonical form, NReq=      528061.
 SCF Done:  E(RHF) =  -221.978960669     A.U. after    8 cycles
             Convg  =    0.4857D-08             -V/T =  2.0111
             S**2   =   0.0000
 ExpMin= 1.69D-01 ExpMax= 9.91D+01 ExpMxC= 9.91D+01 IAcc=1 IRadAn=         1 AccDes= 1.00D-06
 HarFok:  IExCor= 205 AccDes= 1.00D-06 IRadAn=         1 IDoV=1
 ScaDFX=  1.000000  1.000000  1.000000  1.000000
 Range of M.O.s used for correlation:     6    29
 NBasis=    29 NAE=    18 NBE=    18 NFC=     5 NFV=     0
 NROrb=     24 NOA=    13 NOB=    13 NVA=    11 NVB=    11
 Fully direct method using O(ONN) memory.
 JobTyp=1 Pass  1:  I=   6 to  18 NPSUse=  1 ParTrn=F ParDer=F DoDerP=T.
 Spin components of T(2) and E(2):
     alpha-alpha T2 =       0.1536788092D-01 E2=     -0.3182115488D-01
     alpha-beta  T2 =       0.1164895222D+00 E2=     -0.2423045414D+00
     beta-beta   T2 =       0.1536788092D-01 E2=     -0.3182115488D-01
 ANorm=    0.1071086030D+01
 E2 =    -0.3059468511D+00 EUMP2 =    -0.22228490752023D+03
          Differentiating once with respect to electric field.
                with respect to dipole field.
          Differentiating once with respect to nuclear coordinates.
          Store integrals in memory, NReq=      496074.
          There are   1 degrees of freedom in the 1st order CPHF.
     1 vectors were produced by pass  0.
 AX will form   1 AO Fock derivatives at one time.
     1 vectors were produced by pass  1.
     1 vectors were produced by pass  2.
     1 vectors were produced by pass  3.
     1 vectors were produced by pass  4.
     1 vectors were produced by pass  5.
     1 vectors were produced by pass  6.
     1 vectors were produced by pass  7.
     1 vectors were produced by pass  8.
     1 vectors were produced by pass  9.
     1 vectors were produced by pass 10.
     1 vectors were produced by pass 11.
     1 vectors were produced by pass 12.
 Inv2:  IOpt= 1 Iter= 1 AM= 3.88D-16 Conv= 1.00D-12.
 Inverted reduced A of dimension   13 with in-core refinement.
 End of Minotr Frequency-dependent properties file   721 does not exist.
 ***** Axes restored to original set *****
 -------------------------------------------------------------------
 Center     Atomic                   Forces (Hartrees/Bohr)
 Number     Number              X              Y              Z
 -------------------------------------------------------------------
    1          7          -0.000063819   -0.000092784    0.000000000
    2          1           0.000016272    0.000059755    0.000000000
    3          6           0.000172766    0.000038001    0.000000000
    4          1           0.000001300    0.000036236    0.000000000
    5          6          -0.000090204    0.000038003    0.000000000
    6          1          -0.000009953    0.000000482    0.000000000
    7          1          -0.000024195   -0.000067177    0.000000000
    8          6           0.000002074    0.000108274    0.000000000
    9          7          -0.000004241   -0.000120791    0.000000000
 -------------------------------------------------------------------
 Cartesian Forces:  Max     0.000172766 RMS     0.000057811

 GradGradGradGradGradGradGradGradGradGradGradGradGradGradGradGradGradGrad
 Berny optimization.
 Internal  Forces:  Max     0.000086624 RMS     0.000036939
 Search for a local minimum.
 Step number   5 out of a maximum of  48
 All quantities printed in internal units (Hartrees-Bohrs-Radians)
 Update second derivatives using D2CorX and points  1  2  3  4  5

 Trust test= 1.04D+00 RLast= 3.83D-03 DXMaxT set to 4.24D-01
     Eigenvalues ---    0.01997   0.02159   0.02233   0.02414   0.02467
     Eigenvalues ---    0.02545   0.14098   0.15862   0.16066   0.16123
     Eigenvalues ---    0.23390   0.32299   0.38148   0.38163   0.40466
     Eigenvalues ---    0.40770   0.47029   0.48383   0.49588   0.55527
     Eigenvalues ---    0.616441000.000001000.000001000.000001000.00000
     Eigenvalues --- 1000.000001000.000001000.000001000.000001000.00000
     Eigenvalues --- 1000.000001000.000001000.000001000.000001000.00000
     Eigenvalues --- 1000.000001000.000001000.00000
 RFO step:  Lambda=-2.40501116D-07.
 Quartic linear search produced a step of  0.04119.
 Iteration  1 RMS(Cart)=  0.00022721 RMS(Int)=  0.00000004
 Iteration  2 RMS(Cart)=  0.00000004 RMS(Int)=  0.00000000
 Variable       Old X    -DE/DX   Delta X   Delta X   Delta X     New X
                                 (Linear)    (Quad)   (Total)
    R1        2.72268   0.00002   0.00001   0.00005   0.00006   2.72274
    R2        2.59023   0.00002   0.00001   0.00006   0.00007   2.59030
    R3        1.97002   0.00006   0.00004   0.00011   0.00015   1.97018
    R4        2.07031   0.00001   0.00004   0.00003   0.00007   2.07038
    R5        2.62242   0.00007   0.00003   0.00011   0.00014   2.62256
    R6        2.66631   0.00001   0.00005   0.00003   0.00008   2.66640
    R7        2.07171  -0.00001   0.00004  -0.00002   0.00001   2.07172
    R8        2.07610   0.00000   0.00005  -0.00002   0.00003   2.07614
    R9        2.65608   0.00004   0.00000   0.00005   0.00005   2.65613
    A1        1.79063  -0.00005   0.00005  -0.00024  -0.00019   1.79044
    A2        2.31725   0.00008   0.00000   0.00044   0.00044   2.31769
    A3        2.12239   0.00001   0.00000  -0.00004  -0.00005   2.12234
    A4        1.84354  -0.00009   0.00000  -0.00039  -0.00039   1.84315
    A5        1.95723   0.00008  -0.00003   0.00038   0.00035   1.95758
    A6        2.10611  -0.00005   0.00000  -0.00026  -0.00026   2.10585
    A7        2.21984  -0.00003   0.00003  -0.00013  -0.00009   2.21975
    A8        2.19853  -0.00008  -0.00004  -0.00051  -0.00055   2.19798
    A9        1.96677   0.00000  -0.00003   0.00001  -0.00003   1.96675
   A10        2.11789   0.00007   0.00007   0.00050   0.00057   2.11846
   A11        2.20372  -0.00004   0.00000  -0.00021  -0.00021   2.20351
   A12        2.21286  -0.00001  -0.00002  -0.00003  -0.00005   2.21282
   A13        1.86660   0.00005   0.00002   0.00024   0.00026   1.86686
    D1        0.00000   0.00000   0.00000   0.00000   0.00000   0.00000
    D2        3.14159   0.00000   0.00000   0.00000   0.00000   3.14159
    D3        3.14159   0.00000   0.00000   0.00000   0.00000   3.14159
    D4        0.00000   0.00000   0.00000   0.00000   0.00000   0.00000
    D5        3.14159   0.00000   0.00000   0.00000   0.00000   3.14159
    D6        0.00000   0.00000   0.00000   0.00000   0.00000   0.00000
    D7        0.00000   0.00000   0.00000   0.00000   0.00000   0.00000
    D8        3.14159   0.00000   0.00000   0.00000   0.00000   3.14159
    D9        0.00000   0.00000   0.00000   0.00000   0.00000   0.00000
   D10        3.14159   0.00000   0.00000   0.00000   0.00000   3.14159
   D11        3.14159   0.00000   0.00000   0.00000   0.00000   3.14159
   D12        0.00000   0.00000   0.00000   0.00000   0.00000   0.00000
   D13        3.14159   0.00000   0.00000   0.00000   0.00000   3.14159
   D14        0.00000   0.00000   0.00000   0.00000   0.00000   0.00000
   D15        0.00000   0.00000   0.00000   0.00000   0.00000   0.00000
   D16        3.14159   0.00000   0.00000   0.00000   0.00000   3.14159
         Item               Value     Threshold  Converged?
 Maximum Force            0.000087     0.000450     YES
 RMS     Force            0.000037     0.000300     YES
 Maximum Displacement     0.000728     0.001800     YES
 RMS     Displacement     0.000227     0.001200     YES
 Predicted change in Energy=-1.247825D-07
 Optimization completed.
    -- Stationary point found.
                           ----------------------------
                           !   Optimized Parameters   !
                           ! (Angstroms and Degrees)  !
 --------------------------                            --------------------------
 ! Name  Definition              Value          Derivative Info.                !
 --------------------------------------------------------------------------------
 ! R1    R(1,5)                  1.4408         -DE/DX =    0.0                 !
 ! R2    R(1,8)                  1.3707         -DE/DX =    0.0                 !
 ! R3    R(2,9)                  1.0425         -DE/DX =    0.0001              !
 ! R4    R(3,4)                  1.0956         -DE/DX =    0.0                 !
 ! R5    R(3,5)                  1.3877         -DE/DX =    0.0001              !
 ! R6    R(3,9)                  1.411          -DE/DX =    0.0                 !
 ! R7    R(5,6)                  1.0963         -DE/DX =    0.0                 !
 ! R8    R(7,8)                  1.0986         -DE/DX =    0.0                 !
 ! R9    R(8,9)                  1.4055         -DE/DX =    0.0                 !
 ! A1    A(5,1,8)              102.5953         -DE/DX =    0.0                 !
 ! A2    A(4,3,5)              132.7686         -DE/DX =    0.0001              !
 ! A3    A(4,3,9)              121.6042         -DE/DX =    0.0                 !
 ! A4    A(5,3,9)              105.6272         -DE/DX =   -0.0001              !
 ! A5    A(1,5,3)              112.1413         -DE/DX =    0.0001              !
 ! A6    A(1,5,6)              120.6711         -DE/DX =    0.0                 !
 ! A7    A(3,5,6)              127.1876         -DE/DX =    0.0                 !
 ! A8    A(1,8,7)              125.9663         -DE/DX =   -0.0001              !
 ! A9    A(1,8,9)              112.6877         -DE/DX =    0.0                 !
 ! A10   A(7,8,9)              121.346          -DE/DX =    0.0001              !
 ! A11   A(2,9,3)              126.2637         -DE/DX =    0.0                 !
 ! A12   A(2,9,8)              126.7878         -DE/DX =    0.0                 !
 ! A13   A(3,9,8)              106.9485         -DE/DX =    0.0001              !
 ! D1    D(8,1,5,3)              0.0            -DE/DX =    0.0                 !
 ! D2    D(8,1,5,6)            180.0            -DE/DX =    0.0                 !
 ! D3    D(5,1,8,7)            180.0            -DE/DX =    0.0                 !
 ! D4    D(5,1,8,9)              0.0            -DE/DX =    0.0                 !
 ! D5    D(4,3,5,1)            180.0            -DE/DX =    0.0                 !
 ! D6    D(4,3,5,6)              0.0            -DE/DX =    0.0                 !
 ! D7    D(9,3,5,1)              0.0            -DE/DX =    0.0                 !
 ! D8    D(9,3,5,6)            180.0            -DE/DX =    0.0                 !
 ! D9    D(4,3,9,2)              0.0            -DE/DX =    0.0                 !
 ! D10   D(4,3,9,8)            180.0            -DE/DX =    0.0                 !
 ! D11   D(5,3,9,2)            180.0            -DE/DX =    0.0                 !
 ! D12   D(5,3,9,8)              0.0            -DE/DX =    0.0                 !
 ! D13   D(1,8,9,2)            180.0            -DE/DX =    0.0                 !
 ! D14   D(1,8,9,3)              0.0            -DE/DX =    0.0                 !
 ! D15   D(7,8,9,2)              0.0            -DE/DX =    0.0                 !
 ! D16   D(7,8,9,3)            180.0            -DE/DX =    0.0                 !
 --------------------------------------------------------------------------------
 GradGradGradGradGradGradGradGradGradGradGradGradGradGradGradGradGradGrad

                          Input orientation:                          
 ---------------------------------------------------------------------
 Center     Atomic     Atomic              Coordinates (Angstroms)
 Number     Number      Type              X           Y           Z
 ---------------------------------------------------------------------
    1          7             0       -0.790044   -1.047353    0.000000
    2          1             0        0.004213    2.165613    0.000000
    3          6             0        1.140383    0.287639    0.000000
    4          1             0        2.155545    0.699580    0.000000
    5          6             0        0.650268   -1.010658    0.000000
    6          1             0        1.233335   -1.939046    0.000000
    7          1             0       -2.142178    0.692283    0.000000
    8          6             0       -1.122914    0.282303    0.000000
    9          7             0        0.003388    1.123121    0.000000
 ---------------------------------------------------------------------
                    Distance matrix (angstroms):
                    1          2          3          4          5
     1  N    0.000000
     2  H    3.309682   0.000000
     3  C    2.347073   2.194919   0.000000
     4  H    3.424656   2.603360   1.095559   0.000000
     5  C    1.440779   3.241309   1.387727   2.278327   0.000000
     6  H    2.211149   4.284736   2.228624   2.795142   1.096299
     7  H    2.203316   2.603401   3.307408   4.297729   3.270743
     8  C    1.370689   2.194828   2.263304   3.304908   2.194521
     9  N    2.310951   1.042492   1.410953   2.193437   2.229679
                    6          7          8          9
     6  H    0.000000
     7  H    4.279951   0.000000
     8  C    3.238256   1.098627   0.000000
     9  N    3.299945   2.188396   1.405536   0.000000
 Stoichiometry    C3H4N2
 Framework group  CS[SG(C3H4N2)]
 Deg. of freedom    15
[...]
                    16                     17                     18
                    A'                     A'                     A'
 Frequencies --  1599.1884              1633.4520              3556.8940
 Red. masses --     2.5105                 3.6395                 1.0950
 Frc consts  --     3.7828                 5.7214                 8.1625
 IR Inten    --     9.7031                11.9542                 8.9140
 Atom AN      X      Y      Z        X      Y      Z        X      Y      Z
   1   7     0.02   0.11   0.00    -0.01   0.03   0.00     0.00   0.00   0.00
   2   1     0.41   0.13   0.00     0.44  -0.11   0.00     0.00   0.03   0.00
   3   6     0.14  -0.08   0.00     0.05   0.35   0.00     0.03   0.01   0.00
   4   1     0.02   0.28   0.00     0.44  -0.46   0.00    -0.31  -0.13   0.00
   5   6    -0.11  -0.05   0.00    -0.10  -0.27   0.00    -0.03   0.04   0.00
   6   1     0.39   0.27   0.00     0.35  -0.04   0.00     0.32  -0.50   0.00
   7   1     0.30   0.54   0.00     0.00  -0.15   0.00     0.67  -0.26   0.00
   8   6    -0.01  -0.22   0.00     0.06   0.06   0.00    -0.06   0.02   0.00
   9   7    -0.12   0.10   0.00    -0.09  -0.10   0.00     0.00   0.00   0.00
                    19                     20                     21
                    A'                     A'                     A'
 Frequencies --  3558.0366              3585.7855              3859.6584
 Red. masses --     1.0959                 1.1106                 1.0858
 Frc consts  --     8.1743                 8.4134                 9.5301
 IR Inten    --     8.1797                 7.0066                63.7420
 Atom AN      X      Y      Z        X      Y      Z        X      Y      Z
   1   7     0.00   0.00   0.00     0.00   0.00   0.00     0.00   0.00   0.00
   2   1     0.00   0.01   0.00     0.00  -0.04   0.00    -0.01   1.00   0.00
   3   6    -0.04  -0.01   0.00    -0.07  -0.03   0.00    -0.01   0.00   0.00
   4   1     0.44   0.18   0.00     0.75   0.31   0.00     0.03   0.01   0.00
   5   6     0.03  -0.04   0.00    -0.03   0.05   0.00     0.00   0.00   0.00
   6   1    -0.30   0.47   0.00     0.30  -0.48   0.00     0.00  -0.01   0.00
   7   1     0.63  -0.25   0.00    -0.09   0.03   0.00    -0.03   0.01   0.00
   8   6    -0.06   0.02   0.00     0.01   0.00   0.00     0.01   0.00   0.00
   9   7     0.00   0.00   0.00     0.00   0.00   0.00     0.00  -0.08   0.00

 -------------------
 - Thermochemistry -
 -------------------
 Temperature   298.150 Kelvin.  Pressure   1.00000 Atm.
 Atom  1 has atomic number  7 and mass  14.00307
 Atom  2 has atomic number  1 and mass   1.00783
 Atom  3 has atomic number  6 and mass  12.00000
 Atom  4 has atomic number  1 and mass   1.00783
 Atom  5 has atomic number  6 and mass  12.00000
 Atom  6 has atomic number  1 and mass   1.00783
 Atom  7 has atomic number  1 and mass   1.00783
 Atom  8 has atomic number  6 and mass  12.00000
 Atom  9 has atomic number  7 and mass  14.00307
 Molecular mass:    68.03745 amu.
 Principal axes and moments of inertia in atomic units:
                           1         2         3
     EIGENVALUES --   194.29148 205.56453 399.85601
           X            0.53818   0.84283   0.00000
           Y            0.84283  -0.53818   0.00000
           Z            0.00000   0.00000   1.00000
 This molecule is an asymmetric top.
 Rotational symmetry number  1.
 Rotational temperatures (Kelvin)      0.44579     0.42135     0.21661
 Rotational constants (GHZ):           9.28883     8.77944     4.51348
 Zero-point vibrational energy     196796.3 (Joules/Mol)
                                   47.03544 (Kcal/Mol)
 Warning -- explicit consideration of   1 degrees of freedom as
           vibrations may cause significant error
 Vibrational temperatures:    625.37   947.59   963.37  1142.00  1186.98
          (Kelvin)           1320.19  1326.04  1378.86  1591.20  1653.18
                             1703.45  1728.41  1861.29  2041.90  2268.28
                             2300.87  2350.17  5117.57  5119.21  5159.14
                             5553.18
 
 Zero-point correction=                           0.074956 (Hartree/Particle)
 Thermal correction to Energy=                    0.078724
 Thermal correction to Enthalpy=                  0.079668
 Thermal correction to Gibbs Free Energy=         0.048578
 Sum of electronic and zero-point Energies=           -222.209952
 Sum of electronic and thermal Energies=              -222.206183
 Sum of electronic and thermal Enthalpies=            -222.205239
 Sum of electronic and thermal Free Energies=         -222.236329
 
                     E (Thermal)             CV                S
                      KCal/Mol        Cal/Mol-Kelvin    Cal/Mol-Kelvin
 Total                   49.400             13.142             65.434
 Electronic               0.000              0.000              0.000
 Translational            0.889              2.981             38.570
 Rotational               0.889              2.981             24.283
 Vibrational             47.623              7.180              2.581
 Vibration  1             0.795              1.395              0.844
                       Q            Log10(Q)             Ln(Q)
 Total Bot       0.452398D-22        -22.344479        -51.450065
 Total V=0       0.135738D+13         12.132701         27.936576
 Vib (Bot)       0.453361D-34        -34.343556        -79.078960
 Vib (Bot)  1    0.399410D+00         -0.398581         -0.917768
 Vib (V=0)       0.136027D+01          0.133624          0.307682
 Vib (V=0)  1    0.113994D+01          0.056883          0.130979
 Electronic      0.100000D+01          0.000000          0.000000
 Translational   0.220586D+08          7.343577         16.909211
 Rotational      0.452376D+05          4.655499         10.719683
 ***** Axes restored to original set *****
 -------------------------------------------------------------------
 Center     Atomic                   Forces (Hartrees/Bohr)
 Number     Number              X              Y              Z
 -------------------------------------------------------------------
    1          7          -0.000063827   -0.000092795    0.000000000
    2          1           0.000016270    0.000059756    0.000000000
    3          6           0.000172770    0.000038000    0.000000000
    4          1           0.000001293    0.000036233    0.000000000
    5          6          -0.000090198    0.000038018    0.000000000
    6          1          -0.000009952    0.000000479    0.000000000
    7          1          -0.000024200   -0.000067175    0.000000000
    8          6           0.000002075    0.000108275    0.000000000
    9          7          -0.000004229   -0.000120790    0.000000000
 -------------------------------------------------------------------
 Cartesian Forces:  Max     0.000172770 RMS     0.000057813

 GradGradGradGradGradGradGradGradGradGradGradGradGradGradGradGradGradGrad
 Berny optimization.
 Internal  Forces:  Max     0.000086623 RMS     0.000036940
 Search for a local minimum.
 Step number   1 out of a maximum of   2
 All quantities printed in internal units (Hartrees-Bohrs-Radians)
 Second derivative matrix not updated -- analytic derivatives used.
     Eigenvalues ---    0.00409   0.01354   0.02270   0.03048   0.05945
     Eigenvalues ---    0.06526   0.11014   0.11869   0.12327   0.13403
     Eigenvalues ---    0.24727   0.29155   0.37264   0.43008   0.44396
     Eigenvalues ---    0.44518   0.44660   0.48683   0.52839   0.53828
     Eigenvalues ---    0.582251000.000001000.000001000.000001000.00000
     Eigenvalues --- 1000.000001000.000001000.000001000.000001000.00000
     Eigenvalues --- 1000.000001000.000001000.000001000.000001000.00000
     Eigenvalues --- 1000.000001000.000001000.00000
 Angle between quadratic step and forces=  30.92 degrees.
 Linear search not attempted -- first point.
 Iteration  1 RMS(Cart)=  0.00020354 RMS(Int)=  0.00000004
 Iteration  2 RMS(Cart)=  0.00000004 RMS(Int)=  0.00000000
 Variable       Old X    -DE/DX   Delta X   Delta X   Delta X     New X
                                 (Linear)    (Quad)   (Total)
    R1        2.72268   0.00002   0.00000  -0.00001  -0.00001   2.72267
    R2        2.59023   0.00002   0.00000   0.00013   0.00013   2.59036
    R3        1.97002   0.00006   0.00000   0.00013   0.00013   1.97015
    R4        2.07031   0.00001   0.00000   0.00002   0.00002   2.07033
    R5        2.62242   0.00007   0.00000   0.00014   0.00014   2.62256
    R6        2.66631   0.00001   0.00000   0.00010   0.00010   2.66642
    R7        2.07171  -0.00001   0.00000   0.00000   0.00000   2.07171
    R8        2.07610   0.00000   0.00000  -0.00001  -0.00001   2.07610
    R9        2.65608   0.00004   0.00000  -0.00003  -0.00003   2.65605
    A1        1.79063  -0.00005   0.00000  -0.00013  -0.00013   1.79050
    A2        2.31725   0.00008   0.00000   0.00048   0.00048   2.31773
    A3        2.12239   0.00001   0.00000  -0.00019  -0.00019   2.12220
    A4        1.84354  -0.00009   0.00000  -0.00029  -0.00029   1.84326
    A5        1.95723   0.00008   0.00000   0.00025   0.00025   1.95748
    A6        2.10611  -0.00005   0.00000  -0.00017  -0.00017   2.10594
    A7        2.21984  -0.00003   0.00000  -0.00008  -0.00008   2.21976
    A8        2.19853  -0.00008   0.00000  -0.00054  -0.00054   2.19799
    A9        1.96677   0.00000   0.00000  -0.00002  -0.00002   1.96675
   A10        2.11789   0.00007   0.00000   0.00056   0.00056   2.11845
   A11        2.20372  -0.00004   0.00000  -0.00021  -0.00021   2.20351
   A12        2.21286  -0.00001   0.00000   0.00002   0.00002   2.21288
   A13        1.86660   0.00005   0.00000   0.00019   0.00019   1.86679
    D1        0.00000   0.00000   0.00000   0.00000   0.00000   0.00000
    D2        3.14159   0.00000   0.00000   0.00000   0.00000   3.14159
    D3        3.14159   0.00000   0.00000   0.00000   0.00000   3.14159
    D4        0.00000   0.00000   0.00000   0.00000   0.00000   0.00000
    D5        3.14159   0.00000   0.00000   0.00000   0.00000   3.14159
    D6        0.00000   0.00000   0.00000   0.00000   0.00000   0.00000
    D7        0.00000   0.00000   0.00000   0.00000   0.00000   0.00000
    D8        3.14159   0.00000   0.00000   0.00000   0.00000   3.14159
    D9        0.00000   0.00000   0.00000   0.00000   0.00000   0.00000
   D10        3.14159   0.00000   0.00000   0.00000   0.00000   3.14159
   D11        3.14159   0.00000   0.00000   0.00000   0.00000   3.14159
   D12        0.00000   0.00000   0.00000   0.00000   0.00000   0.00000
   D13        3.14159   0.00000   0.00000   0.00000   0.00000   3.14159
   D14        0.00000   0.00000   0.00000   0.00000   0.00000   0.00000
   D15        0.00000   0.00000   0.00000   0.00000   0.00000   0.00000
   D16        3.14159   0.00000   0.00000   0.00000   0.00000   3.14159
         Item               Value     Threshold  Converged?
 Maximum Force            0.000087     0.000450     YES
 RMS     Force            0.000037     0.000300     YES
 Maximum Displacement     0.000686     0.001800     YES
 RMS     Displacement     0.000204     0.001200     YES
 Predicted change in Energy=-1.073979D-07
 Optimization completed.
    -- Stationary point found.
                           ----------------------------
                           !   Optimized Parameters   !
                           ! (Angstroms and Degrees)  !
 --------------------------                            --------------------------
 ! Name  Definition              Value          Derivative Info.                !
 --------------------------------------------------------------------------------
 ! R1    R(1,5)                  1.4408         -DE/DX =    0.0                 !
 ! R2    R(1,8)                  1.3707         -DE/DX =    0.0                 !
 ! R3    R(2,9)                  1.0425         -DE/DX =    0.0001              !
 ! R4    R(3,4)                  1.0956         -DE/DX =    0.0                 !
 ! R5    R(3,5)                  1.3877         -DE/DX =    0.0001              !
 ! R6    R(3,9)                  1.411          -DE/DX =    0.0                 !
 ! R7    R(5,6)                  1.0963         -DE/DX =    0.0                 !
 ! R8    R(7,8)                  1.0986         -DE/DX =    0.0                 !
 ! R9    R(8,9)                  1.4055         -DE/DX =    0.0                 !
 ! A1    A(5,1,8)              102.5953         -DE/DX =    0.0                 !
 ! A2    A(4,3,5)              132.7686         -DE/DX =    0.0001              !
 ! A3    A(4,3,9)              121.6042         -DE/DX =    0.0                 !
 ! A4    A(5,3,9)              105.6272         -DE/DX =   -0.0001              !
 ! A5    A(1,5,3)              112.1413         -DE/DX =    0.0001              !
 ! A6    A(1,5,6)              120.6711         -DE/DX =    0.0                 !
 ! A7    A(3,5,6)              127.1876         -DE/DX =    0.0                 !
 ! A8    A(1,8,7)              125.9663         -DE/DX =   -0.0001              !
 ! A9    A(1,8,9)              112.6877         -DE/DX =    0.0                 !
 ! A10   A(7,8,9)              121.346          -DE/DX =    0.0001              !
 ! A11   A(2,9,3)              126.2637         -DE/DX =    0.0                 !
 ! A12   A(2,9,8)              126.7878         -DE/DX =    0.0                 !
 ! A13   A(3,9,8)              106.9485         -DE/DX =    0.0001              !
 ! D1    D(8,1,5,3)              0.0            -DE/DX =    0.0                 !
 ! D2    D(8,1,5,6)            180.0            -DE/DX =    0.0                 !
 ! D3    D(5,1,8,7)            180.0            -DE/DX =    0.0                 !
 ! D4    D(5,1,8,9)              0.0            -DE/DX =    0.0                 !
 ! D5    D(4,3,5,1)            180.0            -DE/DX =    0.0                 !
 ! D6    D(4,3,5,6)              0.0            -DE/DX =    0.0                 !
 ! D7    D(9,3,5,1)              0.0            -DE/DX =    0.0                 !
 ! D8    D(9,3,5,6)            180.0            -DE/DX =    0.0                 !
 ! D9    D(4,3,9,2)              0.0            -DE/DX =    0.0                 !
 ! D10   D(4,3,9,8)            180.0            -DE/DX =    0.0                 !
 ! D11   D(5,3,9,2)            180.0            -DE/DX =    0.0                 !
 ! D12   D(5,3,9,8)              0.0            -DE/DX =    0.0                 !
 ! D13   D(1,8,9,2)            180.0            -DE/DX =    0.0                 !
 ! D14   D(1,8,9,3)              0.0            -DE/DX =    0.0                 !
 ! D15   D(7,8,9,2)              0.0            -DE/DX =    0.0                 !
 ! D16   D(7,8,9,3)            180.0            -DE/DX =    0.0                 !
 --------------------------------------------------------------------------------
 GradGradGradGradGradGradGradGradGradGradGradGradGradGradGradGradGradGrad

 1|1|UNPC-UNK|Freq|RMP2-FC|STO-3G|C3H4N2|PCUSER|09-Jul-2004|0||#N GEOM=
 ALLCHECK GUESS=READ SCRF=CHECK GENCHK RMP2(FC)/STO-3G FREQ||1himidaz 1
 H-Imidazole casno=288324 method=3 basis=20||0,1|N,-0.7831203229,-1.033
 5896508,0.|H,0.0111368756,2.1793765016,0.|C,1.1473069357,0.3014023105,
 0.|H,2.162468635,0.71334339,0.|C,0.6571914928,-0.996894233,0.|H,1.2402
 590691,-1.9252824534,0.|H,-2.1352542054,0.7060464934,0.|C,-1.115990426
 6,0.2960667781,0.|N,0.0103119822,1.1368849272,0.||Version=x86-Win32-G0
 3RevB.05|State=1-A'|HF=-221.9789607|MP2=-222.2849075|RMSD=2.066e-009|R
 MSF=5.781e-005|Dipole=0.4258171,1.357186,0.|DipoleDeriv=-0.2252269,0.2
 119795,0.,-0.0229785,-0.32949,0.,0.,0.,-0.2454746,0.1537485,-0.0081885
 ,0.,0.0032874,0.2190272,0.,0.,0.,0.3085408,-0.0174044,-0.1639051,0.,-0
 .0888031,0.2453608,0.,0.,0.,-0.0056183,0.1076593,0.036277,0.,-0.009129
 3,0.0486099,0.,0.,0.,0.0999063,-0.0430852,-0.2727306,0.,-0.0065438,-0.
 0422207,0.,0.,0.,-0.0732356,0.0350707,-0.0121487,0.,-0.011758,0.088372
 5,0.,0.,0.,0.0640142,0.1051151,-0.0272648,0.,0.0065838,0.0307806,0.,0.
 ,0.,0.0833956,0.1603837,0.2447044,0.,0.1425149,0.3170735,0.,0.,0.,0.02
 72965,-0.2762608,-0.0087232,0.,-0.0131734,-0.5775138,0.,0.,0.,-0.25882
 49|Polar=29.1424622,-1.9688756,29.9446592,0.,0.,5.118293|PG=CS [SG(C3H
 4N2)]|NImag=0||0.45854211,-0.02964368,0.55996977,0.,0.,0.09581196,-0.0
 0536854,-0.00662096,0.,0.06084178,-0.00660834,0.00369124,0.,-0.0004576
 8,0.52762704,0.,0.,0.00691571,0.,0.,0.01003732,-0.05380070,-0.00607862
 ,0.,0.01386834,-0.01339837,0.,0.95827087,-0.07816137,0.00055128,0.,0.0
 2712188,-0.00532589,0.,0.13872857,0.78449441,0.,0.,0.01642220,0.,0.,-0
 .01016783,0.,0.,0.11509787,0.00231528,0.00077788,0.,0.00125474,0.00009
 528,0.,-0.38449893,-0.12791722,0.,0.39268027,-0.00439260,-0.00303362,0
 .,-0.00072033,0.00072684,0.,-0.14113053,-0.12198362,0.,0.13508321,0.10
 993393,0.,0.,0.00772875,0.,0.,-0.00162757,0.,0.,-0.02573166,0.,0.,0.02
 223978,-0.26654015,0.01368821,0.,-0.00891872,0.00587467,0.,-0.14740361
 ,-0.08616459,0.,0.00213432,-0.02315353,0.,0.64421810,-0.02255261,-0.10
 305974,0.,0.00443852,0.00266831,0.,-0.10756605,-0.42371525,0.,0.006848
 20,0.00725895,0.,-0.13064001,0.97708012,0.,0.,-0.06444174,0.,0.,0.0033
 9151,0.,0.,-0.06455077,0.,0.,-0.00052890,0.,0.,0.13255197,-0.00752594,
 0.02783043,0.,0.00148986,-0.00012360,0.,0.01110101,-0.01660073,0.,0.00
 034473,0.00082669,0.,-0.16463613,0.16496699,0.,0.16804198,-0.00597261,
 0.00995704,0.,0.00118169,-0.00026646,0.,0.02188195,-0.00762788,0.,-0.0
 0053197,0.00066056,0.,0.16376815,-0.33703832,0.,-0.17314032,0.33684168
 ,0.,0.,-0.00730325,0.,0.,0.00235330,0.,0.,-0.00137799,0.,0.,-0.0030628
 2,0.,0.,-0.03032268,0.,0.,0.02596098,0.00203509,-0.00209776,0.,0.00094
 545,-0.00021386,0.,0.00069321,-0.00460850,0.,-0.00037927,0.00075576,0.
 ,0.00185935,-0.00055472,0.,0.00039492,0.00022782,0.,0.39074394,0.02797
 529,-0.00079072,0.,0.00052553,0.00062185,0.,-0.00273150,-0.00659892,0.
 ,-0.00076210,0.00148097,0.,0.00197537,-0.00622025,0.,0.00191037,0.0007
 9103,0.,-0.13160700,0.11378129,0.,0.,-0.00881279,0.,0.,-0.00150060,0.,
 0.,0.00322934,0.,0.,0.00180264,0.,0.,0.00945349,0.,0.,0.00125386,0.,0.
 ,0.02263920,-0.11756770,0.03225592,0.,0.01550539,0.01311493,0.,-0.0879
 5715,0.01833553,0.,-0.00002603,0.00351633,0.,-0.06323010,0.04023167,0.
 ,-0.00815237,-0.00408305,0.,-0.38223369,0.13056607,0.,0.95493508,0.098
 02479,-0.37689345,0.,-0.02333251,-0.00784867,0.,-0.02279291,0.00205819
 ,0.,0.00379067,-0.00926355,0.,0.07160294,-0.03028712,0.,-0.00123634,-0
 .00070412,0.,0.12107284,-0.11556750,0.,-0.10906141,0.74406736,0.,0.,-0
 .06437273,0.,0.,-0.01085485,0.,0.,0.01079644,0.,0.,0.00399261,0.,0.,0.
 00419055,0.,0.,0.00644422,0.,0.,-0.02342784,0.,0.,0.11794219,-0.012089
 44,-0.03011141,0.,-0.07961829,0.00171697,0.,-0.31027304,0.12926642,0.,
 -0.01382510,0.02921500,0.,0.00251695,0.04482800,0.,-0.00105806,-0.0033
 3166,0.,-0.01405900,-0.02785203,0.,-0.31127345,-0.13806806,0.,0.739679
 45,0.02133114,-0.09039180,0.,-0.00213613,-0.52189426,0.,0.13308746,-0.
 22185231,0.,-0.01738395,0.01421954,0.,-0.01695121,-0.08668670,0.,-0.00
 443349,-0.00261353,0.,0.01702542,0.01250226,0.,-0.12487599,-0.20556114
 ,0.,-0.00566324,1.10227794,0.,0.,0.01805189,0.,0.,0.00145302,0.,0.,-0.
 04371759,0.,0.,-0.00481282,0.,0.,0.01025656,0.,0.,0.00605439,0.,0.,-0.
 00463730,0.,0.,-0.04471058,0.,0.,0.06206244||0.00006383,0.00009280,0.,
 -0.00001627,-0.00005976,0.,-0.00017277,-0.00003800,0.,-0.00000129,-0.0
 0003623,0.,0.00009020,-0.00003802,0.,0.00000995,-0.00000048,0.,0.00002
 420,0.00006718,0.,-0.00000207,-0.00010827,0.,0.00000423,0.00012079,0.|
 ||@


 I WISH TO HAVE NO CONNECTION WITH ANY SHIP THAT DOES NOT SAIL FAST,
 FOR I INTEND TO GO IN HARM'S WAY.
     -- JOHN PAUL JONES, USN 1747-1792
 Job cpu time:  0 days  0 hours  0 minutes 41.0 seconds.
 File lengths (MBytes):  RWF=     23 Int=      0 D2E=      0 Chk=      4 Scr=      1
 Normal termination of Gaussian 03 at Fri Jul 09 14:56:20 2004.
