 Entering Gaussian System, Link 0=g98
 Initial command:
 /usr/local/apps/g98/g98/l1.exe /wrk/Gau-2891814.inp -scrdir=/wrk/
 Entering Link 1 = /usr/local/apps/g98/g98/l1.exe PID=   2893722.
  
 Copyright (c) 1988,1990,1992,1993,1995,1998 Gaussian, Inc.
                  All Rights Reserved.
  
 This is part of the Gaussian(R) 98 program.  It is based on
 the Gaussian 94(TM) system (copyright 1995 Gaussian, Inc.),
 the Gaussian 92(TM) system (copyright 1992 Gaussian, Inc.),
 the Gaussian 90(TM) system (copyright 1990 Gaussian, Inc.),
 the Gaussian 88(TM) system (copyright 1988 Gaussian, Inc.),
 the Gaussian 86(TM) system (copyright 1986 Carnegie Mellon
 University), and the Gaussian 82(TM) system (copyright 1983
 Carnegie Mellon University). Gaussian is a federally registered
 trademark of Gaussian, Inc.
  
 This software contains proprietary and confidential information,
 including trade secrets, belonging to Gaussian, Inc.
  
 This software is provided under written license and may be
 used, copied, transmitted, or stored only in accord with that
 written license.
  
 The following legend is applicable only to US Government
 contracts under DFARS:
  
                    RESTRICTED RIGHTS LEGEND
  
 Use, duplication or disclosure by the US Government is subject
 to restrictions as set forth in subparagraph (c)(1)(ii) of the
 Rights in Technical Data and Computer Software clause at DFARS
 252.227-7013.
  
 Gaussian, Inc.
 Carnegie Office Park, Building 6, Pittsburgh, PA 15106 USA
  
 The following legend is applicable only to US Government
 contracts under FAR:
  
                    RESTRICTED RIGHTS LEGEND
  
 Use, reproduction and disclosure by the US Government is subject
 to restrictions as set forth in subparagraph (c) of the
 Commercial Computer Software - Restricted Rights clause at FAR
 52.227-19.
  
 Gaussian, Inc.
 Carnegie Office Park, Building 6, Pittsburgh, PA 15106 USA
  
  
 ---------------------------------------------------------------
 Warning -- This program may not be used in any manner that
 competes with the business of Gaussian, Inc. or will provide
 assistance to any competitor of Gaussian, Inc.  The licensee
 of this program is prohibited from giving any competitor of
 Gaussian, Inc. access to this program.  By using this program,
 the user acknowledges that Gaussian, Inc. is engaged in the
 business of creating and licensing software in the field of
 computational chemistry and represents and warrants to the
 licensee that it is not a competitor of Gaussian, Inc. and that
 it will not use this program in any manner prohibited above.
 ---------------------------------------------------------------
  

 Cite this work as:
 Gaussian 98, Revision A.6,
 M. J. Frisch, G. W. Trucks, H. B. Schlegel, G. E. Scuseria, 
 M. A. Robb, J. R. Cheeseman, V. G. Zakrzewski, J. A. Montgomery, Jr., 
 R. E. Stratmann, J. C. Burant, S. Dapprich, J. M. Millam, 
 A. D. Daniels, K. N. Kudin, M. C. Strain, O. Farkas, J. Tomasi, 
 V. Barone, M. Cossi, R. Cammi, B. Mennucci, C. Pomelli, C. Adamo, 
 S. Clifford, J. Ochterski, G. A. Petersson, P. Y. Ayala, Q. Cui, 
 K. Morokuma, D. K. Malick, A. D. Rabuck, K. Raghavachari, 
 J. B. Foresman, J. Cioslowski, J. V. Ortiz, B. B. Stefanov, G. Liu, 
 A. Liashenko, P. Piskorz, I. Komaromi, R. Gomperts, R. L. Martin, 
 D. J. Fox, T. Keith, M. A. Al-Laham, C. Y. Peng, A. Nanayakkara, 
 C. Gonzalez, M. Challacombe, P. M. W. Gill, B. Johnson, W. Chen, 
 M. W. Wong, J. L. Andres, C. Gonzalez, M. Head-Gordon, 
 E. S. Replogle, and J. A. Pople, 
 Gaussian, Inc., Pittsburgh PA, 1998.

 ***************************************
 Gaussian 98:  SGI-G98RevA.6 19-Oct-1998
               12-Apr-2000 
 ***************************************
 %mem=24000000
 -------------------
 #MP2/6-31G opt freq
 -------------------
 1/18=20,38=1/1,3;
 2/9=110,17=6,18=5/2;
 3/5=1,6=6,11=9,25=1,30=1/1,2,3;
 4//1;
 5/5=2,38=4/2;
 8/6=4,10=1,23=2/1;
 9/15=2,16=-3/6;
 10/5=1/2;
 6/7=2,8=2,9=2,10=2/1;
 7/12=2/1,2,3,16;
 1/18=20/3(1);
 99//99;
 2/9=110/2;
 3/5=1,6=6,11=9,25=1,30=1/1,2,3;
 4/5=5,16=2/1;
 5/5=2,38=4/2;
 8/6=4,10=1,23=2/1;
 9/15=2,16=-3/6;
 10/5=1/2;
 7/12=2/1,2,3,16;
 1/18=20/3(-8);
 2/9=110/2;
 6/7=2,8=2,9=2,10=2/1;
 99//99;
 --------------------------------
 1H imidazole C3H4N2 casno=288324
 --------------------------------
 Symbolic Z-matrix:
 Charge =  0 Multiplicity = 1
 N                     0.30938   0.        1.30938 
 H                     0.3125    0.       -1.6875 
 C                    -1.06875   0.       -0.28438 
 H                    -1.91875   0.       -0.79063 
 C                    -0.93438   0.        1.02812 
 H                    -1.675     0.        1.6875 
 H                     1.91875   0.        0.09063 
 C                     0.93438   0.        0.19063 
 N                     0.09688   0.       -0.775 

 GradGradGradGradGradGradGradGradGradGradGradGradGradGradGradGradGradGrad
 Berny optimization.
 Initialization pass.
                         ----------------------------
                         !    Initial Parameters    !
                         ! (Angstroms and Degrees)  !
 ------------------------                            -------------------------
 ! Name  Definition              Value          Derivative Info.             !
 -----------------------------------------------------------------------------
 ! R1    R(1,5)                  1.2752         estimate D2E/DX2             !
 ! R2    R(1,8)                  1.2815         estimate D2E/DX2             !
 ! R3    R(2,9)                  0.9376         estimate D2E/DX2             !
 ! R4    R(3,4)                  0.9893         estimate D2E/DX2             !
 ! R5    R(3,5)                  1.3194         estimate D2E/DX2             !
 ! R6    R(3,9)                  1.2647         estimate D2E/DX2             !
 ! R7    R(5,6)                  0.9916         estimate D2E/DX2             !
 ! R8    R(7,8)                  0.9894         estimate D2E/DX2             !
 ! R9    R(8,9)                  1.2782         estimate D2E/DX2             !
 ! A1    A(5,1,8)              106.4483         estimate D2E/DX2             !
 ! A2    A(4,3,5)              126.6232         estimate D2E/DX2             !
 ! A3    A(4,3,9)              126.3957         estimate D2E/DX2             !
 ! A4    A(5,3,9)              106.9812         estimate D2E/DX2             !
 ! A5    A(1,5,3)              108.5877         estimate D2E/DX2             !
 ! A6    A(1,5,6)              125.5794         estimate D2E/DX2             !
 ! A7    A(3,5,6)              125.8329         estimate D2E/DX2             !
 ! A8    A(1,8,7)              124.9909         estimate D2E/DX2             !
 ! A9    A(1,8,9)              109.8741         estimate D2E/DX2             !
 ! A10   A(7,8,9)              125.1349         estimate D2E/DX2             !
 ! A11   A(2,9,3)              126.122          estimate D2E/DX2             !
 ! A12   A(2,9,8)              125.7693         estimate D2E/DX2             !
 ! A13   A(3,9,8)              108.1088         estimate D2E/DX2             !
 ! D1    D(8,1,5,3)              0.             estimate D2E/DX2             !
 ! D2    D(8,1,5,6)            180.             estimate D2E/DX2             !
 ! D3    D(5,1,8,7)            180.             estimate D2E/DX2             !
 ! D4    D(5,1,8,9)              0.             estimate D2E/DX2             !
 ! D5    D(4,3,5,1)            180.             estimate D2E/DX2             !
 ! D6    D(4,3,5,6)              0.             estimate D2E/DX2             !
 ! D7    D(9,3,5,1)              0.             estimate D2E/DX2             !
 ! D8    D(9,3,5,6)            180.             estimate D2E/DX2             !
 ! D9    D(4,3,9,2)              0.             estimate D2E/DX2             !
 ! D10   D(4,3,9,8)            180.             estimate D2E/DX2             !
 ! D11   D(5,3,9,2)            180.             estimate D2E/DX2             !
 ! D12   D(5,3,9,8)              0.             estimate D2E/DX2             !
 ! D13   D(1,8,9,2)            180.             estimate D2E/DX2             !
 ! D14   D(1,8,9,3)              0.             estimate D2E/DX2             !
 ! D15   D(7,8,9,2)              0.             estimate D2E/DX2             !
 ! D16   D(7,8,9,3)            180.             estimate D2E/DX2             !
 -----------------------------------------------------------------------------
 Trust Radius=3.00D-01 FncErr=1.00D-07 GrdErr=1.00D-07
 Number of steps in this run=  48 maximum allowed number of steps= 100.
 GradGradGradGradGradGradGradGradGradGradGradGradGradGradGradGradGradGrad

                          Input orientation:                          
 ---------------------------------------------------------------------
 Center     Atomic     Atomic              Coordinates (Angstroms)
 Number     Number      Type              X           Y           Z
 ---------------------------------------------------------------------
    1          7             0        0.309375    0.000000    1.309375
    2          1             0        0.312500    0.000000   -1.687500
    3          6             0       -1.068750    0.000000   -0.284375
    4          1             0       -1.918750    0.000000   -0.790625
    5          6             0       -0.934375    0.000000    1.028125
    6          1             0       -1.675000    0.000000    1.687500
    7          1             0        1.918750    0.000000    0.090625
    8          6             0        0.934375    0.000000    0.190625
    9          7             0        0.096875    0.000000   -0.775000
 ---------------------------------------------------------------------
                    Distance matrix (angstroms):
                    1          2          3          4          5
     1  N    0.000000
     2  H    2.996877   0.000000
     3  C    2.106957   1.968911   0.000000
     4  H    3.061787   2.404758   0.989338   0.000000
     5  C    1.275153   2.988196   1.319361   2.068054   0.000000
     6  H    2.020080   3.916731   2.062966   2.490084   0.991615
     7  H    2.018772   2.396199   3.010944   3.937386   3.003203
     8  C    1.281494   1.978404   2.058673   3.017147   2.047836
     9  N    2.095179   0.937630   1.264672   2.015686   2.077194
                    6          7          8          9
     6  H    0.000000
     7  H    3.932563   0.000000
     8  C    3.008234   0.989441   0.000000
     9  N    3.033718   2.017061   1.278217   0.000000
 Stoichiometry    C3H4N2
 Framework group  CS[SG(C3H4N2)]
 Deg. of freedom   15
 Full point group                 CS      NOp   2
 Largest Abelian subgroup         CS      NOp   2
 Largest concise Abelian subgroup C1      NOp   1
                         Standard orientation:                         
 ---------------------------------------------------------------------
 Center     Atomic     Atomic              Coordinates (Angstroms)
 Number     Number      Type              X           Y           Z
 ---------------------------------------------------------------------
    1          7             0       -0.674969   -0.941702    0.000000
    2          1             0       -0.005288    1.979393    0.000000
    3          6             0        1.025744    0.302019    0.000000
    4          1             0        1.967693    0.604544    0.000000
    5          6             0        0.600174   -0.946822    0.000000
    6          1             0        1.173884   -1.755622    0.000000
    7          1             0       -1.969692    0.607211    0.000000
    8          6             0       -1.032886    0.288794    0.000000
    9          7             0        0.000000    1.041778    0.000000
 ---------------------------------------------------------------------
 Rotational constants (GHZ):     11.1543393     10.4769603      5.4025219
 Isotopes: N-14,H-1,C-12,H-1,C-12,H-1,H-1,C-12,N-14
 Standard basis: 6-31G (6D, 7F)
 There are    43 symmetry adapted basis functions of A'  symmetry.
 There are    10 symmetry adapted basis functions of A"  symmetry.
 Crude estimate of integral set expansion from redundant integrals=1.000.
 Integral buffers will be    262144 words long.
 Raffenetti 1 integral format.
 Two-electron integral symmetry is turned on.
    53 basis functions      126 primitive gaussians
    18 alpha electrons       18 beta electrons
       nuclear repulsion energy       173.5664837334 Hartrees.
 One-electron integrals computed using PRISM.
 NBasis=    53 RedAO= T  NBF=    43    10
 NBsUse=    53 1.00D-04 NBFU=    43    10
 Projected INDO Guess.
 Initial guess orbital symmetries:
       Occupied  (A') (A') (A') (A') (A') (A') (A') (A') (A') (A')
                 (A') (A") (A') (A') (A') (A") (A') (A")
       Virtual   (A") (A') (A') (A") (A') (A') (A') (A') (A') (A')
                 (A') (A') (A') (A') (A') (A') (A') (A') (A') (A')
                 (A') (A') (A') (A') (A') (A') (A') (A') (A') (A')
                 (A") (A") (A") (A") (A")
 Requested convergence on RMS density matrix=1.00D-08 within  64 cycles.
 Requested convergence on MAX density matrix=1.00D-06.
 Keep R1 integrals in memory in canonical form, NReq=     1438530.
 SCF Done:  E(RHF) =  -224.653266327     A.U. after   13 cycles
             Convg  =    0.7673D-08             -V/T =  1.9913
             S**2   =   0.0000
 Range of M.O.s used for correlation:     6    53
 NBasis=    53 NAE=    18 NBE=    18 NFC=     5 NFV=     0
 NROrb=     48 NOA=    13 NOB=    13 NVA=    35 NVB=    35
 Fully direct method using O(ONN) memory.
 JobTyp=1 Pass  1:  I=   6 to  18.
 Spin components of T(2) and E(2):
     alpha-alpha T2 =       0.2205568490D-01 E2=     -0.5770439858D-01
     alpha-beta  T2 =       0.1235318772D+00 E2=     -0.3327689386D+00
     beta-beta   T2 =       0.2205568490D-01 E2=     -0.5770439858D-01
 ANorm=    0.1080575424D+01
 E2 =    -0.4481777358D+00 EUMP2 =    -0.22510144406308D+03
          Differentiating once with respect to electric field.
                with respect to dipole field.
          Differentiating once with respect to nuclear coordinates.
          Store integrals in memory, NReq=     1434943.
          There are   1 degrees of freedom in the 1st order CPHF.
   1 vectors were produced by pass  0.
 AX will form   1 AO Fock derivatives at one time.
   1 vectors were produced by pass  1.
   1 vectors were produced by pass  2.
   1 vectors were produced by pass  3.
   1 vectors were produced by pass  4.
   1 vectors were produced by pass  5.
   1 vectors were produced by pass  6.
   1 vectors were produced by pass  7.
   1 vectors were produced by pass  8.
   1 vectors were produced by pass  9.
   1 vectors were produced by pass 10.
   1 vectors were produced by pass 11.
   1 vectors were produced by pass 12.
   1 vectors were produced by pass 13.
 Inv2:  IOpt= 1 Iter= 1 AM= 6.60D-16 Conv= 1.00D-12.
 Inverted reduced A of dimension  14 with in-core refinement.

 **********************************************************************

            Population analysis using the SCF density.

 **********************************************************************

 Orbital Symmetries:
       Occupied  (A') (A') (A') (A') (A') (A') (A') (A') (A') (A')
                 (A') (A") (A') (A') (A') (A") (A') (A")
       Virtual   (A") (A') (A") (A') (A') (A') (A') (A') (A') (A')
                 (A') (A') (A") (A") (A') (A") (A') (A') (A') (A")
                 (A') (A') (A') (A") (A') (A') (A') (A') (A') (A')
                 (A') (A') (A') (A') (A')
  The electronic state is 1-A'.
 Alpha  occ. eigenvalues --  -15.62331 -15.53064 -11.27093 -11.23659 -11.21304
 Alpha  occ. eigenvalues --   -1.43694  -1.22188  -1.04759  -0.87515  -0.83667
 Alpha  occ. eigenvalues --   -0.80588  -0.64708  -0.64546  -0.61951  -0.59910
 Alpha  occ. eigenvalues --   -0.41530  -0.41157  -0.32313
 Alpha virt. eigenvalues --    0.20710   0.22303   0.26948   0.30284   0.31787
 Alpha virt. eigenvalues --    0.33890   0.42263   0.43294   0.50560   0.52091
 Alpha virt. eigenvalues --    0.71034   0.74504   0.75918   0.81354   0.85876
 Alpha virt. eigenvalues --    0.87684   0.91847   0.98222   0.98794   1.02044
 Alpha virt. eigenvalues --    1.06038   1.10852   1.12004   1.12694   1.15317
 Alpha virt. eigenvalues --    1.23617   1.25465   1.29630   1.34301   1.38398
 Alpha virt. eigenvalues --    1.59832   1.61844   1.69246   1.90487   2.04485
          Condensed to atoms (all electrons):
              1          2          3          4          5          6
  1  N    6.786654   0.005579  -0.134050   0.007256   0.442387  -0.028372
  2  H    0.005579   0.305189  -0.012551  -0.000428   0.004258  -0.000057
  3  C   -0.134050  -0.012551   5.043608   0.370274   0.633259  -0.051788
  4  H    0.007256  -0.000428   0.370274   0.449793  -0.008492   0.002448
  5  C    0.442387   0.004258   0.633259  -0.008492   4.863766   0.397311
  6  H   -0.028372  -0.000057  -0.051788   0.002448   0.397311   0.474535
  7  H   -0.023657   0.000747   0.002665  -0.000049   0.006040  -0.000029
  8  C    0.600105  -0.009444  -0.144919   0.006041  -0.207450   0.007212
  9  N   -0.163100   0.323882   0.221322  -0.045736  -0.061469   0.004358
              7          8          9
  1  N   -0.023657   0.600105  -0.163100
  2  H    0.000747  -0.009444   0.323882
  3  C    0.002665  -0.144919   0.221322
  4  H   -0.000049   0.006041  -0.045736
  5  C    0.006040  -0.207450  -0.061469
  6  H   -0.000029   0.007212   0.004358
  7  H    0.454150   0.410471  -0.064122
  8  C    0.410471   4.792773   0.267523
  9  N   -0.064122   0.267523   7.314680
 Total atomic charges:
              1
  1  N   -0.492802
  2  H    0.382825
  3  C    0.072180
  4  H    0.218893
  5  C   -0.069610
  6  H    0.194382
  7  H    0.213784
  8  C    0.277687
  9  N   -0.797338
 Sum of Mulliken charges=   0.00000
 Atomic charges with hydrogens summed into heavy atoms:
              1
  1  N   -0.492802
  2  H    0.000000
  3  C    0.291072
  4  H    0.000000
  5  C    0.124772
  6  H    0.000000
  7  H    0.000000
  8  C    0.491471
  9  N   -0.414513
 Sum of Mulliken charges=   0.00000
 Electronic spatial extent (au):  <R**2>=   259.6445
 Charge=     0.0000 electrons
 Dipole moment (Debye):
    X=     1.3795    Y=     4.1121    Z=     0.0000  Tot=     4.3374
 Quadrupole moment (Debye-Ang):
   XX=   -26.9539   YY=   -26.3077   ZZ=   -31.0273
   XY=    -3.7506   XZ=     0.0000   YZ=     0.0000
 Octapole moment (Debye-Ang**2):
  XXX=     0.9970  YYY=    16.9889  ZZZ=     0.0000  XYY=     5.7662
  XXY=     5.9490  XXZ=     0.0000  XZZ=    -0.6591  YZZ=     1.2564
  YYZ=     0.0000  XYZ=     0.0000
 Hexadecapole moment (Debye-Ang**3):
 XXXX=  -136.3619 YYYY=  -127.4720 ZZZZ=   -30.2119 XXXY=    -3.7497
 XXXZ=     0.0000 YYYX=    -8.4311 YYYZ=     0.0000 ZZZX=     0.0000
 ZZZY=     0.0000 XXYY=   -51.5027 XXZZ=   -33.5386 YYZZ=   -31.9803
 XXYZ=     0.0000 YYXZ=     0.0000 ZZXY=     0.5163
 N-N= 1.735664837334D+02 E-N=-8.735353298146D+02  KE= 2.266153706904D+02
 Symmetry A'   KE= 2.186992318522D+02
 Symmetry A"   KE= 7.916138838230D+00
 ***** Axes restored to original set *****
 -------------------------------------------------------------------
 Center     Atomic                   Forces (Hartrees/Bohr)
 Number     Number              X              Y              Z
 -------------------------------------------------------------------
    1          7           0.099025338    0.000000000    0.121551849
    2          1           0.019159138    0.000000000   -0.080676479
    3          6          -0.109627577    0.000000000    0.004560266
    4          1          -0.071618636    0.000000000   -0.051578908
    5          6          -0.067469506    0.000000000    0.003944848
    6          1          -0.059915757    0.000000000    0.060715409
    7          1           0.086786720    0.000000000   -0.010495330
    8          6           0.064930668    0.000000000    0.034111651
    9          7           0.038729612    0.000000000   -0.082133306
 -------------------------------------------------------------------
 Cartesian Forces:  Max     0.121551849 RMS     0.055908905

 GradGradGradGradGradGradGradGradGradGradGradGradGradGradGradGradGradGrad
 Berny optimization.
 Internal  Forces:  Max     0.165791407 RMS     0.057157077
 Search for a local minimum.
 Step number   1 out of a maximum of  48
 All quantities printed in internal units (Hartrees-Bohrs-Radians)
 Second derivative matrix not updated -- first step.
     Eigenvalues ---    0.03211   0.03261   0.03288   0.03318   0.03352
     Eigenvalues ---    0.03407   0.16000   0.16000   0.16000   0.16000
     Eigenvalues ---    0.22000   0.22917   0.49193   0.49594   0.49613
     Eigenvalues ---    0.54578   0.60577   0.63413   0.68379   0.73836
     Eigenvalues ---    0.765081000.000001000.000001000.000001000.00000
     Eigenvalues --- 1000.000001000.000001000.000001000.000001000.00000
     Eigenvalues --- 1000.000001000.000001000.000001000.000001000.00000
     Eigenvalues --- 1000.000001000.000001000.00000
 RFO step:  Lambda=-1.51861715D-01.
 Linear search not attempted -- first point.
 Maximum step size (   0.300) exceeded in Quadratic search.
    -- Step size scaled by   0.687
 Iteration  1 RMS(Cart)=  0.06687060 RMS(Int)=  0.00033197
 Iteration  2 RMS(Cart)=  0.00038671 RMS(Int)=  0.00006736
 Iteration  3 RMS(Cart)=  0.00000016 RMS(Int)=  0.00006736
 Variable       Old X    -DE/DX   Delta X   Delta X   Delta X     New X
                                 (Linear)    (Quad)   (Total)
    R1        2.40969   0.15755   0.00000   0.11865   0.11861   2.52830
    R2        2.42167   0.09808   0.00000   0.07583   0.07570   2.49738
    R3        1.77186   0.08292   0.00000   0.07516   0.07516   1.84702
    R4        1.86958   0.08793   0.00000   0.09318   0.09318   1.96276
    R5        2.49323   0.10587   0.00000   0.09379   0.09388   2.58711
    R6        2.38988   0.16579   0.00000   0.12378   0.12388   2.51376
    R7        1.87388   0.08512   0.00000   0.09080   0.09080   1.96468
    R8        1.86977   0.08740   0.00000   0.09265   0.09265   1.96243
    R9        2.41548   0.14433   0.00000   0.11290   0.11287   2.52835
    A1        1.85787   0.00712   0.00000   0.00500   0.00480   1.86267
    A2        2.20999   0.01431   0.00000   0.02710   0.02700   2.23699
    A3        2.20602  -0.00002   0.00000  -0.00447  -0.00456   2.20146
    A4        1.86717  -0.01429   0.00000  -0.02263  -0.02244   1.84474
    A5        1.89521   0.00860   0.00000   0.01210   0.01216   1.90738
    A6        2.19177  -0.00946   0.00000  -0.01741  -0.01744   2.17433
    A7        2.19620   0.00086   0.00000   0.00531   0.00528   2.20148
    A8        2.18150   0.00404   0.00000   0.00732   0.00738   2.18888
    A9        1.91767  -0.00495   0.00000  -0.00775  -0.00788   1.90978
   A10        2.18402   0.00091   0.00000   0.00044   0.00050   2.18452
   A11        2.20124  -0.00167   0.00000  -0.00646  -0.00650   2.19475
   A12        2.19509  -0.00184   0.00000  -0.00682  -0.00686   2.18823
   A13        1.88685   0.00351   0.00000   0.01328   0.01335   1.90021
    D1        0.00000   0.00000   0.00000   0.00000   0.00000   0.00000
    D2        3.14159   0.00000   0.00000   0.00000   0.00000   3.14159
    D3        3.14159   0.00000   0.00000   0.00000   0.00000   3.14159
    D4        0.00000   0.00000   0.00000   0.00000   0.00000   0.00000
    D5        3.14159   0.00000   0.00000   0.00000   0.00000   3.14159
    D6        0.00000   0.00000   0.00000   0.00000   0.00000   0.00000
    D7        0.00000   0.00000   0.00000   0.00000   0.00000   0.00000
    D8        3.14159   0.00000   0.00000   0.00000   0.00000   3.14159
    D9        0.00000   0.00000   0.00000   0.00000   0.00000   0.00000
   D10        3.14159   0.00000   0.00000   0.00000   0.00000   3.14159
   D11        3.14159   0.00000   0.00000   0.00000   0.00000   3.14159
   D12        0.00000   0.00000   0.00000   0.00000   0.00000   0.00000
   D13        3.14159   0.00000   0.00000   0.00000   0.00000   3.14159
   D14        0.00000   0.00000   0.00000   0.00000   0.00000   0.00000
   D15        0.00000   0.00000   0.00000   0.00000   0.00000   0.00000
   D16        3.14159   0.00000   0.00000   0.00000   0.00000   3.14159
         Item               Value     Threshold  Converged?
 Maximum Force            0.165791     0.000450     NO 
 RMS     Force            0.057157     0.000300     NO 
 Maximum Displacement     0.195561     0.001800     NO 
 RMS     Displacement     0.066855     0.001200     NO 
 Predicted change in Energy=-2.897551D-02
 GradGradGradGradGradGradGradGradGradGradGradGradGradGradGradGradGradGrad

                          Input orientation:                          
 ---------------------------------------------------------------------
 Center     Atomic     Atomic              Coordinates (Angstroms)
 Number     Number      Type              X           Y           Z
 ---------------------------------------------------------------------
    1          7             0        0.477023    0.000000    1.113448
    2          1             0        0.473843    0.000000   -1.995558
    3          6             0       -0.984928    0.000000   -0.540897
    4          1             0       -1.869636    0.000000   -1.085028
    5          6             0       -0.828122    0.000000    0.819136
    6          1             0       -1.592035    0.000000    1.524358
    7          1             0        2.159216    0.000000   -0.145799
    8          6             0        1.126400    0.000000   -0.037559
    9          7             0        0.246051    0.000000   -1.045070
 ---------------------------------------------------------------------
                    Distance matrix (angstroms):
                    1          2          3          4          5
     1  N    0.000000
     2  H    3.109007   0.000000
     3  C    2.207749   2.060110   0.000000
     4  H    3.215603   2.514151   1.038647   0.000000
     5  C    1.337917   3.101228   1.369042   2.170390   0.000000
     6  H    2.109466   4.081379   2.152639   2.624110   1.039664
     7  H    2.101303   2.502417   3.168871   4.136882   3.139313
     8  C    1.321554   2.063878   2.170496   3.173865   2.134029
     9  N    2.170840   0.977403   1.330226   2.116064   2.151537
                    6          7          8          9
     6  H    0.000000
     7  H    4.106252   0.000000
     8  C    3.135199   1.038472   0.000000
     9  N    3.159196   2.113974   1.337944   0.000000
 Stoichiometry    C3H4N2
 Framework group  CS[SG(C3H4N2)]
 Deg. of freedom   15
 Full point group                 CS      NOp   2
 Largest Abelian subgroup         CS      NOp   2
 Largest concise Abelian subgroup C1      NOp   1
                         Standard orientation:                         
 ---------------------------------------------------------------------
 Center     Atomic     Atomic              Coordinates (Angstroms)
 Number     Number      Type              X           Y           Z
 ---------------------------------------------------------------------
    1          7             0       -0.711026   -0.972193    0.000000
    2          1             0       -0.007943    2.056272    0.000000
    3          6             0        1.085860    0.310521    0.000000
    4          1             0        2.070362    0.641492    0.000000
    5          6             0        0.626872   -0.979288    0.000000
    6          1             0        1.212393   -1.838396    0.000000
    7          1             0       -2.066512    0.633464    0.000000
    8          6             0       -1.084584    0.295467    0.000000
    9          7             0        0.000000    1.078902    0.000000
 ---------------------------------------------------------------------
 Rotational constants (GHZ):     10.0860505      9.7677457      4.9621732
 Isotopes: N-14,H-1,C-12,H-1,C-12,H-1,H-1,C-12,N-14
 Standard basis: 6-31G (6D, 7F)
 There are    43 symmetry adapted basis functions of A'  symmetry.
 There are    10 symmetry adapted basis functions of A"  symmetry.
 Crude estimate of integral set expansion from redundant integrals=1.000.
 Integral buffers will be    262144 words long.
 Raffenetti 1 integral format.
 Two-electron integral symmetry is turned on.
    53 basis functions      126 primitive gaussians
    18 alpha electrons       18 beta electrons
       nuclear repulsion energy       166.2834372360 Hartrees.
 One-electron integrals computed using PRISM.
 NBasis=    53 RedAO= T  NBF=    43    10
 NBsUse=    53 1.00D-04 NBFU=    43    10
 Initial guess read from the read-write file:
 Initial guess orbital symmetries:
       Occupied  (A') (A') (A') (A') (A') (A') (A') (A') (A') (A')
                 (A') (A") (A') (A') (A') (A") (A') (A")
       Virtual   (A") (A') (A") (A') (A') (A') (A') (A') (A') (A')
                 (A') (A') (A") (A") (A') (A") (A') (A') (A') (A")
                 (A') (A') (A') (A") (A') (A') (A') (A') (A') (A')
                 (A') (A') (A') (A') (A')
 Requested convergence on RMS density matrix=1.00D-08 within  64 cycles.
 Requested convergence on MAX density matrix=1.00D-06.
 Keep R1 integrals in memory in canonical form, NReq=     1438530.
 SCF Done:  E(RHF) =  -224.702937589     A.U. after   13 cycles
             Convg  =    0.2986D-08             -V/T =  1.9973
             S**2   =   0.0000
 Range of M.O.s used for correlation:     6    53
 NBasis=    53 NAE=    18 NBE=    18 NFC=     5 NFV=     0
 NROrb=     48 NOA=    13 NOB=    13 NVA=    35 NVB=    35
 Fully direct method using O(ONN) memory.
 JobTyp=1 Pass  1:  I=   6 to  18.
 Spin components of T(2) and E(2):
     alpha-alpha T2 =       0.2414716159D-01 E2=     -0.6019628597D-01
     alpha-beta  T2 =       0.1366714930D+00 E2=     -0.3492956863D+00
     beta-beta   T2 =       0.2414716159D-01 E2=     -0.6019628597D-01
 ANorm=    0.1088561352D+01
 E2 =    -0.4696882582D+00 EUMP2 =    -0.22517262584688D+03
          Differentiating once with respect to electric field.
                with respect to dipole field.
          Differentiating once with respect to nuclear coordinates.
          Store integrals in memory, NReq=     1434943.
          There are   1 degrees of freedom in the 1st order CPHF.
   1 vectors were produced by pass  0.
 AX will form   1 AO Fock derivatives at one time.
   1 vectors were produced by pass  1.
   1 vectors were produced by pass  2.
   1 vectors were produced by pass  3.
   1 vectors were produced by pass  4.
   1 vectors were produced by pass  5.
   1 vectors were produced by pass  6.
   1 vectors were produced by pass  7.
   1 vectors were produced by pass  8.
   1 vectors were produced by pass  9.
   1 vectors were produced by pass 10.
   1 vectors were produced by pass 11.
   1 vectors were produced by pass 12.
   1 vectors were produced by pass 13.
 Inv2:  IOpt= 1 Iter= 1 AM= 3.96D-16 Conv= 1.00D-12.
 Inverted reduced A of dimension  14 with in-core refinement.
 ***** Axes restored to original set *****
 -------------------------------------------------------------------
 Center     Atomic                   Forces (Hartrees/Bohr)
 Number     Number              X              Y              Z
 -------------------------------------------------------------------
    1          7           0.044650451    0.000000000    0.054642664
    2          1           0.007430042    0.000000000   -0.032754689
    3          6          -0.044301692    0.000000000    0.015425392
    4          1          -0.026790358    0.000000000   -0.024194864
    5          6          -0.029394481    0.000000000   -0.011362598
    6          1          -0.021852606    0.000000000    0.026892806
    7          1           0.034425722    0.000000000   -0.005371362
    8          6           0.016656139    0.000000000    0.017023549
    9          7           0.019176784    0.000000000   -0.040300897
 -------------------------------------------------------------------
 Cartesian Forces:  Max     0.054642664 RMS     0.024020270

 GradGradGradGradGradGradGradGradGradGradGradGradGradGradGradGradGradGrad
 Berny optimization.
 Internal  Forces:  Max     0.066595269 RMS     0.022756041
 Search for a local minimum.
 Step number   2 out of a maximum of  48
 All quantities printed in internal units (Hartrees-Bohrs-Radians)
 Update second derivatives using information from points  1  2
 Trust test= 2.46D+00 RLast= 3.00D-01 DXMaxT set to 4.24D-01
     Eigenvalues ---    0.03210   0.03262   0.03288   0.03315   0.03352
     Eigenvalues ---    0.03406   0.15941   0.16000   0.16000   0.16001
     Eigenvalues ---    0.22163   0.22854   0.49303   0.49603   0.51069
     Eigenvalues ---    0.55807   0.60909   0.64031   0.70062   0.74118
     Eigenvalues ---    0.773201000.000001000.000001000.000001000.00000
     Eigenvalues --- 1000.000001000.000001000.000001000.000001000.00000
     Eigenvalues --- 1000.000001000.000001000.000001000.000001000.00000
     Eigenvalues --- 1000.000001000.000001000.00000
 RFO step:  Lambda=-3.21102775D-03.
 Quartic linear search produced a step of  0.89901.
 Iteration  1 RMS(Cart)=  0.06260257 RMS(Int)=  0.00117823
 Iteration  2 RMS(Cart)=  0.00142329 RMS(Int)=  0.00005792
 Iteration  3 RMS(Cart)=  0.00000226 RMS(Int)=  0.00005789
 Iteration  4 RMS(Cart)=  0.00000000 RMS(Int)=  0.00005789
 Variable       Old X    -DE/DX   Delta X   Delta X   Delta X     New X
                                 (Linear)    (Quad)   (Total)
    R1        2.52830   0.06451   0.10663   0.00378   0.11032   2.63862
    R2        2.49738   0.03807   0.06806  -0.00200   0.06599   2.56336
    R3        1.84702   0.03358   0.06757   0.00489   0.07246   1.91948
    R4        1.96276   0.03550   0.08377   0.01040   0.09417   2.05692
    R5        2.58711   0.03692   0.08440  -0.01328   0.07114   2.65825
    R6        2.51376   0.06660   0.11137   0.00045   0.11191   2.62568
    R7        1.96468   0.03430   0.08163   0.01010   0.09173   2.05641
    R8        1.96243   0.03480   0.08330   0.00850   0.09180   2.05422
    R9        2.52835   0.05703   0.10147  -0.00024   0.10127   2.62961
    A1        1.86267  -0.00246   0.00431  -0.04026  -0.03615   1.82652
    A2        2.23699   0.00819   0.02427   0.04901   0.07322   2.31021
    A3        2.20146  -0.00471  -0.00410  -0.05573  -0.05990   2.14155
    A4        1.84474  -0.00349  -0.02017   0.00672  -0.01332   1.83142
    A5        1.90738   0.00594   0.01094   0.02234   0.03323   1.94061
    A6        2.17433  -0.00782  -0.01568  -0.05127  -0.06692   2.10741
    A7        2.20148   0.00188   0.00475   0.02892   0.03369   2.23517
    A8        2.18888   0.00021   0.00663  -0.00545   0.00120   2.19008
    A9        1.90978   0.00302  -0.00708   0.04105   0.03395   1.94373
   A10        2.18452  -0.00323   0.00045  -0.03560  -0.03514   2.14937
   A11        2.19475   0.00113  -0.00584   0.01028   0.00437   2.19912
   A12        2.18823   0.00188  -0.00617   0.01958   0.01334   2.20157
   A13        1.90021  -0.00300   0.01201  -0.02986  -0.01771   1.88250
    D1        0.00000   0.00000   0.00000   0.00000   0.00000   0.00000
    D2        3.14159   0.00000   0.00000   0.00000   0.00000   3.14159
    D3        3.14159   0.00000   0.00000   0.00000   0.00000   3.14159
    D4        0.00000   0.00000   0.00000   0.00000   0.00000   0.00000
    D5        3.14159   0.00000   0.00000   0.00000   0.00000   3.14159
    D6        0.00000   0.00000   0.00000   0.00000   0.00000   0.00000
    D7        0.00000   0.00000   0.00000   0.00000   0.00000   0.00000
    D8        3.14159   0.00000   0.00000   0.00000   0.00000   3.14159
    D9        0.00000   0.00000   0.00000   0.00000   0.00000   0.00000
   D10        3.14159   0.00000   0.00000   0.00000   0.00000   3.14159
   D11        3.14159   0.00000   0.00000   0.00000   0.00000   3.14159
   D12        0.00000   0.00000   0.00000   0.00000   0.00000   0.00000
   D13        3.14159   0.00000   0.00000   0.00000   0.00000   3.14159
   D14        0.00000   0.00000   0.00000   0.00000   0.00000   0.00000
   D15        0.00000   0.00000   0.00000   0.00000   0.00000   0.00000
   D16        3.14159   0.00000   0.00000   0.00000   0.00000   3.14159
         Item               Value     Threshold  Converged?
 Maximum Force            0.066595     0.000450     NO 
 RMS     Force            0.022756     0.000300     NO 
 Maximum Displacement     0.181080     0.001800     NO 
 RMS     Displacement     0.062439     0.001200     NO 
 Predicted change in Energy=-2.702243D-02
 GradGradGradGradGradGradGradGradGradGradGradGradGradGradGradGradGradGrad

                          Input orientation:                          
 ---------------------------------------------------------------------
 Center     Atomic     Atomic              Coordinates (Angstroms)
 Number     Number      Type              X           Y           Z
 ---------------------------------------------------------------------
    1          7             0        0.501799    0.000000    1.170839
    2          1             0        0.489336    0.000000   -2.071882
    3          6             0       -1.035684    0.000000   -0.556708
    4          1             0       -1.927781    0.000000   -1.180364
    5          6             0       -0.854307    0.000000    0.838236
    6          1             0       -1.617393    0.000000    1.614051
    7          1             0        2.226475    0.000000   -0.155436
    8          6             0        1.147645    0.000000   -0.022017
    9          7             0        0.249470    0.000000   -1.084862
 ---------------------------------------------------------------------
                    Distance matrix (angstroms):
                    1          2          3          4          5
     1  N    0.000000
     2  H    3.242744   0.000000
     3  C    2.312633   2.149753   0.000000
     4  H    3.380978   2.576288   1.088478   0.000000
     5  C    1.396298   3.205333   1.406686   2.286283   0.000000
     6  H    2.165043   4.245516   2.247350   2.811600   1.088204
     7  H    2.175664   2.586584   3.286746   4.278823   3.237067
     8  C    1.356474   2.152978   2.247848   3.286338   2.178956
     9  N    2.269770   1.015748   1.389448   2.179345   2.217347
                    6          7          8          9
     6  H    0.000000
     7  H    4.231596   0.000000
     8  C    3.212811   1.087049   0.000000
     9  N    3.281662   2.184579   1.391531   0.000000
 Stoichiometry    C3H4N2
 Framework group  CS[SG(C3H4N2)]
 Deg. of freedom   15
 Full point group                 CS      NOp   2
 Largest Abelian subgroup         CS      NOp   2
 Largest concise Abelian subgroup C1      NOp   1
                         Standard orientation:                         
 ---------------------------------------------------------------------
 Center     Atomic     Atomic              Coordinates (Angstroms)
 Number     Number      Type              X           Y           Z
 ---------------------------------------------------------------------
    1          7             0       -0.748359   -1.019634    0.000000
    2          1             0       -0.014023    2.138869    0.000000
    3          6             0        1.135252    0.322113    0.000000
    4          1             0        2.143838    0.731426    0.000000
    5          6             0        0.647762   -0.997403    0.000000
    6          1             0        1.218901   -1.923680    0.000000
    7          1             0       -2.134345    0.657434    0.000000
    8          6             0       -1.112324    0.287100    0.000000
    9          7             0        0.000000    1.123218    0.000000
 ---------------------------------------------------------------------
 Rotational constants (GHZ):      9.4888978      8.9759356      4.6126458
 Isotopes: N-14,H-1,C-12,H-1,C-12,H-1,H-1,C-12,N-14
 Standard basis: 6-31G (6D, 7F)
 There are    43 symmetry adapted basis functions of A'  symmetry.
 There are    10 symmetry adapted basis functions of A"  symmetry.
 Crude estimate of integral set expansion from redundant integrals=1.000.
 Integral buffers will be    262144 words long.
 Raffenetti 1 integral format.
 Two-electron integral symmetry is turned on.
    53 basis functions      126 primitive gaussians
    18 alpha electrons       18 beta electrons
       nuclear repulsion energy       160.2827838483 Hartrees.
 One-electron integrals computed using PRISM.
 NBasis=    53 RedAO= T  NBF=    43    10
 NBsUse=    53 1.00D-04 NBFU=    43    10
 Initial guess read from the read-write file:
 Initial guess orbital symmetries:
       Occupied  (A') (A') (A') (A') (A') (A') (A') (A') (A') (A')
                 (A') (A') (A") (A') (A') (A') (A") (A")
       Virtual   (A") (A') (A") (A') (A') (A') (A') (A') (A') (A')
                 (A') (A') (A") (A") (A') (A") (A') (A') (A') (A')
                 (A") (A') (A') (A") (A') (A') (A') (A') (A') (A')
                 (A') (A') (A') (A') (A')
 Requested convergence on RMS density matrix=1.00D-08 within  64 cycles.
 Requested convergence on MAX density matrix=1.00D-06.
 Keep R1 integrals in memory in canonical form, NReq=     1438530.
 SCF Done:  E(RHF) =  -224.700713976     A.U. after   13 cycles
             Convg  =    0.3098D-08             -V/T =  2.0017
             S**2   =   0.0000
 Range of M.O.s used for correlation:     6    53
 NBasis=    53 NAE=    18 NBE=    18 NFC=     5 NFV=     0
 NROrb=     48 NOA=    13 NOB=    13 NVA=    35 NVB=    35
 Fully direct method using O(ONN) memory.
 JobTyp=1 Pass  1:  I=   6 to  18.
 Spin components of T(2) and E(2):
     alpha-alpha T2 =       0.2620960243D-01 E2=     -0.6257258623D-01
     alpha-beta  T2 =       0.1498595356D+00 E2=     -0.3650702042D+00
     beta-beta   T2 =       0.2620960243D-01 E2=     -0.6257258623D-01
 ANorm=    0.1096484720D+01
 E2 =    -0.4902153767D+00 EUMP2 =    -0.22519092935313D+03
          Differentiating once with respect to electric field.
                with respect to dipole field.
          Differentiating once with respect to nuclear coordinates.
          Store integrals in memory, NReq=     1434943.
          There are   1 degrees of freedom in the 1st order CPHF.
   1 vectors were produced by pass  0.
 AX will form   1 AO Fock derivatives at one time.
   1 vectors were produced by pass  1.
   1 vectors were produced by pass  2.
   1 vectors were produced by pass  3.
   1 vectors were produced by pass  4.
   1 vectors were produced by pass  5.
   1 vectors were produced by pass  6.
   1 vectors were produced by pass  7.
   1 vectors were produced by pass  8.
   1 vectors were produced by pass  9.
   1 vectors were produced by pass 10.
   1 vectors were produced by pass 11.
   1 vectors were produced by pass 12.
   1 vectors were produced by pass 13.
 Inv2:  IOpt= 1 Iter= 1 AM= 6.70D-16 Conv= 1.00D-12.
 Inverted reduced A of dimension  14 with in-core refinement.
 ***** Axes restored to original set *****
 -------------------------------------------------------------------
 Center     Atomic                   Forces (Hartrees/Bohr)
 Number     Number              X              Y              Z
 -------------------------------------------------------------------
    1          7           0.009051352    0.000000000   -0.006737710
    2          1          -0.000615951    0.000000000    0.004384820
    3          6          -0.009361974    0.000000000    0.011900679
    4          1           0.003564327    0.000000000    0.003109761
    5          6          -0.019250978    0.000000000   -0.005657855
    6          1           0.002856676    0.000000000   -0.003875230
    7          1          -0.003992817    0.000000000    0.000356532
    8          6           0.009401607    0.000000000    0.001379281
    9          7           0.008347757    0.000000000   -0.004860279
 -------------------------------------------------------------------
 Cartesian Forces:  Max     0.019250978 RMS     0.006158513

 GradGradGradGradGradGradGradGradGradGradGradGradGradGradGradGradGradGrad
 Berny optimization.
 Internal  Forces:  Max     0.011643926 RMS     0.003870913
 Search for a local minimum.
 Step number   3 out of a maximum of  48
 All quantities printed in internal units (Hartrees-Bohrs-Radians)
 Update second derivatives using information from points  1  2  3
 Trust test= 6.77D-01 RLast= 3.09D-01 DXMaxT set to 4.24D-01
     Eigenvalues ---    0.03204   0.03261   0.03287   0.03304   0.03350
     Eigenvalues ---    0.03404   0.15706   0.16000   0.16000   0.16005
     Eigenvalues ---    0.22171   0.23563   0.46281   0.49327   0.49605
     Eigenvalues ---    0.56310   0.58455   0.63019   0.64930   0.71867
     Eigenvalues ---    0.746831000.000001000.000001000.000001000.00000
     Eigenvalues --- 1000.000001000.000001000.000001000.000001000.00000
     Eigenvalues --- 1000.000001000.000001000.000001000.000001000.00000
     Eigenvalues --- 1000.000001000.000001000.00000
 RFO step:  Lambda=-1.07311537D-03.
 Quartic linear search produced a step of -0.03109.
 Iteration  1 RMS(Cart)=  0.00963474 RMS(Int)=  0.00004514
 Iteration  2 RMS(Cart)=  0.00004327 RMS(Int)=  0.00000450
 Iteration  3 RMS(Cart)=  0.00000000 RMS(Int)=  0.00000450
 Variable       Old X    -DE/DX   Delta X   Delta X   Delta X     New X
                                 (Linear)    (Quad)   (Total)
    R1        2.63862   0.01135  -0.00343   0.01977   0.01635   2.65497
    R2        2.56336  -0.00303  -0.00205  -0.00095  -0.00300   2.56037
    R3        1.91948  -0.00441  -0.00225  -0.00390  -0.00615   1.91333
    R4        2.05692  -0.00470  -0.00293  -0.00522  -0.00815   2.04877
    R5        2.65825  -0.01164  -0.00221  -0.01515  -0.01735   2.64090
    R6        2.62568   0.01080  -0.00348   0.01842   0.01494   2.64061
    R7        2.05641  -0.00477  -0.00285  -0.00553  -0.00839   2.04802
    R8        2.05422  -0.00401  -0.00285  -0.00396  -0.00681   2.04741
    R9        2.62961  -0.00103  -0.00315   0.00325   0.00009   2.62970
    A1        1.82652   0.00550   0.00112   0.02132   0.02246   1.84898
    A2        2.31021  -0.00121  -0.00228  -0.00385  -0.00613   2.30408
    A3        2.14155  -0.00017   0.00186  -0.00166   0.00020   2.14176
    A4        1.83142   0.00137   0.00041   0.00551   0.00593   1.83735
    A5        1.94061  -0.00375  -0.00103  -0.01508  -0.01610   1.92451
    A6        2.10741   0.00258   0.00208   0.01022   0.01229   2.11970
    A7        2.23517   0.00118  -0.00105   0.00486   0.00381   2.23897
    A8        2.19008   0.00261  -0.00004   0.01118   0.01115   2.20123
    A9        1.94373  -0.00495  -0.00106  -0.01955  -0.02062   1.92311
   A10        2.14937   0.00233   0.00109   0.00837   0.00947   2.15884
   A11        2.19912  -0.00049  -0.00014  -0.00151  -0.00164   2.19748
   A12        2.20157  -0.00133  -0.00041  -0.00629  -0.00669   2.19488
   A13        1.88250   0.00183   0.00055   0.00779   0.00833   1.89083
    D1        0.00000   0.00000   0.00000   0.00000   0.00000   0.00000
    D2        3.14159   0.00000   0.00000   0.00000   0.00000   3.14159
    D3        3.14159   0.00000   0.00000   0.00000   0.00000   3.14159
    D4        0.00000   0.00000   0.00000   0.00000   0.00000   0.00000
    D5        3.14159   0.00000   0.00000   0.00000   0.00000   3.14159
    D6        0.00000   0.00000   0.00000   0.00000   0.00000   0.00000
    D7        0.00000   0.00000   0.00000   0.00000   0.00000   0.00000
    D8        3.14159   0.00000   0.00000   0.00000   0.00000   3.14159
    D9        0.00000   0.00000   0.00000   0.00000   0.00000   0.00000
   D10        3.14159   0.00000   0.00000   0.00000   0.00000   3.14159
   D11        3.14159   0.00000   0.00000   0.00000   0.00000   3.14159
   D12        0.00000   0.00000   0.00000   0.00000   0.00000   0.00000
   D13        3.14159   0.00000   0.00000   0.00000   0.00000   3.14159
   D14        0.00000   0.00000   0.00000   0.00000   0.00000   0.00000
   D15        0.00000   0.00000   0.00000   0.00000   0.00000   0.00000
   D16        3.14159   0.00000   0.00000   0.00000   0.00000   3.14159
         Item               Value     Threshold  Converged?
 Maximum Force            0.011644     0.000450     NO 
 RMS     Force            0.003871     0.000300     NO 
 Maximum Displacement     0.025369     0.001800     NO 
 RMS     Displacement     0.009632     0.001200     NO 
 Predicted change in Energy=-5.548322D-04
 GradGradGradGradGradGradGradGradGradGradGradGradGradGradGradGradGradGrad

                          Input orientation:                          
 ---------------------------------------------------------------------
 Center     Atomic     Atomic              Coordinates (Angstroms)
 Number     Number      Type              X           Y           Z
 ---------------------------------------------------------------------
    1          7             0        0.502134    0.000000    1.147268
    2          1             0        0.490792    0.000000   -2.075782
    3          6             0       -1.038465    0.000000   -0.559677
    4          1             0       -1.927439    0.000000   -1.180273
    5          6             0       -0.865853    0.000000    0.827126
    6          1             0       -1.627110    0.000000    1.598514
    7          1             0        2.236613    0.000000   -0.168730
    8          6             0        1.161270    0.000000   -0.036480
    9          7             0        0.253756    0.000000   -1.091427
 ---------------------------------------------------------------------
                    Distance matrix (angstroms):
                    1          2          3          4          5
     1  N    0.000000
     2  H    3.223070   0.000000
     3  C    2.299370   2.153417   0.000000
     4  H    3.364560   2.578717   1.084165   0.000000
     5  C    1.404948   3.204273   1.397504   2.270818   0.000000
     6  H    2.176534   4.240986   2.237027   2.794969   1.083767
     7  H    2.177215   2.585486   3.298329   4.285154   3.258377
     8  C    1.354887   2.146694   2.261100   3.293689   2.203417
     9  N    2.252430   1.012493   1.397352   2.183004   2.221344
                    6          7          8          9
     6  H    0.000000
     7  H    4.248706   0.000000
     8  C    3.232378   1.083444   0.000000
     9  N    3.282292   2.187028   1.391580   0.000000
 Stoichiometry    C3H4N2
 Framework group  CS[SG(C3H4N2)]
 Deg. of freedom   15
 Full point group                 CS      NOp   2
 Largest Abelian subgroup         CS      NOp   2
 Largest concise Abelian subgroup C1      NOp   1
                         Standard orientation:                         
 ---------------------------------------------------------------------
 Center     Atomic     Atomic              Coordinates (Angstroms)
 Number     Number      Type              X           Y           Z
 ---------------------------------------------------------------------
    1          7             0       -0.749192   -1.005023    0.000000
    2          1             0       -0.007821    2.131623    0.000000
    3          6             0        1.138118    0.308431    0.000000
    4          1             0        2.144593    0.711449    0.000000
    5          6             0        0.655755   -1.003187    0.000000
    6          1             0        1.222418   -1.927007    0.000000
    7          1             0       -2.140359    0.669767    0.000000
    8          6             0       -1.122954    0.297291    0.000000
    9          7             0        0.000000    1.119160    0.000000
 ---------------------------------------------------------------------
 Rotational constants (GHZ):      9.3305094      9.1095096      4.6093426
 Isotopes: N-14,H-1,C-12,H-1,C-12,H-1,H-1,C-12,N-14
 Standard basis: 6-31G (6D, 7F)
 There are    43 symmetry adapted basis functions of A'  symmetry.
 There are    10 symmetry adapted basis functions of A"  symmetry.
 Crude estimate of integral set expansion from redundant integrals=1.000.
 Integral buffers will be    262144 words long.
 Raffenetti 1 integral format.
 Two-electron integral symmetry is turned on.
    53 basis functions      126 primitive gaussians
    18 alpha electrons       18 beta electrons
       nuclear repulsion energy       160.2232573794 Hartrees.
 One-electron integrals computed using PRISM.
 NBasis=    53 RedAO= T  NBF=    43    10
 NBsUse=    53 1.00D-04 NBFU=    43    10
 Initial guess read from the read-write file:
 Initial guess orbital symmetries:
       Occupied  (A') (A') (A') (A') (A') (A') (A') (A') (A') (A')
                 (A') (A') (A') (A") (A') (A') (A") (A")
       Virtual   (A") (A') (A") (A') (A') (A') (A') (A') (A') (A')
                 (A') (A') (A") (A") (A') (A') (A") (A') (A') (A')
                 (A") (A') (A') (A") (A') (A') (A') (A') (A') (A')
                 (A') (A') (A') (A') (A')
 Requested convergence on RMS density matrix=1.00D-08 within  64 cycles.
 Requested convergence on MAX density matrix=1.00D-06.
 Keep R1 integrals in memory in canonical form, NReq=     1438530.
 SCF Done:  E(RHF) =  -224.701921887     A.U. after   12 cycles
             Convg  =    0.4247D-08             -V/T =  2.0017
             S**2   =   0.0000
 Range of M.O.s used for correlation:     6    53
 NBasis=    53 NAE=    18 NBE=    18 NFC=     5 NFV=     0
 NROrb=     48 NOA=    13 NOB=    13 NVA=    35 NVB=    35
 Fully direct method using O(ONN) memory.
 JobTyp=1 Pass  1:  I=   6 to  18.
 Spin components of T(2) and E(2):
     alpha-alpha T2 =       0.2614044200D-01 E2=     -0.6246174656D-01
     alpha-beta  T2 =       0.1494890490D+00 E2=     -0.3645910030D+00
     beta-beta   T2 =       0.2614044200D-01 E2=     -0.6246174656D-01
 ANorm=    0.1096252678D+01
 E2 =    -0.4895144961D+00 EUMP2 =    -0.22519143638280D+03
          Differentiating once with respect to electric field.
                with respect to dipole field.
          Differentiating once with respect to nuclear coordinates.
          Store integrals in memory, NReq=     1434943.
          There are   1 degrees of freedom in the 1st order CPHF.
   1 vectors were produced by pass  0.
 AX will form   1 AO Fock derivatives at one time.
   1 vectors were produced by pass  1.
   1 vectors were produced by pass  2.
   1 vectors were produced by pass  3.
   1 vectors were produced by pass  4.
   1 vectors were produced by pass  5.
   1 vectors were produced by pass  6.
   1 vectors were produced by pass  7.
   1 vectors were produced by pass  8.
   1 vectors were produced by pass  9.
   1 vectors were produced by pass 10.
   1 vectors were produced by pass 11.
   1 vectors were produced by pass 12.
   1 vectors were produced by pass 13.
 Inv2:  IOpt= 1 Iter= 1 AM= 7.16D-16 Conv= 1.00D-12.
 Inverted reduced A of dimension  14 with in-core refinement.
 ***** Axes restored to original set *****
 -------------------------------------------------------------------
 Center     Atomic                   Forces (Hartrees/Bohr)
 Number     Number              X              Y              Z
 -------------------------------------------------------------------
    1          7           0.007995916    0.000000000    0.002645376
    2          1          -0.000900379    0.000000000    0.001041688
    3          6          -0.002862501    0.000000000    0.004936422
    4          1           0.001578640    0.000000000    0.000420468
    5          6          -0.004486280    0.000000000   -0.006325656
    6          1           0.001929567    0.000000000   -0.000929760
    7          1          -0.001797177    0.000000000    0.000325436
    8          6          -0.005472380    0.000000000    0.003517349
    9          7           0.004014594    0.000000000   -0.005631323
 -------------------------------------------------------------------
 Cartesian Forces:  Max     0.007995916 RMS     0.003140365

 GradGradGradGradGradGradGradGradGradGradGradGradGradGradGradGradGradGrad
 Berny optimization.
 Internal  Forces:  Max     0.003922541 RMS     0.001653434
 Search for a local minimum.
 Step number   4 out of a maximum of  48
 All quantities printed in internal units (Hartrees-Bohrs-Radians)
 Update second derivatives using information from points  1  2  3  4
 Trust test= 9.14D-01 RLast= 5.27D-02 DXMaxT set to 4.24D-01
     Eigenvalues ---    0.03204   0.03262   0.03287   0.03305   0.03351
     Eigenvalues ---    0.03405   0.15677   0.15998   0.16000   0.16060
     Eigenvalues ---    0.21889   0.35952   0.42913   0.48730   0.49462
     Eigenvalues ---    0.49745   0.57485   0.59770   0.64694   0.67237
     Eigenvalues ---    0.767261000.000001000.000001000.000001000.00000
     Eigenvalues --- 1000.000001000.000001000.000001000.000001000.00000
     Eigenvalues --- 1000.000001000.000001000.000001000.000001000.00000
     Eigenvalues --- 1000.000001000.000001000.00000
 RFO step:  Lambda=-2.55191733D-04.
 Quartic linear search produced a step of -0.07501.
 Iteration  1 RMS(Cart)=  0.00359522 RMS(Int)=  0.00000973
 Iteration  2 RMS(Cart)=  0.00000983 RMS(Int)=  0.00000533
 Iteration  3 RMS(Cart)=  0.00000000 RMS(Int)=  0.00000533
 Variable       Old X    -DE/DX   Delta X   Delta X   Delta X     New X
                                 (Linear)    (Quad)   (Total)
    R1        2.65497   0.00392  -0.00123   0.01104   0.00981   2.66477
    R2        2.56037  -0.00322   0.00022  -0.00442  -0.00419   2.55618
    R3        1.91333  -0.00122   0.00046  -0.00301  -0.00255   1.91078
    R4        2.04877  -0.00154   0.00061  -0.00437  -0.00376   2.04501
    R5        2.64090  -0.00351   0.00130  -0.00951  -0.00821   2.63268
    R6        2.64061   0.00128  -0.00112   0.00746   0.00633   2.64695
    R7        2.04802  -0.00202   0.00063  -0.00540  -0.00477   2.04325
    R8        2.04741  -0.00182   0.00051  -0.00449  -0.00398   2.04343
    R9        2.62970   0.00056  -0.00001   0.00180   0.00180   2.63151
    A1        1.84898  -0.00367  -0.00168  -0.00756  -0.00924   1.83973
    A2        2.30408   0.00053   0.00046   0.00146   0.00192   2.30600
    A3        2.14176  -0.00062  -0.00002  -0.00362  -0.00362   2.13813
    A4        1.83735   0.00009  -0.00044   0.00216   0.00170   1.83905
    A5        1.92451   0.00206   0.00121   0.00363   0.00482   1.92934
    A6        2.11970  -0.00177  -0.00092  -0.00490  -0.00582   2.11388
    A7        2.23897  -0.00029  -0.00029   0.00128   0.00100   2.23997
    A8        2.20123  -0.00203  -0.00084  -0.00466  -0.00550   2.19573
    A9        1.92311   0.00384   0.00155   0.00869   0.01025   1.93337
   A10        2.15884  -0.00182  -0.00071  -0.00403  -0.00475   2.15409
   A11        2.19748   0.00056   0.00012   0.00077   0.00089   2.19837
   A12        2.19488   0.00177   0.00050   0.00614   0.00664   2.20152
   A13        1.89083  -0.00233  -0.00062  -0.00691  -0.00753   1.88329
    D1        0.00000   0.00000   0.00000   0.00000   0.00000   0.00000
    D2        3.14159   0.00000   0.00000   0.00000   0.00000   3.14159
    D3        3.14159   0.00000   0.00000   0.00000   0.00000   3.14159
    D4        0.00000   0.00000   0.00000   0.00000   0.00000   0.00000
    D5        3.14159   0.00000   0.00000   0.00000   0.00000   3.14159
    D6        0.00000   0.00000   0.00000   0.00000   0.00000   0.00000
    D7        0.00000   0.00000   0.00000   0.00000   0.00000   0.00000
    D8        3.14159   0.00000   0.00000   0.00000   0.00000   3.14159
    D9        0.00000   0.00000   0.00000   0.00000   0.00000   0.00000
   D10        3.14159   0.00000   0.00000   0.00000   0.00000   3.14159
   D11        3.14159   0.00000   0.00000   0.00000   0.00000   3.14159
   D12        0.00000   0.00000   0.00000   0.00000   0.00000   0.00000
   D13        3.14159   0.00000   0.00000   0.00000   0.00000   3.14159
   D14        0.00000   0.00000   0.00000   0.00000   0.00000   0.00000
   D15        0.00000   0.00000   0.00000   0.00000   0.00000   0.00000
   D16        3.14159   0.00000   0.00000   0.00000   0.00000   3.14159
         Item               Value     Threshold  Converged?
 Maximum Force            0.003923     0.000450     NO 
 RMS     Force            0.001653     0.000300     NO 
 Maximum Displacement     0.010409     0.001800     NO 
 RMS     Displacement     0.003598     0.001200     NO 
 Predicted change in Energy=-1.308585D-04
 GradGradGradGradGradGradGradGradGradGradGradGradGradGradGradGradGradGrad

                          Input orientation:                          
 ---------------------------------------------------------------------
 Center     Atomic     Atomic              Coordinates (Angstroms)
 Number     Number      Type              X           Y           Z
 ---------------------------------------------------------------------
    1          7             0        0.505961    0.000000    1.152251
    2          1             0        0.489713    0.000000   -2.076629
    3          6             0       -1.039195    0.000000   -0.556729
    4          1             0       -1.925927    0.000000   -1.177058
    5          6             0       -0.865821    0.000000    0.825598
    6          1             0       -1.623814    0.000000    1.596658
    7          1             0        2.230943    0.000000   -0.164914
    8          6             0        1.157675    0.000000   -0.033073
    9          7             0        0.254714    0.000000   -1.093173
 ---------------------------------------------------------------------
                    Distance matrix (angstroms):
                    1          2          3          4          5
     1  N    0.000000
     2  H    3.228920   0.000000
     3  C    2.303935   2.155843   0.000000
     4  H    3.367455   2.577701   1.082175   0.000000
     5  C    1.410138   3.203185   1.393157   2.265934   0.000000
     6  H    2.175647   4.237928   2.231335   2.790121   1.081243
     7  H    2.170365   2.585833   3.293527   4.278317   3.251317
     8  C    1.352672   2.149952   2.258418   3.288966   2.198148
     9  N    2.259436   1.011143   1.400704   2.182253   2.222000
                    6          7          8          9
     6  H    0.000000
     7  H    4.238194   0.000000
     8  C    3.223772   1.081336   0.000000
     9  N    3.280863   2.183380   1.392534   0.000000
 Stoichiometry    C3H4N2
 Framework group  CS[SG(C3H4N2)]
 Deg. of freedom   15
 Full point group                 CS      NOp   2
 Largest Abelian subgroup         CS      NOp   2
 Largest concise Abelian subgroup C1      NOp   1
                         Standard orientation:                         
 ---------------------------------------------------------------------
 Center     Atomic     Atomic              Coordinates (Angstroms)
 Number     Number      Type              X           Y           Z
 ---------------------------------------------------------------------
    1          7             0       -0.753565   -1.007513    0.000000
    2          1             0       -0.006017    2.133680    0.000000
    3          6             0        1.138677    0.306844    0.000000
    4          1             0        2.142918    0.710085    0.000000
    5          6             0        0.656554   -1.000231    0.000000
    6          1             0        1.220090   -1.923005    0.000000
    7          1             0       -2.135176    0.666296    0.000000
    8          6             0       -1.119708    0.294662    0.000000
    9          7             0        0.000000    1.122555    0.000000
 ---------------------------------------------------------------------
 Rotational constants (GHZ):      9.3498531      9.0815048      4.6068627
 Isotopes: N-14,H-1,C-12,H-1,C-12,H-1,H-1,C-12,N-14
 Standard basis: 6-31G (6D, 7F)
 There are    43 symmetry adapted basis functions of A'  symmetry.
 There are    10 symmetry adapted basis functions of A"  symmetry.
 Crude estimate of integral set expansion from redundant integrals=1.000.
 Integral buffers will be    262144 words long.
 Raffenetti 1 integral format.
 Two-electron integral symmetry is turned on.
    53 basis functions      126 primitive gaussians
    18 alpha electrons       18 beta electrons
       nuclear repulsion energy       160.1996978768 Hartrees.
 One-electron integrals computed using PRISM.
 NBasis=    53 RedAO= T  NBF=    43    10
 NBsUse=    53 1.00D-04 NBFU=    43    10
 Initial guess read from the read-write file:
 Initial guess orbital symmetries:
       Occupied  (A') (A') (A') (A') (A') (A') (A') (A') (A') (A')
                 (A') (A') (A') (A") (A') (A') (A") (A")
       Virtual   (A") (A') (A") (A') (A') (A') (A') (A') (A') (A')
                 (A') (A') (A") (A") (A') (A') (A") (A') (A') (A')
                 (A") (A') (A') (A") (A') (A') (A') (A') (A') (A')
                 (A') (A') (A') (A') (A')
 Requested convergence on RMS density matrix=1.00D-08 within  64 cycles.
 Requested convergence on MAX density matrix=1.00D-06.
 Keep R1 integrals in memory in canonical form, NReq=     1438530.
 SCF Done:  E(RHF) =  -224.702329109     A.U. after   12 cycles
             Convg  =    0.2529D-08             -V/T =  2.0016
             S**2   =   0.0000
 Range of M.O.s used for correlation:     6    53
 NBasis=    53 NAE=    18 NBE=    18 NFC=     5 NFV=     0
 NROrb=     48 NOA=    13 NOB=    13 NVA=    35 NVB=    35
 Fully direct method using O(ONN) memory.
 JobTyp=1 Pass  1:  I=   6 to  18.
 Spin components of T(2) and E(2):
     alpha-alpha T2 =       0.2610285328D-01 E2=     -0.6240991031D-01
     alpha-beta  T2 =       0.1493521025D+00 E2=     -0.3644580878D+00
     beta-beta   T2 =       0.2610285328D-01 E2=     -0.6240991031D-01
 ANorm=    0.1096155924D+01
 E2 =    -0.4892779084D+00 EUMP2 =    -0.22519160701744D+03
          Differentiating once with respect to electric field.
                with respect to dipole field.
          Differentiating once with respect to nuclear coordinates.
          Store integrals in memory, NReq=     1434943.
          There are   1 degrees of freedom in the 1st order CPHF.
   1 vectors were produced by pass  0.
 AX will form   1 AO Fock derivatives at one time.
   1 vectors were produced by pass  1.
   1 vectors were produced by pass  2.
   1 vectors were produced by pass  3.
   1 vectors were produced by pass  4.
   1 vectors were produced by pass  5.
   1 vectors were produced by pass  6.
   1 vectors were produced by pass  7.
   1 vectors were produced by pass  8.
   1 vectors were produced by pass  9.
   1 vectors were produced by pass 10.
   1 vectors were produced by pass 11.
   1 vectors were produced by pass 12.
   1 vectors were produced by pass 13.
 Inv2:  IOpt= 1 Iter= 1 AM= 4.13D-16 Conv= 1.00D-12.
 Inverted reduced A of dimension  14 with in-core refinement.
 ***** Axes restored to original set *****
 -------------------------------------------------------------------
 Center     Atomic                   Forces (Hartrees/Bohr)
 Number     Number              X              Y              Z
 -------------------------------------------------------------------
    1          7           0.003537847    0.000000000    0.000021037
    2          1          -0.000211571    0.000000000    0.000140683
    3          6          -0.000277927    0.000000000    0.001948719
    4          1           0.000206808    0.000000000   -0.000128313
    5          6          -0.002387268    0.000000000   -0.002655301
    6          1           0.000411648    0.000000000    0.000197529
    7          1          -0.000080911    0.000000000   -0.000001323
    8          6          -0.002742299    0.000000000    0.001253266
    9          7           0.001543674    0.000000000   -0.000776297
 -------------------------------------------------------------------
 Cartesian Forces:  Max     0.003537847 RMS     0.001240616

 GradGradGradGradGradGradGradGradGradGradGradGradGradGradGradGradGradGrad
 Berny optimization.
 Internal  Forces:  Max     0.001993770 RMS     0.000589691
 Search for a local minimum.
 Step number   5 out of a maximum of  48
 All quantities printed in internal units (Hartrees-Bohrs-Radians)
 Update second derivatives using information from points  1  2  3  4  5

 Trust test= 1.30D+00 RLast= 2.66D-02 DXMaxT set to 4.24D-01
     Eigenvalues ---    0.03204   0.03262   0.03287   0.03304   0.03350
     Eigenvalues ---    0.03404   0.14914   0.15936   0.16002   0.16037
     Eigenvalues ---    0.20988   0.28263   0.42371   0.48865   0.49426
     Eigenvalues ---    0.49781   0.57512   0.59509   0.65028   0.66572
     Eigenvalues ---    0.762061000.000001000.000001000.000001000.00000
     Eigenvalues --- 1000.000001000.000001000.000001000.000001000.00000
     Eigenvalues --- 1000.000001000.000001000.000001000.000001000.00000
     Eigenvalues --- 1000.000001000.000001000.00000
 RFO step:  Lambda=-1.28954490D-05.
 Quartic linear search produced a step of  0.43529.
 Iteration  1 RMS(Cart)=  0.00148867 RMS(Int)=  0.00000419
 Iteration  2 RMS(Cart)=  0.00000262 RMS(Int)=  0.00000351
 Iteration  3 RMS(Cart)=  0.00000000 RMS(Int)=  0.00000351
 Variable       Old X    -DE/DX   Delta X   Delta X   Delta X     New X
                                 (Linear)    (Quad)   (Total)
    R1        2.66477   0.00199   0.00427   0.00282   0.00709   2.67186
    R2        2.55618  -0.00174  -0.00182  -0.00192  -0.00374   2.55244
    R3        1.91078  -0.00019  -0.00111   0.00032  -0.00080   1.90999
    R4        2.04501  -0.00010  -0.00164   0.00088  -0.00075   2.04426
    R5        2.63268  -0.00142  -0.00358  -0.00131  -0.00489   2.62780
    R6        2.64695   0.00038   0.00276   0.00068   0.00343   2.65038
    R7        2.04325  -0.00015  -0.00208   0.00108  -0.00100   2.04226
    R8        2.04343  -0.00008  -0.00173   0.00117  -0.00057   2.04286
    R9        2.63151  -0.00053   0.00079  -0.00132  -0.00053   2.63098
    A1        1.83973  -0.00091  -0.00402   0.00068  -0.00334   1.83639
    A2        2.30600   0.00022   0.00084   0.00062   0.00146   2.30746
    A3        2.13813  -0.00024  -0.00158  -0.00113  -0.00271   2.13543
    A4        1.83905   0.00002   0.00074   0.00052   0.00125   1.84030
    A5        1.92934   0.00017   0.00210  -0.00149   0.00060   1.92994
    A6        2.11388  -0.00053  -0.00253  -0.00165  -0.00418   2.10970
    A7        2.23997   0.00036   0.00043   0.00314   0.00358   2.24355
    A8        2.19573  -0.00057  -0.00239   0.00037  -0.00203   2.19370
    A9        1.93337   0.00115   0.00446   0.00005   0.00452   1.93789
   A10        2.15409  -0.00059  -0.00207  -0.00042  -0.00250   2.15159
   A11        2.19837   0.00005   0.00039  -0.00023   0.00016   2.19853
   A12        2.20152   0.00038   0.00289  -0.00001   0.00287   2.20439
   A13        1.88329  -0.00044  -0.00328   0.00024  -0.00303   1.88026
    D1        0.00000   0.00000   0.00000   0.00000   0.00000   0.00000
    D2        3.14159   0.00000   0.00000   0.00000   0.00000   3.14159
    D3        3.14159   0.00000   0.00000   0.00000   0.00000   3.14159
    D4        0.00000   0.00000   0.00000   0.00000   0.00000   0.00000
    D5        3.14159   0.00000   0.00000   0.00000   0.00000   3.14159
    D6        0.00000   0.00000   0.00000   0.00000   0.00000   0.00000
    D7        0.00000   0.00000   0.00000   0.00000   0.00000   0.00000
    D8        3.14159   0.00000   0.00000   0.00000   0.00000   3.14159
    D9        0.00000   0.00000   0.00000   0.00000   0.00000   0.00000
   D10        3.14159   0.00000   0.00000   0.00000   0.00000   3.14159
   D11        3.14159   0.00000   0.00000   0.00000   0.00000   3.14159
   D12        0.00000   0.00000   0.00000   0.00000   0.00000   0.00000
   D13        3.14159   0.00000   0.00000   0.00000   0.00000   3.14159
   D14        0.00000   0.00000   0.00000   0.00000   0.00000   0.00000
   D15        0.00000   0.00000   0.00000   0.00000   0.00000   0.00000
   D16        3.14159   0.00000   0.00000   0.00000   0.00000   3.14159
         Item               Value     Threshold  Converged?
 Maximum Force            0.001994     0.000450     NO 
 RMS     Force            0.000590     0.000300     NO 
 Maximum Displacement     0.003886     0.001800     NO 
 RMS     Displacement     0.001489     0.001200     NO 
 Predicted change in Energy=-2.373182D-05
 GradGradGradGradGradGradGradGradGradGradGradGradGradGradGradGradGradGrad

                          Input orientation:                          
 ---------------------------------------------------------------------
 Center     Atomic     Atomic              Coordinates (Angstroms)
 Number     Number      Type              X           Y           Z
 ---------------------------------------------------------------------
    1          7             0        0.507695    0.000000    1.152736
    2          1             0        0.489374    0.000000   -2.077439
    3          6             0       -1.039945    0.000000   -0.555957
    4          1             0       -1.925210    0.000000   -1.177683
    5          6             0       -0.867415    0.000000    0.823869
    6          1             0       -1.622565    0.000000    1.596976
    7          1             0        2.228585    0.000000   -0.164552
    8          6             0        1.155659    0.000000   -0.032388
    9          7             0        0.255173    0.000000   -1.094226
 ---------------------------------------------------------------------
                    Distance matrix (angstroms):
                    1          2          3          4          5
     1  N    0.000000
     2  H    3.230227   0.000000
     3  C    2.305390   2.157250   0.000000
     4  H    3.368959   2.576778   1.081776   0.000000
     5  C    1.413889   3.202884   1.390570   2.263877   0.000000
     6  H    2.176088   4.238115   2.230373   2.791115   1.080716
     7  H    2.167189   2.585341   3.291881   4.275564   3.249952
     8  C    1.350695   2.150853   2.257166   3.286861   2.196817
     9  N    2.261107   1.010722   1.402520   2.181980   2.222451
                    6          7          8          9
     6  H    0.000000
     7  H    4.234895   0.000000
     8  C    3.220770   1.081035   0.000000
     9  N    3.281534   2.181433   1.392255   0.000000
 Stoichiometry    C3H4N2
 Framework group  CS[SG(C3H4N2)]
 Deg. of freedom   15
 Full point group                 CS      NOp   2
 Largest Abelian subgroup         CS      NOp   2
 Largest concise Abelian subgroup C1      NOp   1
                         Standard orientation:                         
 ---------------------------------------------------------------------
 Center     Atomic     Atomic              Coordinates (Angstroms)
 Number     Number      Type              X           Y           Z
 ---------------------------------------------------------------------
    1          7             0       -0.756219   -1.007316    0.000000
    2          1             0       -0.004790    2.134296    0.000000
    3          6             0        1.139033    0.305254    0.000000
    4          1             0        2.142364    0.709687    0.000000
    5          6             0        0.657647   -0.999335    0.000000
    6          1             0        1.217490   -1.923739    0.000000
    7          1             0       -2.132981    0.666374    0.000000
    8          6             0       -1.118105    0.293997    0.000000
    9          7             0        0.000000    1.123585    0.000000
 ---------------------------------------------------------------------
 Rotational constants (GHZ):      9.3517564      9.0771322      4.6061990
 Isotopes: N-14,H-1,C-12,H-1,C-12,H-1,H-1,C-12,N-14
 Standard basis: 6-31G (6D, 7F)
 There are    43 symmetry adapted basis functions of A'  symmetry.
 There are    10 symmetry adapted basis functions of A"  symmetry.
 Crude estimate of integral set expansion from redundant integrals=1.000.
 Integral buffers will be    262144 words long.
 Raffenetti 1 integral format.
 Two-electron integral symmetry is turned on.
    53 basis functions      126 primitive gaussians
    18 alpha electrons       18 beta electrons
       nuclear repulsion energy       160.1939469141 Hartrees.
 One-electron integrals computed using PRISM.
 NBasis=    53 RedAO= T  NBF=    43    10
 NBsUse=    53 1.00D-04 NBFU=    43    10
 Initial guess read from the read-write file:
 Initial guess orbital symmetries:
       Occupied  (A') (A') (A') (A') (A') (A') (A') (A') (A') (A')
                 (A') (A') (A') (A") (A') (A') (A") (A")
       Virtual   (A") (A') (A") (A') (A') (A') (A') (A') (A') (A')
                 (A') (A') (A") (A") (A') (A') (A") (A') (A') (A')
                 (A") (A') (A') (A") (A') (A') (A') (A') (A') (A')
                 (A') (A') (A') (A') (A')
 Requested convergence on RMS density matrix=1.00D-08 within  64 cycles.
 Requested convergence on MAX density matrix=1.00D-06.
 Keep R1 integrals in memory in canonical form, NReq=     1438530.
 SCF Done:  E(RHF) =  -224.702522170     A.U. after   12 cycles
             Convg  =    0.1310D-08             -V/T =  2.0016
             S**2   =   0.0000
 Range of M.O.s used for correlation:     6    53
 NBasis=    53 NAE=    18 NBE=    18 NFC=     5 NFV=     0
 NROrb=     48 NOA=    13 NOB=    13 NVA=    35 NVB=    35
 Fully direct method using O(ONN) memory.
 JobTyp=1 Pass  1:  I=   6 to  18.
 Spin components of T(2) and E(2):
     alpha-alpha T2 =       0.2607333857D-01 E2=     -0.6237126616D-01
     alpha-beta  T2 =       0.1492547593D+00 E2=     -0.3643681121D+00
     beta-beta   T2 =       0.2607333857D-01 E2=     -0.6237126616D-01
 ANorm=    0.1096084594D+01
 E2 =    -0.4891106444D+00 EUMP2 =    -0.22519163281481D+03
          Differentiating once with respect to electric field.
                with respect to dipole field.
          Differentiating once with respect to nuclear coordinates.
          Store integrals in memory, NReq=     1434943.
          There are   1 degrees of freedom in the 1st order CPHF.
   1 vectors were produced by pass  0.
 AX will form   1 AO Fock derivatives at one time.
   1 vectors were produced by pass  1.
   1 vectors were produced by pass  2.
   1 vectors were produced by pass  3.
   1 vectors were produced by pass  4.
   1 vectors were produced by pass  5.
   1 vectors were produced by pass  6.
   1 vectors were produced by pass  7.
   1 vectors were produced by pass  8.
   1 vectors were produced by pass  9.
   1 vectors were produced by pass 10.
   1 vectors were produced by pass 11.
   1 vectors were produced by pass 12.
   1 vectors were produced by pass 13.
 Inv2:  IOpt= 1 Iter= 1 AM= 4.02D-16 Conv= 1.00D-12.
 Inverted reduced A of dimension  14 with in-core refinement.
 ***** Axes restored to original set *****
 -------------------------------------------------------------------
 Center     Atomic                   Forces (Hartrees/Bohr)
 Number     Number              X              Y              Z
 -------------------------------------------------------------------
    1          7           0.000736618    0.000000000   -0.000224043
    2          1           0.000010909    0.000000000   -0.000116683
    3          6           0.000476429    0.000000000   -0.000168933
    4          1          -0.000158707    0.000000000   -0.000131393
    5          6          -0.000515655    0.000000000   -0.000211433
    6          1          -0.000067392    0.000000000    0.000225699
    7          1           0.000245511    0.000000000   -0.000043241
    8          6          -0.000776316    0.000000000   -0.000002204
    9          7           0.000048603    0.000000000    0.000672231
 -------------------------------------------------------------------
 Cartesian Forces:  Max     0.000776316 RMS     0.000297500

 GradGradGradGradGradGradGradGradGradGradGradGradGradGradGradGradGradGrad
 Berny optimization.
 Internal  Forces:  Max     0.000467979 RMS     0.000158412
 Search for a local minimum.
 Step number   6 out of a maximum of  48
[...]
 Frc consts  --     3.0622                 3.1547                 7.0023
 IR Inten    --     9.3931                20.2651                 1.2859
 Raman Activ --     0.0000                 0.0000                 0.0000
 Depolar     --     0.0000                 0.0000                 0.0000
 Atom AN      X      Y      Z        X      Y      Z        X      Y      Z
   1   7     0.00  -0.07   0.00    -0.01   0.06   0.00     0.00   0.00   0.00
   2   1    -0.38  -0.12   0.00     0.75  -0.02   0.00    -0.01  -0.01   0.00
   3   6    -0.07   0.21   0.00     0.08   0.19   0.00    -0.07  -0.02   0.00
   4   1     0.21  -0.47   0.00     0.32  -0.27   0.00     0.73   0.29   0.00
   5   6     0.03  -0.10   0.00    -0.09  -0.16   0.00     0.03  -0.04   0.00
   6   1    -0.09  -0.21   0.00     0.34   0.06   0.00    -0.31   0.52   0.00
   7   1    -0.31  -0.56   0.00     0.14   0.11   0.00    -0.02   0.01   0.00
   8   6    -0.02   0.20   0.00     0.06  -0.06   0.00     0.00   0.00   0.00
   9   7     0.09  -0.10   0.00    -0.14  -0.03   0.00     0.00   0.00   0.00
                    19                     20                     21
                    A'                     A'                     A'
 Frequencies --  3309.9443              3323.8901              3677.6070
 Red. masses --     1.0971                 1.1082                 1.0827
 Frc consts  --     7.0819                 7.2136                 8.6276
 IR Inten    --     2.9664                 1.6021                63.0680
 Raman Activ --     0.0000                 0.0000                 0.0000
 Depolar     --     0.0000                 0.0000                 0.0000
 Atom AN      X      Y      Z        X      Y      Z        X      Y      Z
   1   7     0.00   0.00   0.00     0.00   0.00   0.00     0.00   0.00   0.00
   2   1    -0.01   0.02   0.00     0.00   0.02   0.00    -0.01   1.00   0.00
   3   6    -0.02  -0.01   0.00     0.05   0.02   0.00     0.00   0.00   0.00
   4   1     0.19   0.08   0.00    -0.53  -0.22   0.00     0.02   0.00   0.00
   5   6    -0.01   0.02   0.00     0.03  -0.06   0.00     0.00   0.00   0.00
   6   1     0.12  -0.20   0.00    -0.38   0.65   0.00     0.00   0.00   0.00
   7   1     0.89  -0.32   0.00     0.29  -0.11   0.00    -0.02   0.00   0.00
   8   6    -0.08   0.03   0.00    -0.03   0.01   0.00     0.00   0.00   0.00
   9   7     0.00   0.00   0.00     0.00   0.00   0.00     0.00  -0.08   0.00

 -------------------
 - Thermochemistry -
 -------------------
 Temperature   298.150 Kelvin.  Pressure   1.00000 Atm.
 Atom  1 has atomic number  7 and mass  14.00307
 Atom  2 has atomic number  1 and mass   1.00783
 Atom  3 has atomic number  6 and mass  12.00000
 Atom  4 has atomic number  1 and mass   1.00783
 Atom  5 has atomic number  6 and mass  12.00000
 Atom  6 has atomic number  1 and mass   1.00783
 Atom  7 has atomic number  1 and mass   1.00783
 Atom  8 has atomic number  6 and mass  12.00000
 Atom  9 has atomic number  7 and mass  14.00307
 Molecular mass:    68.03745 amu.
 Principal axes and moments of inertia in atomic units:
                           1         2         3
     EIGENVALUES --   192.98569 198.80484 391.79054
           X            0.50479   0.86324   0.00000
           Y            0.86324  -0.50479   0.00000
           Z            0.00000   0.00000   1.00000
 THIS MOLECULE IS AN ASYMMETRIC TOP.
 ROTATIONAL SYMMETRY NUMBER  1.
 ROTATIONAL TEMPERATURES (KELVIN)      0.44881     0.43567     0.22107
 ROTATIONAL CONSTANTS (GHZ)            9.35168     9.07795     4.60639
 Zero-point vibrational energy     185553.4 (Joules/Mol)
                                   44.34833 (Kcal/Mol)
 WARNING-- EXPLICIT CONSIDERATION OF   1 DEGREES OF FREEDOM AS
           VIBRATIONS MAY CAUSE SIGNIFICANT ERROR
 VIBRATIONAL TEMPERATURES:    826.35   906.00   944.36   965.26  1059.85
          (KELVIN)           1138.63  1309.00  1358.86  1520.32  1592.50
                             1603.91  1688.18  1821.34  1929.87  2058.01
                             2118.96  2211.49  4744.98  4762.24  4782.31
                             5291.23
 
 Zero-point correction=                           0.070674 (Hartree/Particle)
 Thermal correction to Energy=                    0.074493
 Thermal correction to Enthalpy=                  0.075438
 Thermal correction to Gibbs Free Energy=         0.044336
 Sum of electronic and zero-point Energies=           -225.120961
 Sum of electronic and thermal Energies=              -225.117141
 Sum of electronic and thermal Enthalpies=            -225.116196
 Sum of electronic and thermal Free Energies=         -225.147299
 
                     E (Thermal)             CV                S
                      KCAL/MOL        CAL/MOL-KELVIN    CAL/MOL-KELVIN
 TOTAL                   46.745             13.796             65.460
 ELECTRONIC               0.000              0.000              0.000
 TRANSLATIONAL            0.889              2.981             38.570
 ROTATIONAL               0.889              2.981             24.223
 VIBRATIONAL             44.968              7.834              2.667
 VIBRATION  1             0.931              1.087              0.496
                       Q            LOG10(Q)             LN(Q)
 TOTAL BOT       0.404770D-20        -20.392792        -46.956138
 TOTAL V=0       0.130189D+13         12.114573         27.894836
 VIB (BOT)       0.418094D-32        -32.378727        -74.554773
 VIB (BOT)  1    0.266819D+00         -0.573783         -1.321184
 VIB (V=0)       0.134474D+01          0.128638          0.296201
 VIB (V=0)  1    0.106674D+01          0.028058          0.064606
 ELECTRONIC      0.100000D+01          0.000000          0.000000
 TRANSLATIONAL   0.220588D+08          7.343582         16.909224
 ROTATIONAL      0.438887D+05          4.642352         10.689411
 ***** Axes restored to original set *****
 -------------------------------------------------------------------
 Center     Atomic                   Forces (Hartrees/Bohr)
 Number     Number              X              Y              Z
 -------------------------------------------------------------------
    1          7           0.000221517    0.000000000   -0.000050645
    2          1           0.000012740    0.000000000   -0.000048590
    3          6           0.000288730    0.000000000   -0.000200113
    4          1          -0.000065925    0.000000000   -0.000031151
    5          6          -0.000219836    0.000000000    0.000050916
    6          1          -0.000029182    0.000000000    0.000066795
    7          1           0.000089722    0.000000000   -0.000013223
    8          6          -0.000225884    0.000000000   -0.000116413
    9          7          -0.000071882    0.000000000    0.000342424
 -------------------------------------------------------------------
 Cartesian Forces:  Max     0.000342424 RMS     0.000126833

 GradGradGradGradGradGradGradGradGradGradGradGradGradGradGradGradGradGrad
 Berny optimization.
 Internal  Forces:  Max     0.000188552 RMS     0.000066974
 Search for a local minimum.
 Step number   1 out of a maximum of  48
 All quantities printed in internal units (Hartrees-Bohrs-Radians)
 Second derivative matrix not updated -- analytic derivatives used.
     Eigenvalues ---    0.00589   0.00893   0.01708   0.02481   0.05733
     Eigenvalues ---    0.06123   0.10393   0.10985   0.11580   0.12035
     Eigenvalues ---    0.22556   0.24951   0.31331   0.36764   0.38230
     Eigenvalues ---    0.38509   0.38751   0.43510   0.47469   0.48398
     Eigenvalues ---    0.521321000.000001000.000001000.000001000.00000
     Eigenvalues --- 1000.000001000.000001000.000001000.000001000.00000
     Eigenvalues --- 1000.000001000.000001000.000001000.000001000.00000
     Eigenvalues --- 1000.000001000.000001000.00000
 Angle between quadratic step and forces=  19.43 degrees.
 Linear search not attempted -- first point.
 Iteration  1 RMS(Cart)=  0.00020076 RMS(Int)=  0.00000003
 Iteration  2 RMS(Cart)=  0.00000003 RMS(Int)=  0.00000000
 Variable       Old X    -DE/DX   Delta X   Delta X   Delta X     New X
                                 (Linear)    (Quad)   (Total)
    R1        2.67313   0.00017   0.00000   0.00066   0.00066   2.67379
    R2        2.55166  -0.00006   0.00000  -0.00012  -0.00012   2.55154
    R3        1.91012   0.00005   0.00000   0.00011   0.00011   1.91022
    R4        2.04461   0.00007   0.00000   0.00019   0.00019   2.04480
    R5        2.62767   0.00010   0.00000   0.00027   0.00027   2.62794
    R6        2.65028  -0.00018   0.00000  -0.00058  -0.00058   2.64970
    R7        2.04259   0.00007   0.00000   0.00015   0.00015   2.04274
    R8        2.04331   0.00009   0.00000   0.00024   0.00024   2.04355
    R9        2.63029  -0.00019   0.00000  -0.00054  -0.00054   2.62976
    A1        1.83614  -0.00002   0.00000  -0.00007  -0.00007   1.83607
    A2        2.30771  -0.00002   0.00000  -0.00025  -0.00025   2.30746
    A3        2.13517   0.00001   0.00000   0.00015   0.00015   2.13533
    A4        1.84030   0.00001   0.00000   0.00009   0.00009   1.84040
    A5        1.92960  -0.00012   0.00000  -0.00040  -0.00040   1.92920
    A6        2.10892   0.00003   0.00000  -0.00013  -0.00013   2.10880
    A7        2.24466   0.00008   0.00000   0.00053   0.00053   2.24519
    A8        2.19358  -0.00001   0.00000  -0.00007  -0.00007   2.19351
    A9        1.93834   0.00003   0.00000   0.00007   0.00007   1.93841
   A10        2.15127  -0.00001   0.00000   0.00000   0.00000   2.15127
   A11        2.19827  -0.00005   0.00000  -0.00015  -0.00015   2.19812
   A12        2.20452  -0.00005   0.00000  -0.00015  -0.00015   2.20437
   A13        1.88040   0.00010   0.00000   0.00030   0.00030   1.88070
    D1        0.00000   0.00000   0.00000   0.00000   0.00000   0.00000
    D2        3.14159   0.00000   0.00000   0.00000   0.00000   3.14159
    D3        3.14159   0.00000   0.00000   0.00000   0.00000   3.14159
    D4        0.00000   0.00000   0.00000   0.00000   0.00000   0.00000
    D5        3.14159   0.00000   0.00000   0.00000   0.00000   3.14159
    D6        0.00000   0.00000   0.00000   0.00000   0.00000   0.00000
    D7        0.00000   0.00000   0.00000   0.00000   0.00000   0.00000
    D8        3.14159   0.00000   0.00000   0.00000   0.00000   3.14159
    D9        0.00000   0.00000   0.00000   0.00000   0.00000   0.00000
   D10        3.14159   0.00000   0.00000   0.00000   0.00000   3.14159
   D11        3.14159   0.00000   0.00000   0.00000   0.00000   3.14159
   D12        0.00000   0.00000   0.00000   0.00000   0.00000   0.00000
   D13        3.14159   0.00000   0.00000   0.00000   0.00000   3.14159
   D14        0.00000   0.00000   0.00000   0.00000   0.00000   0.00000
   D15        0.00000   0.00000   0.00000   0.00000   0.00000   0.00000
   D16        3.14159   0.00000   0.00000   0.00000   0.00000   3.14159
         Item               Value     Threshold  Converged?
 Maximum Force            0.000189     0.000450     YES
 RMS     Force            0.000067     0.000300     YES
 Maximum Displacement     0.000543     0.001800     YES
 RMS     Displacement     0.000201     0.001200     YES
 Predicted change in Energy=-2.737389D-07
 Optimization completed.
    -- Stationary point found.
                         ----------------------------
                         !   Optimized Parameters   !
                         ! (Angstroms and Degrees)  !
 ------------------------                            -------------------------
 ! Name  Definition              Value          Derivative Info.             !
 -----------------------------------------------------------------------------
 ! R1    R(1,5)                  1.4146         -DE/DX =    0.0002           !
 ! R2    R(1,8)                  1.3503         -DE/DX =   -0.0001           !
 ! R3    R(2,9)                  1.0108         -DE/DX =    0.0001           !
 ! R4    R(3,4)                  1.082          -DE/DX =    0.0001           !
 ! R5    R(3,5)                  1.3905         -DE/DX =    0.0001           !
 ! R6    R(3,9)                  1.4025         -DE/DX =   -0.0002           !
 ! R7    R(5,6)                  1.0809         -DE/DX =    0.0001           !
 ! R8    R(7,8)                  1.0813         -DE/DX =    0.0001           !
 ! R9    R(8,9)                  1.3919         -DE/DX =   -0.0002           !
 ! A1    A(5,1,8)              105.2031         -DE/DX =    0.               !
 ! A2    A(4,3,5)              132.222          -DE/DX =    0.               !
 ! A3    A(4,3,9)              122.3364         -DE/DX =    0.               !
 ! A4    A(5,3,9)              105.4416         -DE/DX =    0.               !
 ! A5    A(1,5,3)              110.5579         -DE/DX =   -0.0001           !
 ! A6    A(1,5,6)              120.8325         -DE/DX =    0.               !
 ! A7    A(3,5,6)              128.6096         -DE/DX =    0.0001           !
 ! A8    A(1,8,7)              125.6829         -DE/DX =    0.               !
 ! A9    A(1,8,9)              111.0586         -DE/DX =    0.               !
 ! A10   A(7,8,9)              123.2585         -DE/DX =    0.               !
 ! A11   A(2,9,3)              125.9516         -DE/DX =    0.               !
 ! A12   A(2,9,8)              126.3096         -DE/DX =   -0.0001           !
 ! A13   A(3,9,8)              107.7388         -DE/DX =    0.0001           !
 ! D1    D(8,1,5,3)              0.             -DE/DX =    0.               !
 ! D2    D(8,1,5,6)            180.             -DE/DX =    0.               !
 ! D3    D(5,1,8,7)            180.             -DE/DX =    0.               !
 ! D4    D(5,1,8,9)              0.             -DE/DX =    0.               !
 ! D5    D(4,3,5,1)            180.             -DE/DX =    0.               !
 ! D6    D(4,3,5,6)              0.             -DE/DX =    0.               !
 ! D7    D(9,3,5,1)              0.             -DE/DX =    0.               !
 ! D8    D(9,3,5,6)            180.             -DE/DX =    0.               !
 ! D9    D(4,3,9,2)              0.             -DE/DX =    0.               !
 ! D10   D(4,3,9,8)            180.             -DE/DX =    0.               !
 ! D11   D(5,3,9,2)            180.             -DE/DX =    0.               !
 ! D12   D(5,3,9,8)              0.             -DE/DX =    0.               !
 ! D13   D(1,8,9,2)            180.             -DE/DX =    0.               !
 ! D14   D(1,8,9,3)              0.             -DE/DX =    0.               !
 ! D15   D(7,8,9,2)              0.             -DE/DX =    0.               !
 ! D16   D(7,8,9,3)            180.             -DE/DX =    0.               !
 -----------------------------------------------------------------------------
 GradGradGradGradGradGradGradGradGradGradGradGradGradGradGradGradGradGrad

 1\1\ NATIONAL INSTITUTE OF STANDARDS AND TECHNOLOGY-AMUR\Freq\RMP2-FC\
 6-31G\C3H4N2\RDJ3\12-Apr-2000\0\\#N GEOM=ALLCHECK GUESS=TCHECK RMP2(FC
 )/6-31G FREQ\\1H imidazole C3H4N2 casno=288324\\0,1\N,0.5080420872,0.,
 1.1526445606\H,0.4894563495,0.,-2.0772753527\C,-1.0399351155,0.,-0.556
 0522434\H,-1.925043439,0.,-1.1783218518\C,-0.8677523065,0.,0.823746714
 1\H,-1.6223556468,0.,1.5976304806\H,2.2285328524,0.,-0.1647653252\C,1.
 1554017416,0.,-0.0323363257\N,0.2552613366,0.,-1.0939898207\\Version=S
 GI-G98RevA.6\State=1-A'\HF=-224.7025423\MP2=-225.1916341\RMSD=1.009e-0
 9\RMSF=1.268e-04\Dipole=-0.1913915,0.,-1.6186951\DipoleDeriv=-0.318947
 5,0.,0.1079574,0.,-0.3199297,0.,-0.0379846,0.,-0.4621844,0.2044963,0.,
 -0.0090419,0.,0.4096214,0.,-0.0024822,0.,0.2104539,0.0771429,0.,-0.179
 8695,0.,-0.0944602,0.,-0.1118486,0.,0.2055005,0.0217273,0.,-0.044894,0
 .,0.1961406,0.,-0.065785,0.,0.0419905,0.1266489,0.,-0.1614402,0.,-0.13
 90445,0.,-0.0599856,0.,0.0555204,0.007389,0.,0.068515,0.,0.1641248,0.,
 0.0654902,0.,0.0332211,-0.0184592,0.,0.025529,0.,0.1752019,0.,0.037039
 3,0.,0.0730696,0.1480791,0.,0.0959144,0.,-0.0052701,0.,0.0953489,0.,0.
 5147483,-0.2480768,0.,0.0973297,0.,-0.3863843,0.,0.0802076,0.,-0.67231
 97\Polar=46.9848019,0.,15.531761,-1.0468714,0.,44.3098448\PG=CS [SG(C3
 H4N2)]\NImag=0\\0.43059459,0.,0.09688703,-0.05109714,0.,0.49396266,-0.
 00331863,0.,-0.00849450,0.08650615,0.,0.00656863,0.,0.,0.01317008,-0.0
 0309225,0.,-0.00137958,-0.09428346,0.,0.45746361,-0.03706572,0.,-0.023
 10778,0.00612303,0.,-0.00693216,0.73791821,0.,0.01377581,0.,0.,-0.0072
 1622,0.,0.,0.08790696,-0.07474433,0.,-0.02579844,0.03106635,0.,0.00003
 563,0.16706153,0.,0.72734488,0.00162232,0.,0.00246803,-0.00006516,0.,0
 .00038926,-0.26348407,0.,-0.14438022,0.27510892,0.,0.00740298,0.,0.,-0
 .00068752,0.,0.,-0.01334122,0.,0.,0.01510293,-0.00378614,0.,-0.0040059
 1,-0.00082948,0.,0.00012467,-0.15543054,0.,-0.16782678,0.15462458,0.,0
 .16083196,-0.21009676,0.,-0.00696353,-0.00891575,0.,-0.00129762,-0.101
 12430,0.,-0.02396572,0.00657331,0.,-0.02182364,0.62475157,0.,-0.063607
 97,0.,0.,0.00340368,0.,0.,-0.04944723,0.,0.,-0.00521895,0.,0.,0.112116
 70,-0.04589911,0.,-0.09779011,0.00358168,0.,0.00155876,-0.02217806,0.,
 -0.37259646,0.00430726,0.,0.00188720,-0.17931338,0.,0.77912489,-0.0165
 2394,0.,0.02046912,0.00073912,0.,0.00005153,0.00949156,0.,-0.00920680,
 -0.00014684,0.,0.00084823,-0.20242065,0.,0.15611725,0.21449027,0.,-0.0
 0609932,0.,0.,0.00172979,0.,0.,-0.00398523,0.,0.,-0.00123756,0.,0.,-0.
 02275175,0.,0.,0.02053164,-0.01119093,0.,0.01118969,0.00126215,0.,0.00
 014716,0.02094439,0.,-0.00639334,-0.00060288,0.,-0.00064627,0.15906294
 ,0.,-0.22647413,-0.16406631,0.,0.22662399,-0.00471626,0.,-0.00121315,-
 0.00072875,0.,-0.00073143,0.00074861,0.,-0.00155913,-0.00033710,0.,0.0
 0032229,0.00100038,0.,0.00130011,-0.00056752,0.,-0.00012529,0.37993545
 ,0.,-0.00639755,0.,0.,-0.00065486,0.,0.,0.00297890,0.,0.,0.00166621,0.
 ,0.,0.00622941,0.,0.,0.00117649,0.,0.,0.01756851,0.02833204,0.,-0.0000
 4143,0.00041463,0.,0.00002723,-0.00159631,0.,-0.00585428,-0.00105637,0
 .,0.00106240,0.00323966,0.,-0.00446282,0.00167381,0.,0.00072306,-0.038
 22724,0.,0.06268657,-0.14712189,0.,0.07988443,0.01713002,0.,0.01622422
 ,-0.09039299,0.,-0.00472145,-0.00292495,0.,0.00496917,-0.09306983,0.,0
 .02416146,-0.00569567,0.,-0.00497575,-0.36609440,0.,0.03846948,0.88554
 415,0.,-0.06934953,0.,0.,-0.00803704,0.,0.,0.01547866,0.,0.,0.00277906
 ,0.,0.,0.01207866,0.,0.,0.00441120,0.,0.,-0.01805113,0.,0.,0.11454426,
 0.13631252,0.,-0.27683910,-0.02067640,0.,-0.00923088,-0.03483085,0.,-0
 .01112058,0.00305345,0.,-0.00579269,0.05727775,0.,-0.01244242,-0.00158
 861,0.,0.00020861,0.03458863,0.,-0.06015640,-0.07450368,0.,0.57384769,
 -0.01337371,0.,-0.01194549,-0.09747002,0.,0.08967191,-0.26221433,0.,0.
 06044978,-0.01634643,0.,0.02110555,-0.01669798,0.,0.05792279,0.0006336
 7,0.,-0.00030832,-0.00924040,0.,-0.03124970,-0.19737444,0.,-0.09963280
 ,0.61208363,0.,0.02081991,0.,0.,-0.00827655,0.,0.,-0.04615042,0.,0.,-0
 .00646593,0.,0.,0.00719744,0.,0.,0.00622474,0.,0.,-0.00451600,0.,0.,-0
 .05385414,0.,0.,0.08502094,0.02516536,0.,-0.09929778,0.08795903,0.,-0.
 44874660,0.05606978,0.,-0.13779063,-0.01880312,0.,0.01436540,0.0137835
 4,0.,-0.06880491,-0.00429821,0.,-0.00537877,0.00564522,0.,0.00601568,-
 0.07950789,0.,-0.19847424,-0.08601371,0.,0.93811184\\-0.00022152,0.,0.
 00005065,-0.00001274,0.,0.00004859,-0.00028873,0.,0.00020011,0.0000659
 2,0.,0.00003115,0.00021984,0.,-0.00005092,0.00002918,0.,-0.00006680,-0
 .00008972,0.,0.00001322,0.00022588,0.,0.00011641,0.00007188,0.,-0.0003
 4242\\\@


 THE MORE PROGRESS PHYSICAL SCIENCES MAKE, THE MORE THEY TEND TO ENTER
 THE DOMAIN OF MATHEMATICS, WHICH IS A KIND OF CENTRE TO WHICH THEY ALL
 CONVERGE.  WE MAY EVEN JUDGE THE DEGREE OF PERFECTION TO WHICH A 
 SCIENCE HAS ARRIVED BY THE FACILITY WITH WHICH IT MAY BE SUBMITTED
 TO CALCULATION.

                               -- ADOLPHE QUETELET, 1796-1874
 Job cpu time:  0 days  0 hours  5 minutes 18.1 seconds.
 File lengths (MBytes):  RWF=  214 Int=    0 D2E=    0 Chk=    3 Scr=    1
 Normal termination of Gaussian 98.
