 host = p1928 (kernel = 2.6.18-8.el5)
 Running revision D01, using 64-bit version

 Current disk usage on p1928
tmpfs                 3.9G     0  3.9G   0% /dev/shm

 START DATE Fri Mar  7 20:23:52 EST 2008
 Entering Gaussian System, Link 0=/usr/local/gaussian03-rev-D01-64/g03/g03
 Initial command:
 /usr/local/gaussian03-rev-D01-64/g03/l1.exe /gaussian/Gau-22000.inp -scrdir=/gaussian/
 Entering Link 1 = /usr/local/gaussian03-rev-D01-64/g03/l1.exe PID=     22013.
  
 Copyright (c) 1988,1990,1992,1993,1995,1998,2003,2004, Gaussian, Inc.
                  All Rights Reserved.
  
 This is the Gaussian(R) 03 program.  It is based on the
 the Gaussian(R) 98 system (copyright 1998, Gaussian, Inc.),
 the Gaussian(R) 94 system (copyright 1995, Gaussian, Inc.),
 the Gaussian 92(TM) system (copyright 1992, Gaussian, Inc.),
 the Gaussian 90(TM) system (copyright 1990, Gaussian, Inc.),
 the Gaussian 88(TM) system (copyright 1988, Gaussian, Inc.),
 the Gaussian 86(TM) system (copyright 1986, Carnegie Mellon
 University), and the Gaussian 82(TM) system (copyright 1983,
 Carnegie Mellon University). Gaussian is a federally registered
 trademark of Gaussian, Inc.
  
 This software contains proprietary and confidential information,
 including trade secrets, belonging to Gaussian, Inc.
  
 This software is provided under written license and may be
 used, copied, transmitted, or stored only in accord with that
 written license.
  
 The following legend is applicable only to US Government
 contracts under FAR:
  
                    RESTRICTED RIGHTS LEGEND
  
 Use, reproduction and disclosure by the US Government is
 subject to restrictions as set forth in subparagraphs (a)
 and (c) of the Commercial Computer Software - Restricted
 Rights clause in FAR 52.227-19.
  
 Gaussian, Inc.
 340 Quinnipiac St., Bldg. 40, Wallingford CT 06492
  
  
 ---------------------------------------------------------------
 Warning -- This program may not be used in any manner that
 competes with the business of Gaussian, Inc. or will provide
 assistance to any competitor of Gaussian, Inc.  The licensee
 of this program is prohibited from giving any competitor of
 Gaussian, Inc. access to this program.  By using this program,
 the user acknowledges that Gaussian, Inc. is engaged in the
 business of creating and licensing software in the field of
 computational chemistry and represents and warrants to the
 licensee that it is not a competitor of Gaussian, Inc. and that
 it will not use this program in any manner prohibited above.
 ---------------------------------------------------------------
  

 Cite this work as:
 Gaussian 03, Revision D.01,
 M. J. Frisch, G. W. Trucks, H. B. Schlegel, G. E. Scuseria, 
 M. A. Robb, J. R. Cheeseman, J. A. Montgomery, Jr., T. Vreven, 
 K. N. Kudin, J. C. Burant, J. M. Millam, S. S. Iyengar, J. Tomasi, 
 V. Barone, B. Mennucci, M. Cossi, G. Scalmani, N. Rega, 
 G. A. Petersson, H. Nakatsuji, M. Hada, M. Ehara, K. Toyota, 
 R. Fukuda, J. Hasegawa, M. Ishida, T. Nakajima, Y. Honda, O. Kitao, 
 H. Nakai, M. Klene, X. Li, J. E. Knox, H. P. Hratchian, J. B. Cross, 
 V. Bakken, C. Adamo, J. Jaramillo, R. Gomperts, R. E. Stratmann, 
 O. Yazyev, A. J. Austin, R. Cammi, C. Pomelli, J. W. Ochterski, 
 P. Y. Ayala, K. Morokuma, G. A. Voth, P. Salvador, J. J. Dannenberg, 
 V. G. Zakrzewski, S. Dapprich, A. D. Daniels, M. C. Strain, 
 O. Farkas, D. K. Malick, A. D. Rabuck, K. Raghavachari, 
 J. B. Foresman, J. V. Ortiz, Q. Cui, A. G. Baboul, S. Clifford, 
 J. Cioslowski, B. B. Stefanov, G. Liu, A. Liashenko, P. Piskorz, 
 I. Komaromi, R. L. Martin, D. J. Fox, T. Keith, M. A. Al-Laham, 
 C. Y. Peng, A. Nanayakkara, M. Challacombe, P. M. W. Gill, 
 B. Johnson, W. Chen, M. W. Wong, C. Gonzalez, and J. A. Pople, 
 Gaussian, Inc., Wallingford CT, 2004.
 
 ******************************************
 Gaussian 03:  AM64L-G03RevD.01 13-Oct-2005
                 7-Mar-2008 
 ******************************************
 %mem=24000000
 ----------------------
 #LSDA/cc-pVTZ opt freq
 ----------------------
 1/14=-1,18=20,26=3,38=1/1,3;
 2/9=110,17=6,18=5,40=1/2;
 3/5=16,6=1,11=2,16=1,25=1,30=1,74=205/1,2,3;
 4//1;
 5/5=2,38=5/2;
 6/7=2,8=2,9=2,10=2,28=1/1;
 7//1,2,3,16;
 1/14=-1,18=20/3(3);
 2/9=110/2;
 6/7=2,8=2,9=2,10=2,19=2,28=1/1;
 99//99;
 2/9=110/2;
 3/5=16,6=1,11=2,16=1,25=1,30=1,74=205/1,2,3;
 4/5=5,16=3/1;
 5/5=2,38=5/2;
 7//1,2,3,16;
 1/14=-1,18=20/3(-5);
 2/9=110/2;
 6/7=2,8=2,9=2,10=2,19=2,28=1/1;
 99/9=1/99;
 -------------------------------------------------------------
 1himidaz 1H-Imidazole casno=288324 method=51 basis=6 config=1
 -------------------------------------------------------------
 Symbolic Z-matrix:
 Charge =  0 Multiplicity = 1
 N                    -0.74106  -0.96596   0. 
 H                    -0.01273   2.08825   0. 
 C                     1.10986   0.28827   0. 
 H                     2.10334   0.68144   0. 
 C                     0.63018  -0.97392   0. 
 H                     1.18224  -1.89044   0. 
 H                    -2.07716   0.65597   0. 
 C                    -1.07476   0.2791    0. 
 N                     0.        1.09512   0. 
 

 GradGradGradGradGradGradGradGradGradGradGradGradGradGradGradGradGradGrad
 Berny optimization.
 Initialization pass.
                           ----------------------------
                           !    Initial Parameters    !
                           ! (Angstroms and Degrees)  !
 --------------------------                            --------------------------
 ! Name  Definition              Value          Derivative Info.                !
 --------------------------------------------------------------------------------
 ! R1    R(1,5)                  1.3713         estimate D2E/DX2                !
 ! R2    R(1,8)                  1.289          estimate D2E/DX2                !
 ! R3    R(2,9)                  0.9932         estimate D2E/DX2                !
 ! R4    R(3,4)                  1.0684         estimate D2E/DX2                !
 ! R5    R(3,5)                  1.3503         estimate D2E/DX2                !
 ! R6    R(3,9)                  1.3721         estimate D2E/DX2                !
 ! R7    R(5,6)                  1.0699         estimate D2E/DX2                !
 ! R8    R(7,8)                  1.0709         estimate D2E/DX2                !
 ! R9    R(8,9)                  1.3494         estimate D2E/DX2                !
 ! A1    A(5,1,8)              105.3363         estimate D2E/DX2                !
 ! A2    A(4,3,5)              132.3996         estimate D2E/DX2                !
 ! A3    A(4,3,9)              122.3927         estimate D2E/DX2                !
 ! A4    A(5,3,9)              105.2077         estimate D2E/DX2                !
 ! A5    A(1,5,3)              110.476          estimate D2E/DX2                !
 ! A6    A(1,5,6)              121.3948         estimate D2E/DX2                !
 ! A7    A(3,5,6)              128.1292         estimate D2E/DX2                !
 ! A8    A(1,8,7)              125.6083         estimate D2E/DX2                !
 ! A9    A(1,8,9)              112.2043         estimate D2E/DX2                !
 ! A10   A(7,8,9)              122.1873         estimate D2E/DX2                !
 ! A11   A(2,9,3)              126.7509         estimate D2E/DX2                !
 ! A12   A(2,9,8)              126.4734         estimate D2E/DX2                !
 ! A13   A(3,9,8)              106.7757         estimate D2E/DX2                !
 ! D1    D(8,1,5,3)              0.0            estimate D2E/DX2                !
 ! D2    D(8,1,5,6)            180.0            estimate D2E/DX2                !
 ! D3    D(5,1,8,7)            180.0            estimate D2E/DX2                !
 ! D4    D(5,1,8,9)              0.0            estimate D2E/DX2                !
 ! D5    D(4,3,5,1)            180.0            estimate D2E/DX2                !
 ! D6    D(4,3,5,6)              0.0            estimate D2E/DX2                !
 ! D7    D(9,3,5,1)              0.0            estimate D2E/DX2                !
 ! D8    D(9,3,5,6)            180.0            estimate D2E/DX2                !
 ! D9    D(4,3,9,2)              0.0            estimate D2E/DX2                !
 ! D10   D(4,3,9,8)            180.0            estimate D2E/DX2                !
 ! D11   D(5,3,9,2)            180.0            estimate D2E/DX2                !
 ! D12   D(5,3,9,8)              0.0            estimate D2E/DX2                !
 ! D13   D(1,8,9,2)            180.0            estimate D2E/DX2                !
 ! D14   D(1,8,9,3)              0.0            estimate D2E/DX2                !
 ! D15   D(7,8,9,2)              0.0            estimate D2E/DX2                !
 ! D16   D(7,8,9,3)            180.0            estimate D2E/DX2                !
 --------------------------------------------------------------------------------
 Trust Radius=3.00D-01 FncErr=1.00D-07 GrdErr=1.00D-06
 Number of steps in this run=  48 maximum allowed number of steps= 100.
 GradGradGradGradGradGradGradGradGradGradGradGradGradGradGradGradGradGrad

                          Input orientation:                          
 ---------------------------------------------------------------------
 Center     Atomic     Atomic              Coordinates (Angstroms)
 Number     Number      Type              X           Y           Z
 ---------------------------------------------------------------------
    1          7             0       -0.741059   -0.965959    0.000000
    2          1             0       -0.012734    2.088247    0.000000
    3          6             0        1.109862    0.288272    0.000000
    4          1             0        2.103339    0.681436    0.000000
    5          6             0        0.630182   -0.973920    0.000000
    6          1             0        1.182239   -1.890444    0.000000
    7          1             0       -2.077162    0.655969    0.000000
    8          6             0       -1.074756    0.279096    0.000000
    9          7             0        0.000000    1.095117    0.000000
 ---------------------------------------------------------------------
                    Distance matrix (angstroms):
                    1          2          3          4          5
     1  N    0.000000
     2  H    3.139846   0.000000
     3  C    2.235845   2.121351   0.000000
     4  H    3.287021   2.541040   1.068445   0.000000
     5  C    1.371264   3.128931   1.350267   2.215941   0.000000
     6  H    2.133951   4.154268   2.179918   2.731848   1.069945
     7  H    2.101386   2.512625   3.208165   4.180579   3.160103
     8  C    1.288998   2.097837   2.184637   3.203461   2.115860
     9  N    2.190252   0.993212   1.372149   2.143634   2.162879
                    6          7          8          9
     6  H    0.000000
     7  H    4.136171   0.000000
     8  C    3.130644   1.070911   0.000000
     9  N    3.211116   2.123076   1.349441   0.000000
 Stoichiometry    C3H4N2
 Framework group  CS[SG(C3H4N2)]
 Deg. of freedom    15
 Full point group                 CS
 Largest Abelian subgroup         CS      NOp   2
 Largest concise Abelian subgroup C1      NOp   1
                         Standard orientation:                         
 ---------------------------------------------------------------------
 Center     Atomic     Atomic              Coordinates (Angstroms)
 Number     Number      Type              X           Y           Z
 ---------------------------------------------------------------------
    1          7             0       -0.741059   -0.965959    0.000000
    2          1             0       -0.012734    2.088247    0.000000
    3          6             0        1.109862    0.288272    0.000000
    4          1             0        2.103339    0.681436    0.000000
    5          6             0        0.630182   -0.973920    0.000000
    6          1             0        1.182239   -1.890444    0.000000
    7          1             0       -2.077162    0.655969    0.000000
    8          6             0       -1.074756    0.279096    0.000000
    9          7             0        0.000000    1.095117    0.000000
 ---------------------------------------------------------------------
 Rotational constants (GHZ):      9.9280198      9.6396664      4.8908592
 Standard basis: CC-pVTZ (5D, 7F)
 There are   140 symmetry adapted basis functions of A'  symmetry.
 There are    66 symmetry adapted basis functions of A"  symmetry.
 Integral buffers will be    131072 words long.
 Raffenetti 2 integral format.
 Two-electron integral symmetry is turned on.
   206 basis functions,   333 primitive gaussians,   235 cartesian basis functions
    18 alpha electrons       18 beta electrons
       nuclear repulsion energy       164.9791768016 Hartrees.
 NAtoms=    9 NActive=    9 NUniq=    9 SFac= 7.50D-01 NAtFMM=   80 NAOKFM=F Big=F
 One-electron integrals computed using PRISM.
 NBasis=   206 RedAO= T  NBF=   140    66
 NBsUse=   206 1.00D-06 NBFU=   140    66
 Harris functional with IExCor=  205 diagonalized for initial guess.
 ExpMin= 1.03D-01 ExpMax= 1.14D+04 ExpMxC= 3.89D+02 IAcc=1 IRadAn=         1 AccDes= 1.00D-06
 HarFok:  IExCor= 205 AccDes= 1.00D-06 IRadAn=         1 IDoV=1
 ScaDFX=  1.000000  1.000000  1.000000  1.000000
 Initial guess orbital symmetries:
       Occupied  (A') (A') (A') (A') (A') (A') (A') (A') (A') (A')
                 (A') (A') (A') (A") (A') (A') (A") (A")
       Virtual   (A") (A") (A') (A') (A') (A') (A') (A') (A') (A')
                 (A') (A") (A') (A') (A") (A') (A") (A') (A') (A')
                 (A') (A') (A") (A') (A") (A') (A') (A") (A') (A')
                 (A') (A") (A") (A") (A') (A') (A") (A') (A') (A')
                 (A') (A') (A") (A') (A') (A") (A') (A") (A') (A')
                 (A") (A') (A') (A") (A') (A') (A") (A') (A') (A')
                 (A') (A") (A') (A') (A") (A") (A') (A') (A') (A')
                 (A") (A') (A") (A') (A') (A") (A') (A') (A") (A')
                 (A') (A") (A') (A') (A") (A") (A') (A') (A") (A')
                 (A") (A') (A') (A") (A') (A") (A") (A') (A') (A")
                 (A') (A') (A") (A") (A') (A") (A') (A') (A') (A")
                 (A') (A") (A') (A') (A") (A') (A') (A') (A") (A')
                 (A") (A") (A') (A') (A') (A') (A") (A") (A") (A')
                 (A") (A") (A') (A') (A') (A') (A') (A') (A') (A")
                 (A') (A") (A') (A') (A') (A") (A') (A") (A') (A")
                 (A') (A") (A') (A') (A") (A') (A") (A") (A') (A')
                 (A") (A') (A") (A') (A") (A') (A') (A") (A') (A")
                 (A') (A') (A') (A') (A") (A') (A') (A') (A') (A')
                 (A') (A') (A') (A') (A') (A') (A') (A')
 The electronic state of the initial guess is 1-A'.
 Requested convergence on RMS density matrix=1.00D-08 within 128 cycles.
 Requested convergence on MAX density matrix=1.00D-06.
 Requested convergence on             energy=1.00D-06.
 No special actions if energy rises.
 Integral accuracy reduced to 1.0D-05 until final iterations.
 Initial convergence to 1.0D-05 achieved.  Increase integral accuracy.
 SCF Done:  E(RS-VWN) =  -225.066984428     A.U. after   15 cycles
             Convg  =    0.5958D-08             -V/T =  2.0098
             S**2   =   0.0000

 **********************************************************************

            Population analysis using the SCF density.

 **********************************************************************

 Orbital symmetries:
       Occupied  (A') (A') (A') (A') (A') (A') (A') (A') (A') (A')
                 (A') (A") (A') (A') (A') (A") (A') (A")
       Virtual   (A") (A') (A") (A') (A') (A') (A') (A') (A') (A')
                 (A") (A') (A') (A") (A') (A') (A") (A') (A') (A')
                 (A') (A') (A") (A") (A') (A') (A') (A') (A") (A')
                 (A') (A") (A") (A') (A") (A') (A") (A') (A') (A')
                 (A') (A') (A") (A') (A") (A') (A') (A") (A') (A')
                 (A") (A') (A') (A") (A') (A') (A') (A") (A') (A')
                 (A') (A") (A') (A') (A") (A") (A') (A') (A') (A')
                 (A') (A") (A") (A') (A') (A") (A') (A') (A") (A')
                 (A') (A') (A") (A') (A") (A") (A') (A') (A") (A')
                 (A") (A') (A') (A") (A') (A") (A') (A") (A') (A")
                 (A') (A") (A') (A") (A') (A") (A') (A') (A') (A")
                 (A") (A') (A') (A') (A") (A') (A') (A') (A") (A')
                 (A") (A") (A') (A') (A') (A") (A') (A") (A") (A')
                 (A") (A") (A') (A') (A') (A') (A') (A') (A") (A')
                 (A') (A') (A") (A') (A') (A") (A') (A") (A') (A")
                 (A') (A") (A') (A') (A") (A') (A") (A") (A') (A')
                 (A") (A') (A") (A') (A") (A') (A") (A') (A') (A")
                 (A') (A') (A') (A') (A") (A') (A') (A') (A') (A')
                 (A') (A') (A') (A') (A') (A') (A') (A')
 The electronic state is 1-A'.
 Alpha  occ. eigenvalues --  -13.93949 -13.85822  -9.84699  -9.82841  -9.80979
 Alpha  occ. eigenvalues --   -0.95889  -0.81560  -0.69693  -0.58213  -0.55938
 Alpha  occ. eigenvalues --   -0.53354  -0.41959  -0.41929  -0.41317  -0.38201
 Alpha  occ. eigenvalues --   -0.27930  -0.24531  -0.23469
 Alpha virt. eigenvalues --   -0.03261  -0.00765   0.00197   0.04306   0.04970
 Alpha virt. eigenvalues --    0.06917   0.11484   0.13600   0.14573   0.17453
 Alpha virt. eigenvalues --    0.22217   0.23108   0.26090   0.27884   0.28690
 Alpha virt. eigenvalues --    0.30554   0.31576   0.33354   0.36638   0.39419
 Alpha virt. eigenvalues --    0.41382   0.42694   0.43470   0.46038   0.46264
 Alpha virt. eigenvalues --    0.47564   0.49739   0.52055   0.53027   0.54537
 Alpha virt. eigenvalues --    0.59617   0.64164   0.65869   0.68176   0.68866
 Alpha virt. eigenvalues --    0.69741   0.76083   0.76994   0.81592   0.87012
 Alpha virt. eigenvalues --    0.90211   0.92214   0.92281   0.93568   0.95839
 Alpha virt. eigenvalues --    0.96369   1.05366   1.07525   1.08060   1.12082
 Alpha virt. eigenvalues --    1.15639   1.17200   1.20459   1.21569   1.26928
 Alpha virt. eigenvalues --    1.28541   1.31398   1.33889   1.37057   1.41065
 Alpha virt. eigenvalues --    1.42850   1.48201   1.49393   1.56087   1.56153
 Alpha virt. eigenvalues --    1.61511   1.69092   1.73920   1.79454   1.84882
 Alpha virt. eigenvalues --    1.93678   1.93745   1.99277   2.01369   2.08846
 Alpha virt. eigenvalues --    2.14475   2.18685   2.31498   2.36877   2.41514
 Alpha virt. eigenvalues --    2.43148   2.47704   2.48376   2.53746   2.57898
 Alpha virt. eigenvalues --    2.60069   2.60836   2.70425   2.73294   2.75547
 Alpha virt. eigenvalues --    2.75762   2.78758   2.81682   2.82104   2.85695
 Alpha virt. eigenvalues --    2.86940   2.89943   2.89948   2.93121   2.93738
 Alpha virt. eigenvalues --    2.94835   2.98523   2.98655   3.03911   3.04089
 Alpha virt. eigenvalues --    3.06450   3.10185   3.14349   3.15671   3.18635
 Alpha virt. eigenvalues --    3.22483   3.23053   3.27543   3.32121   3.32460
 Alpha virt. eigenvalues --    3.35159   3.41164   3.47068   3.47570   3.51154
 Alpha virt. eigenvalues --    3.53564   3.54921   3.58990   3.61891   3.66413
 Alpha virt. eigenvalues --    3.70079   3.70551   3.73577   3.75791   3.79235
 Alpha virt. eigenvalues --    3.84042   3.87015   3.90898   3.93471   3.97899
 Alpha virt. eigenvalues --    3.98909   4.06614   4.08222   4.15966   4.17801
 Alpha virt. eigenvalues --    4.23764   4.28312   4.29854   4.35645   4.39730
 Alpha virt. eigenvalues --    4.40294   4.47475   4.55899   4.57392   4.59970
 Alpha virt. eigenvalues --    4.61705   4.66708   4.67940   4.72163   4.76961
 Alpha virt. eigenvalues --    4.79826   4.82598   4.86038   4.91671   4.95703
 Alpha virt. eigenvalues --    4.96224   4.97123   5.01737   5.04163   5.09802
 Alpha virt. eigenvalues --    5.15262   5.24502   5.24990   5.31926   5.37951
 Alpha virt. eigenvalues --    5.44861   5.50616   5.53660   5.65100   5.75878
 Alpha virt. eigenvalues --    5.87519   5.87798   6.04186   6.08204   6.11035
 Alpha virt. eigenvalues --    6.27313   6.78405   6.86183   9.25493  11.36264
 Alpha virt. eigenvalues --   12.52630  13.64245  13.93484
          Condensed to atoms (all electrons):
              1          2          3          4          5          6
     1  N    6.255586   0.009322  -0.118855   0.007828   0.553713  -0.027159
     2  H    0.009322   0.513515  -0.027790  -0.000146   0.006751  -0.000379
     3  C   -0.118855  -0.027790   5.030731   0.400886   0.582709  -0.053169
     4  H    0.007828  -0.000146   0.400886   0.513556  -0.024326  -0.001679
     5  C    0.553713   0.006751   0.582709  -0.024326   4.848975   0.425209
     6  H   -0.027159  -0.000379  -0.053169  -0.001679   0.425209   0.517258
     7  H   -0.025723  -0.001013   0.006214  -0.000164   0.007567  -0.000274
     8  C    0.643819  -0.029162  -0.122271   0.006188  -0.158231   0.009420
     9  N   -0.128462   0.372794   0.436297  -0.034162  -0.100522   0.003754
              7          8          9
     1  N   -0.025723   0.643819  -0.128462
     2  H   -0.001013  -0.029162   0.372794
     3  C    0.006214  -0.122271   0.436297
     4  H   -0.000164   0.006188  -0.034162
     5  C    0.007567  -0.158231  -0.100522
     6  H   -0.000274   0.009420   0.003754
     7  H    0.511524   0.416731  -0.044717
     8  C    0.416731   4.813372   0.486870
     9  N   -0.044717   0.486870   6.039745
 Mulliken atomic charges:
              1
     1  N   -0.170070
     2  H    0.156108
     3  C   -0.134753
     4  H    0.132019
     5  C   -0.141843
     6  H    0.127018
     7  H    0.129855
     8  C   -0.066736
     9  N   -0.031597
 Sum of Mulliken charges=   0.00000
 Atomic charges with hydrogens summed into heavy atoms:
              1
     1  N   -0.170070
     2  H    0.000000
     3  C   -0.002734
     4  H    0.000000
     5  C   -0.014826
     6  H    0.000000
     7  H    0.000000
     8  C    0.063119
     9  N    0.124511
 Sum of Mulliken charges=   0.00000
 Electronic spatial extent (au):  <R**2>=   280.6084
 Charge=     0.0000 electrons
 Dipole moment (field-independent basis, Debye):
    X=     1.1282    Y=     3.4972    Z=     0.0000  Tot=     3.6747
 Quadrupole moment (field-independent basis, Debye-Ang):
   XX=   -26.7560   YY=   -25.5746   ZZ=   -31.6330
   XY=    -3.1729   XZ=     0.0000   YZ=     0.0000
 Traceless Quadrupole moment (field-independent basis, Debye-Ang):
   XX=     1.2319   YY=     2.4133   ZZ=    -3.6452
   XY=    -3.1729   XZ=     0.0000   YZ=     0.0000
 Octapole moment (field-independent basis, Debye-Ang**2):
  XXX=     0.3438  YYY=    15.6130  ZZZ=     0.0000  XYY=     5.2899
  XXY=     6.0930  XXZ=     0.0000  XZZ=    -1.0831  YZZ=     1.2025
  YYZ=     0.0000  XYZ=     0.0000
 Hexadecapole moment (field-independent basis, Debye-Ang**3):
 XXXX=  -157.1809 YYYY=  -138.6276 ZZZZ=   -33.3680 XXXY=    -2.4854
 XXXZ=     0.0000 YYYX=    -8.9306 YYYZ=     0.0000 ZZZX=     0.0000
 ZZZY=     0.0000 XXYY=   -57.3819 XXZZ=   -38.9983 YYZZ=   -35.7661
 XXYZ=     0.0000 YYXZ=     0.0000 ZZXY=     0.7552
 N-N= 1.649791768016D+02 E-N=-8.544038534889D+02  KE= 2.228799519920D+02
 Symmetry A'   KE= 2.145885893141D+02
 Symmetry A"   KE= 8.291362677841D+00
 Calling FoFCou, ICntrl=  2527 FMM=F ISym2X=1 I1Cent= 0 ISCF1= 0.
 ***** Axes restored to original set *****
 -------------------------------------------------------------------
 Center     Atomic                   Forces (Hartrees/Bohr)
 Number     Number              X              Y              Z
 -------------------------------------------------------------------
    1          7           0.010763463   -0.017219562    0.000000000
    2          1           0.000590837    0.019768411    0.000000000
    3          6          -0.008992963    0.011157396    0.000000000
    4          1           0.010882240    0.004636071    0.000000000
    5          6          -0.014432994   -0.003602015    0.000000000
    6          1           0.006303068   -0.010160364    0.000000000
    7          1          -0.011712491    0.004844008    0.000000000
    8          6          -0.001106858    0.011271575    0.000000000
    9          7           0.007705698   -0.020695521    0.000000000
 -------------------------------------------------------------------
 Cartesian Forces:  Max     0.020695521 RMS     0.009208756

 GradGradGradGradGradGradGradGradGradGradGradGradGradGradGradGradGradGrad
 Berny optimization.
 Internal  Forces:  Max     0.019758935 RMS     0.006205167
 Search for a local minimum.
 Step number   1 out of a maximum of  48
 All quantities printed in internal units (Hartrees-Bohrs-Radians)
 Second derivative matrix not updated -- first step.
     Eigenvalues ---    0.02198   0.02341   0.02379   0.02551   0.02603
     Eigenvalues ---    0.02705   0.16000   0.16000   0.16000   0.16000
     Eigenvalues ---    0.22000   0.22911   0.37115   0.37237   0.37427
     Eigenvalues ---    0.45111   0.47811   0.48902   0.51454   0.54834
     Eigenvalues ---    0.671221000.000001000.000001000.000001000.00000
     Eigenvalues --- 1000.000001000.000001000.000001000.000001000.00000
     Eigenvalues --- 1000.000001000.000001000.000001000.000001000.00000
     Eigenvalues --- 1000.000001000.000001000.00000
 RFO step:  Lambda=-3.02908258D-03.
 Linear search not attempted -- first point.
 Iteration  1 RMS(Cart)=  0.01513566 RMS(Int)=  0.00004224
 Iteration  2 RMS(Cart)=  0.00005136 RMS(Int)=  0.00000846
 Iteration  3 RMS(Cart)=  0.00000000 RMS(Int)=  0.00000846
 Variable       Old X    -DE/DX   Delta X   Delta X   Delta X     New X
                                 (Linear)    (Quad)   (Total)
    R1        2.59131  -0.00393   0.00000  -0.00721  -0.00721   2.58410
    R2        2.43585   0.01855   0.00000   0.02740   0.02741   2.46327
    R3        1.87690   0.01976   0.00000   0.04016   0.04016   1.91705
    R4        2.01907   0.01183   0.00000   0.03134   0.03134   2.05041
    R5        2.55164   0.01421   0.00000   0.02457   0.02455   2.57619
    R6        2.59299  -0.00315   0.00000  -0.00748  -0.00748   2.58550
    R7        2.02190   0.01196   0.00000   0.03185   0.03185   2.05375
    R8        2.02373   0.01267   0.00000   0.03385   0.03385   2.05758
    R9        2.55007   0.00553   0.00000   0.01046   0.01048   2.56055
    A1        1.83847  -0.00013   0.00000   0.00500   0.00501   1.84347
    A2        2.31081  -0.00049   0.00000   0.00115   0.00116   2.31197
    A3        2.13616  -0.00112   0.00000  -0.00270  -0.00269   2.13346
    A4        1.83622   0.00161   0.00000   0.00155   0.00153   1.83775
    A5        1.92817  -0.00027   0.00000  -0.00302  -0.00304   1.92513
    A6        2.11874   0.00030   0.00000   0.00252   0.00253   2.12127
    A7        2.23628  -0.00003   0.00000   0.00050   0.00051   2.23679
    A8        2.19228   0.00203   0.00000   0.00783   0.00782   2.20010
    A9        1.95834  -0.00323   0.00000  -0.01060  -0.01058   1.94775
   A10        2.13257   0.00120   0.00000   0.00278   0.00277   2.13534
   A11        2.21222  -0.00179   0.00000  -0.00837  -0.00838   2.20385
   A12        2.20738  -0.00022   0.00000   0.00129   0.00129   2.20867
   A13        1.86359   0.00201   0.00000   0.00708   0.00709   1.87067
    D1        0.00000   0.00000   0.00000   0.00000   0.00000   0.00000
    D2        3.14159   0.00000   0.00000   0.00000   0.00000   3.14159
    D3        3.14159   0.00000   0.00000   0.00000   0.00000   3.14159
    D4        0.00000   0.00000   0.00000   0.00000   0.00000   0.00000
    D5        3.14159   0.00000   0.00000   0.00000   0.00000   3.14159
    D6        0.00000   0.00000   0.00000   0.00000   0.00000   0.00000
    D7        0.00000   0.00000   0.00000   0.00000   0.00000   0.00000
    D8        3.14159   0.00000   0.00000   0.00000   0.00000   3.14159
    D9        0.00000   0.00000   0.00000   0.00000   0.00000   0.00000
   D10        3.14159   0.00000   0.00000   0.00000   0.00000   3.14159
   D11        3.14159   0.00000   0.00000   0.00000   0.00000   3.14159
   D12        0.00000   0.00000   0.00000   0.00000   0.00000   0.00000
   D13        3.14159   0.00000   0.00000   0.00000   0.00000   3.14159
   D14        0.00000   0.00000   0.00000   0.00000   0.00000   0.00000
   D15        0.00000   0.00000   0.00000   0.00000   0.00000   0.00000
   D16        3.14159   0.00000   0.00000   0.00000   0.00000   3.14159
         Item               Value     Threshold  Converged?
 Maximum Force            0.019759     0.000450     NO 
 RMS     Force            0.006205     0.000300     NO 
 Maximum Displacement     0.044794     0.001800     NO 
 RMS     Displacement     0.015142     0.001200     NO 
 Predicted change in Energy=-1.524551D-03
 GradGradGradGradGradGradGradGradGradGradGradGradGradGradGradGradGradGrad

                          Input orientation:                          
 ---------------------------------------------------------------------
 Center     Atomic     Atomic              Coordinates (Angstroms)
 Number     Number      Type              X           Y           Z
 ---------------------------------------------------------------------
    1          7             0       -0.738347   -0.977310    0.000000
    2          1             0       -0.005683    2.108139    0.000000
    3          6             0        1.108977    0.291309    0.000000
    4          1             0        2.116023    0.695226    0.000000
    5          6             0        0.629080   -0.984691    0.000000
    6          1             0        1.192564   -1.914001    0.000000
    7          1             0       -2.100866    0.665533    0.000000
    8          6             0       -1.082614    0.279911    0.000000
    9          7             0        0.000776    1.093698    0.000000
 ---------------------------------------------------------------------
                    Distance matrix (angstroms):
                    1          2          3          4          5
     1  N    0.000000
     2  H    3.171245   0.000000
     3  C    2.240982   2.131511   0.000000
     4  H    3.308293   2.549110   1.085030   0.000000
     5  C    1.367447   3.157296   1.363259   2.243461   0.000000
     6  H    2.146115   4.196833   2.206893   2.767822   1.086799
     7  H    2.134336   2.543798   3.231584   4.216993   3.189960
     8  C    1.303504   2.121839   2.191621   3.225487   2.128171
     9  N    2.198949   1.014461   1.368188   2.152452   2.171282
                    6          7          8          9
     6  H    0.000000
     7  H    4.183381   0.000000
     8  C    3.160646   1.088826   0.000000
     9  N    3.235215   2.144813   1.354985   0.000000
 Stoichiometry    C3H4N2
 Framework group  CS[SG(C3H4N2)]
 Deg. of freedom    15
 Full point group                 CS
 Largest Abelian subgroup         CS      NOp   2
 Largest concise Abelian subgroup C1      NOp   1
                         Standard orientation:                         
 ---------------------------------------------------------------------
 Center     Atomic     Atomic              Coordinates (Angstroms)
 Number     Number      Type              X           Y           Z
 ---------------------------------------------------------------------
    1          7             0       -0.736173   -0.975270    0.000000
    2          1             0       -0.007903    2.111219    0.000000
    3          6             0        1.109343    0.295978    0.000000
    4          1             0        2.115812    0.701329    0.000000
    5          6             0        0.631264   -0.980703    0.000000
    6          1             0        1.196070   -1.909210    0.000000
    7          1             0       -2.101030    0.665630    0.000000
    8          6             0       -1.082230    0.281459    0.000000
    9          7             0        0.000000    1.096789    0.000000
 ---------------------------------------------------------------------
 Rotational constants (GHZ):      9.8532123      9.5240580      4.8429198
 Standard basis: CC-pVTZ (5D, 7F)
 There are   140 symmetry adapted basis functions of A'  symmetry.
 There are    66 symmetry adapted basis functions of A"  symmetry.
 Integral buffers will be    131072 words long.
 Raffenetti 2 integral format.
 Two-electron integral symmetry is turned on.
   206 basis functions,   333 primitive gaussians,   235 cartesian basis functions
    18 alpha electrons       18 beta electrons
       nuclear repulsion energy       164.0693431531 Hartrees.
 NAtoms=    9 NActive=    9 NUniq=    9 SFac= 7.50D-01 NAtFMM=   80 NAOKFM=F Big=F
 One-electron integrals computed using PRISM.
 NBasis=   206 RedAO= T  NBF=   140    66
 NBsUse=   206 1.00D-06 NBFU=   140    66
 Initial guess read from the read-write file:
 Initial guess orbital symmetries:
       Occupied  (A') (A') (A') (A') (A') (A') (A') (A') (A') (A')
                 (A') (A") (A') (A') (A') (A") (A') (A")
       Virtual   (A") (A') (A") (A') (A') (A') (A') (A') (A') (A')
                 (A") (A') (A') (A") (A') (A') (A") (A') (A') (A')
                 (A') (A') (A") (A") (A') (A') (A') (A') (A") (A')
                 (A') (A") (A") (A') (A") (A') (A") (A') (A') (A')
                 (A') (A') (A") (A') (A") (A') (A') (A") (A') (A')
                 (A") (A') (A') (A") (A') (A') (A') (A") (A') (A')
                 (A') (A") (A') (A') (A") (A") (A') (A') (A') (A')
                 (A') (A") (A") (A') (A') (A") (A') (A') (A") (A')
                 (A') (A') (A") (A') (A") (A") (A') (A') (A") (A')
                 (A") (A') (A') (A") (A') (A") (A') (A") (A') (A")
                 (A') (A") (A') (A") (A') (A") (A') (A') (A') (A")
                 (A") (A') (A') (A') (A") (A') (A') (A') (A") (A')
                 (A") (A") (A') (A') (A') (A") (A') (A") (A") (A')
                 (A") (A") (A') (A') (A') (A') (A') (A') (A") (A')
                 (A') (A') (A") (A') (A') (A") (A') (A") (A') (A")
                 (A') (A") (A') (A') (A") (A') (A") (A") (A') (A')
                 (A") (A') (A") (A') (A") (A') (A") (A') (A') (A")
                 (A') (A') (A') (A') (A") (A') (A') (A') (A') (A')
                 (A') (A') (A') (A') (A') (A') (A') (A')
 Harris functional with IExCor=  205 diagonalized for initial guess.
 ExpMin= 1.03D-01 ExpMax= 1.14D+04 ExpMxC= 3.89D+02 IAcc=1 IRadAn=         1 AccDes= 1.00D-06
 HarFok:  IExCor= 205 AccDes= 1.00D-06 IRadAn=         1 IDoV=1
 ScaDFX=  1.000000  1.000000  1.000000  1.000000
 Requested convergence on RMS density matrix=1.00D-08 within 128 cycles.
 Requested convergence on MAX density matrix=1.00D-06.
 Requested convergence on             energy=1.00D-06.
 No special actions if energy rises.
 Integral accuracy reduced to 1.0D-05 until final iterations.
 Initial convergence to 1.0D-05 achieved.  Increase integral accuracy.
 SCF Done:  E(RS-VWN) =  -225.068582819     A.U. after   12 cycles
             Convg  =    0.3687D-08             -V/T =  2.0107
             S**2   =   0.0000
 Calling FoFCou, ICntrl=  2527 FMM=F ISym2X=1 I1Cent= 0 ISCF1= 0.
 ***** Axes restored to original set *****
 -------------------------------------------------------------------
 Center     Atomic                   Forces (Hartrees/Bohr)
 Number     Number              X              Y              Z
 -------------------------------------------------------------------
    1          7           0.005094062   -0.003273098    0.000000000
    2          1           0.000327700    0.000432470    0.000000000
    3          6          -0.000366258    0.004400173    0.000000000
    4          1           0.000055186    0.000076139    0.000000000
    5          6          -0.005797412   -0.001122205    0.000000000
    6          1           0.000281730    0.000081292    0.000000000
    7          1           0.000372476   -0.000231333    0.000000000
    8          6          -0.002156237    0.004140463    0.000000000
    9          7           0.002188755   -0.004503902    0.000000000
 -------------------------------------------------------------------
 Cartesian Forces:  Max     0.005797412 RMS     0.002264686

 GradGradGradGradGradGradGradGradGradGradGradGradGradGradGradGradGradGrad
 Berny optimization.
 Internal  Forces:  Max     0.003838161 RMS     0.001093905
 Search for a local minimum.
 Step number   2 out of a maximum of  48
 All quantities printed in internal units (Hartrees-Bohrs-Radians)
 Update second derivatives using D2CorX and points  1  2
 Trust test= 1.05D+00 RLast= 8.17D-02 DXMaxT set to 3.00D-01
     Eigenvalues ---    0.02199   0.02340   0.02380   0.02552   0.02603
     Eigenvalues ---    0.02707   0.15944   0.16000   0.16000   0.16010
     Eigenvalues ---    0.21513   0.22953   0.37069   0.37353   0.37734
     Eigenvalues ---    0.45091   0.45477   0.48604   0.52449   0.55782
     Eigenvalues ---    0.650301000.000001000.000001000.000001000.00000
     Eigenvalues --- 1000.000001000.000001000.000001000.000001000.00000
     Eigenvalues --- 1000.000001000.000001000.000001000.000001000.00000
     Eigenvalues --- 1000.000001000.000001000.00000
 RFO step:  Lambda=-9.85753661D-05.
 Quartic linear search produced a step of  0.08113.
 Iteration  1 RMS(Cart)=  0.00250570 RMS(Int)=  0.00000477
 Iteration  2 RMS(Cart)=  0.00000492 RMS(Int)=  0.00000235
 Iteration  3 RMS(Cart)=  0.00000000 RMS(Int)=  0.00000235
 Variable       Old X    -DE/DX   Delta X   Delta X   Delta X     New X
                                 (Linear)    (Quad)   (Total)
    R1        2.58410  -0.00384  -0.00059  -0.00779  -0.00838   2.57572
    R2        2.46327   0.00294   0.00222   0.00353   0.00576   2.46902
    R3        1.91705   0.00043   0.00326  -0.00087   0.00239   1.91944
    R4        2.05041   0.00008   0.00254  -0.00116   0.00139   2.05179
    R5        2.57619   0.00210   0.00199   0.00269   0.00468   2.58086
    R6        2.58550  -0.00329  -0.00061  -0.00698  -0.00758   2.57792
    R7        2.05375   0.00008   0.00258  -0.00119   0.00140   2.05515
    R8        2.05758  -0.00043   0.00275  -0.00275   0.00000   2.05758
    R9        2.56055  -0.00030   0.00085  -0.00090  -0.00005   2.56050
    A1        1.84347  -0.00037   0.00041  -0.00065  -0.00025   1.84322
    A2        2.31197   0.00036   0.00009   0.00251   0.00260   2.31458
    A3        2.13346   0.00025  -0.00022   0.00196   0.00174   2.13520
    A4        1.83775  -0.00061   0.00012  -0.00447  -0.00434   1.83340
    A5        1.92513   0.00089  -0.00025   0.00384   0.00359   1.92872
    A6        2.12127  -0.00015   0.00021   0.00001   0.00022   2.12148
    A7        2.23679  -0.00074   0.00004  -0.00385  -0.00380   2.23299
    A8        2.20010   0.00047   0.00063   0.00134   0.00197   2.20206
    A9        1.94775  -0.00112  -0.00086  -0.00405  -0.00490   1.94285
   A10        2.13534   0.00065   0.00022   0.00271   0.00293   2.13827
   A11        2.20385  -0.00092  -0.00068  -0.00461  -0.00530   2.19855
   A12        2.20867  -0.00029   0.00010  -0.00071  -0.00061   2.20805
   A13        1.87067   0.00121   0.00057   0.00533   0.00591   1.87658
    D1        0.00000   0.00000   0.00000   0.00000   0.00000   0.00000
    D2        3.14159   0.00000   0.00000   0.00000   0.00000   3.14159
    D3        3.14159   0.00000   0.00000   0.00000   0.00000   3.14159
    D4        0.00000   0.00000   0.00000   0.00000   0.00000   0.00000
    D5        3.14159   0.00000   0.00000   0.00000   0.00000   3.14159
    D6        0.00000   0.00000   0.00000   0.00000   0.00000   0.00000
    D7        0.00000   0.00000   0.00000   0.00000   0.00000   0.00000
    D8        3.14159   0.00000   0.00000   0.00000   0.00000   3.14159
    D9        0.00000   0.00000   0.00000   0.00000   0.00000   0.00000
   D10        3.14159   0.00000   0.00000   0.00000   0.00000   3.14159
   D11        3.14159   0.00000   0.00000   0.00000   0.00000   3.14159
   D12        0.00000   0.00000   0.00000   0.00000   0.00000   0.00000
   D13        3.14159   0.00000   0.00000   0.00000   0.00000   3.14159
   D14        0.00000   0.00000   0.00000   0.00000   0.00000   0.00000
   D15        0.00000   0.00000   0.00000   0.00000   0.00000   0.00000
   D16        3.14159   0.00000   0.00000   0.00000   0.00000   3.14159
         Item               Value     Threshold  Converged?
 Maximum Force            0.003838     0.000450     NO 
 RMS     Force            0.001094     0.000300     NO 
 Maximum Displacement     0.007112     0.001800     NO 
 RMS     Displacement     0.002506     0.001200     NO 
 Predicted change in Energy=-5.722511D-05
 GradGradGradGradGradGradGradGradGradGradGradGradGradGradGradGradGradGrad

                          Input orientation:                          
 ---------------------------------------------------------------------
 Center     Atomic     Atomic              Coordinates (Angstroms)
 Number     Number      Type              X           Y           Z
 ---------------------------------------------------------------------
    1          7             0       -0.736943   -0.979457    0.000000
    2          1             0       -0.001919    2.106106    0.000000
    3          6             0        1.108967    0.293308    0.000000
    4          1             0        2.116316    0.698437    0.000000
    5          6             0        0.626062   -0.984202    0.000000
    6          1             0        1.191910   -1.912941    0.000000
    7          1             0       -2.102249    0.666053    0.000000
    8          6             0       -1.084115    0.280124    0.000000
    9          7             0        0.001882    1.090387    0.000000
 ---------------------------------------------------------------------
                    Distance matrix (angstroms):
                    1          2          3          4          5
     1  N    0.000000
     2  H    3.171902   0.000000
     3  C    2.242168   2.126102   0.000000
     4  H    3.310048   2.543315   1.085763   0.000000
     5  C    1.363014   3.153469   1.365734   2.247694   0.000000
     6  H    2.142865   4.192609   2.207807   2.770166   1.087538
     7  H    2.138168   2.546593   3.232776   4.218688   3.188577
     8  C    1.306550   2.122583   2.193122   3.227653   2.126788
     9  N    2.197753   1.015726   1.364175   2.150454   2.166454
                    6          7          8          9
     6  H    0.000000
     7  H    4.183622   0.000000
     8  C    3.160669   1.088823   0.000000
     9  N    3.230503   2.146491   1.354960   0.000000
 Stoichiometry    C3H4N2
 Framework group  CS[SG(C3H4N2)]
 Deg. of freedom    15
 Full point group                 CS
 Largest Abelian subgroup         CS      NOp   2
 Largest concise Abelian subgroup C1      NOp   1
                         Standard orientation:                         
 ---------------------------------------------------------------------
 Center     Atomic     Atomic              Coordinates (Angstroms)
 Number     Number      Type              X           Y           Z
 ---------------------------------------------------------------------
    1          7             0       -0.733376   -0.977767    0.000000
    2          1             0       -0.006474    2.109721    0.000000
    3          6             0        1.109178    0.299851    0.000000
    4          1             0        2.115458    0.707630    0.000000
    5          6             0        0.629637   -0.978925    0.000000
    6          1             0        1.197928   -1.906171    0.000000
    7          1             0       -2.103007    0.664145    0.000000
    8          6             0       -1.083861    0.280897    0.000000
    9          7             0        0.000000    1.094015    0.000000
 ---------------------------------------------------------------------
 Rotational constants (GHZ):      9.8732135      9.5195826      4.8465869
 Standard basis: CC-pVTZ (5D, 7F)
 There are   140 symmetry adapted basis functions of A'  symmetry.
 There are    66 symmetry adapted basis functions of A"  symmetry.
 Integral buffers will be    131072 words long.
 Raffenetti 2 integral format.
 Two-electron integral symmetry is turned on.
   206 basis functions,   333 primitive gaussians,   235 cartesian basis functions
    18 alpha electrons       18 beta electrons
       nuclear repulsion energy       164.1219494089 Hartrees.
 NAtoms=    9 NActive=    9 NUniq=    9 SFac= 7.50D-01 NAtFMM=   80 NAOKFM=F Big=F
 One-electron integrals computed using PRISM.
 NBasis=   206 RedAO= T  NBF=   140    66
 NBsUse=   206 1.00D-06 NBFU=   140    66
 Initial guess read from the read-write file:
 Initial guess orbital symmetries:
       Occupied  (A') (A') (A') (A') (A') (A') (A') (A') (A') (A')
                 (A') (A") (A') (A') (A') (A") (A') (A")
       Virtual   (A") (A') (A") (A') (A') (A') (A') (A') (A') (A')
                 (A") (A') (A') (A") (A') (A') (A") (A') (A') (A')
                 (A') (A') (A") (A") (A') (A') (A') (A') (A") (A')
                 (A') (A") (A") (A') (A") (A') (A") (A') (A') (A')
                 (A') (A") (A') (A') (A") (A') (A') (A") (A') (A')
                 (A") (A') (A') (A") (A') (A') (A') (A") (A') (A')
                 (A') (A") (A') (A') (A") (A") (A') (A') (A') (A')
                 (A') (A") (A") (A') (A') (A") (A') (A') (A") (A')
                 (A') (A') (A") (A') (A") (A") (A') (A') (A") (A")
                 (A') (A') (A') (A") (A') (A") (A') (A") (A') (A')
                 (A") (A') (A") (A') (A") (A") (A') (A') (A') (A")
                 (A') (A") (A') (A') (A") (A') (A') (A') (A") (A')
                 (A") (A") (A') (A') (A') (A') (A") (A") (A") (A')
                 (A") (A") (A') (A') (A') (A') (A') (A') (A") (A')
                 (A') (A') (A") (A') (A') (A") (A') (A") (A') (A')
                 (A") (A") (A') (A') (A") (A') (A") (A") (A') (A')
                 (A') (A") (A') (A") (A") (A') (A") (A') (A') (A")
                 (A') (A') (A') (A') (A") (A') (A') (A') (A') (A')
                 (A') (A') (A') (A') (A') (A') (A') (A')
 Requested convergence on RMS density matrix=1.00D-08 within 128 cycles.
 Requested convergence on MAX density matrix=1.00D-06.
 Requested convergence on             energy=1.00D-06.
 No special actions if energy rises.
 SCF Done:  E(RS-VWN) =  -225.068653605     A.U. after    9 cycles
             Convg  =    0.3765D-08             -V/T =  2.0107
             S**2   =   0.0000
 Calling FoFCou, ICntrl=  2527 FMM=F ISym2X=1 I1Cent= 0 ISCF1= 0.
 ***** Axes restored to original set *****
 -------------------------------------------------------------------
 Center     Atomic                   Forces (Hartrees/Bohr)
 Number     Number              X              Y              Z
 -------------------------------------------------------------------
    1          7           0.002109807   -0.000688203    0.000000000
    2          1          -0.000002435   -0.000501168    0.000000000
    3          6           0.000305558    0.001221952    0.000000000
    4          1          -0.000445854   -0.000231528    0.000000000
    5          6          -0.001753394   -0.001407861    0.000000000
    6          1           0.000043304    0.000349373    0.000000000
    7          1           0.000549623   -0.000255029    0.000000000
    8          6          -0.000753845    0.001824368    0.000000000
    9          7          -0.000052764   -0.000311904    0.000000000
 -------------------------------------------------------------------
 Cartesian Forces:  Max     0.002109807 RMS     0.000783137

 GradGradGradGradGradGradGradGradGradGradGradGradGradGradGradGradGradGrad
 Berny optimization.
 Internal  Forces:  Max     0.001536267 RMS     0.000400672
 Search for a local minimum.
 Step number   3 out of a maximum of  48
 All quantities printed in internal units (Hartrees-Bohrs-Radians)
 Update second derivatives using D2CorX and points  1  2  3
 Trust test= 1.24D+00 RLast= 1.87D-02 DXMaxT set to 3.00D-01
     Eigenvalues ---    0.02200   0.02339   0.02380   0.02552   0.02602
     Eigenvalues ---    0.02707   0.15342   0.16000   0.16003   0.16074
     Eigenvalues ---    0.20264   0.24225   0.35179   0.37358   0.37859
     Eigenvalues ---    0.39585   0.45609   0.49282   0.51335   0.56424
     Eigenvalues ---    0.638561000.000001000.000001000.000001000.00000
     Eigenvalues --- 1000.000001000.000001000.000001000.000001000.00000
     Eigenvalues --- 1000.000001000.000001000.000001000.000001000.00000
     Eigenvalues --- 1000.000001000.000001000.00000
 RFO step:  Lambda=-1.14360861D-05.
 Quartic linear search produced a step of  0.28285.
 Iteration  1 RMS(Cart)=  0.00092430 RMS(Int)=  0.00000108
 Iteration  2 RMS(Cart)=  0.00000078 RMS(Int)=  0.00000082
 Variable       Old X    -DE/DX   Delta X   Delta X   Delta X     New X
                                 (Linear)    (Quad)   (Total)
    R1        2.57572  -0.00154  -0.00237  -0.00235  -0.00472   2.57100
    R2        2.46902   0.00111   0.00163   0.00135   0.00298   2.47201
    R3        1.91944  -0.00050   0.00068  -0.00116  -0.00049   1.91896
    R4        2.05179  -0.00050   0.00039  -0.00149  -0.00109   2.05070
    R5        2.58086   0.00077   0.00132   0.00118   0.00250   2.58337
    R6        2.57792  -0.00039  -0.00215   0.00029  -0.00186   2.57606
    R7        2.05515  -0.00028   0.00040  -0.00073  -0.00033   2.05482
    R8        2.05758  -0.00060   0.00000  -0.00155  -0.00156   2.05602
    R9        2.56050  -0.00064  -0.00001  -0.00128  -0.00129   2.55922
    A1        1.84322   0.00030  -0.00007   0.00189   0.00182   1.84505
    A2        2.31458  -0.00010   0.00074  -0.00108  -0.00034   2.31424
    A3        2.13520   0.00000   0.00049  -0.00017   0.00032   2.13553
    A4        1.83340   0.00010  -0.00123   0.00125   0.00002   1.83342
    A5        1.92872  -0.00019   0.00101  -0.00188  -0.00087   1.92785
    A6        2.12148   0.00032   0.00006   0.00234   0.00240   2.12388
    A7        2.23299  -0.00013  -0.00108  -0.00046  -0.00153   2.23145
    A8        2.20206   0.00011   0.00056   0.00016   0.00072   2.20278
    A9        1.94285  -0.00030  -0.00139  -0.00074  -0.00212   1.94073
   A10        2.13827   0.00019   0.00083   0.00058   0.00141   2.13968
   A11        2.19855  -0.00004  -0.00150   0.00065  -0.00085   2.19770
   A12        2.20805  -0.00004  -0.00017  -0.00012  -0.00030   2.20776
   A13        1.87658   0.00008   0.00167  -0.00052   0.00115   1.87773
    D1        0.00000   0.00000   0.00000   0.00000   0.00000   0.00000
    D2        3.14159   0.00000   0.00000   0.00000   0.00000   3.14159
    D3        3.14159   0.00000   0.00000   0.00000   0.00000   3.14159
    D4        0.00000   0.00000   0.00000   0.00000   0.00000   0.00000
    D5        3.14159   0.00000   0.00000   0.00000   0.00000   3.14159
    D6        0.00000   0.00000   0.00000   0.00000   0.00000   0.00000
    D7        0.00000   0.00000   0.00000   0.00000   0.00000   0.00000
    D8        3.14159   0.00000   0.00000   0.00000   0.00000   3.14159
    D9        0.00000   0.00000   0.00000   0.00000   0.00000   0.00000
   D10        3.14159   0.00000   0.00000   0.00000   0.00000   3.14159
   D11        3.14159   0.00000   0.00000   0.00000   0.00000   3.14159
   D12        0.00000   0.00000   0.00000   0.00000   0.00000   0.00000
   D13        3.14159   0.00000   0.00000   0.00000   0.00000   3.14159
   D14        0.00000   0.00000   0.00000   0.00000   0.00000   0.00000
   D15        0.00000   0.00000   0.00000   0.00000   0.00000   0.00000
   D16        3.14159   0.00000   0.00000   0.00000   0.00000   3.14159
         Item               Value     Threshold  Converged?
 Maximum Force            0.001536     0.000450     NO 
 RMS     Force            0.000401     0.000300     NO 
 Maximum Displacement     0.003024     0.001800     NO 
 RMS     Displacement     0.000924     0.001200     YES
 Predicted change in Energy=-9.376340D-06
 GradGradGradGradGradGradGradGradGradGradGradGradGradGradGradGradGradGrad

                          Input orientation:                          
 ---------------------------------------------------------------------
 Center     Atomic     Atomic              Coordinates (Angstroms)
 Number     Number      Type              X           Y           Z
 ---------------------------------------------------------------------
    1          7             0       -0.735343   -0.979513    0.000000
    2          1             0       -0.001310    2.105465    0.000000
    3          6             0        1.108264    0.293709    0.000000
    4          1             0        2.115129    0.698490    0.000000
    5          6             0        0.625159   -0.985142    0.000000
    6          1             0        1.192533   -1.912743    0.000000
    7          1             0       -2.101940    0.666365    0.000000
    8          6             0       -1.084403    0.281184    0.000000
    9          7             0        0.001822    1.090000    0.000000
 ---------------------------------------------------------------------
                    Distance matrix (angstroms):
                    1          2          3          4          5
     1  N    0.000000
     2  H    3.171104   0.000000
     3  C    2.240531   2.124527   0.000000
     4  H    3.307701   2.541435   1.085184   0.000000
     5  C    1.360514   3.153461   1.367059   2.248250   0.000000
     6  H    2.141874   4.191809   2.208061   2.769426   1.087362
     7  H    2.139276   2.546302   3.231761   4.217191   3.188188
     8  C    1.308129   2.121578   2.192703   3.226631   2.127483
     9  N    2.196884   1.015470   1.363192   2.149266   2.166741
                    6          7          8          9
     6  H    0.000000
     7  H    4.183939   0.000000
     8  C    3.161923   1.088000   0.000000
     9  N    3.230211   2.145992   1.354279   0.000000
 Stoichiometry    C3H4N2
 Framework group  CS[SG(C3H4N2)]
 Deg. of freedom    15
 Full point group                 CS
 Largest Abelian subgroup         CS      NOp   2
 Largest concise Abelian subgroup C1      NOp   1
                         Standard orientation:                         
 ---------------------------------------------------------------------
 Center     Atomic     Atomic              Coordinates (Angstroms)
 Number     Number      Type              X           Y           Z
 ---------------------------------------------------------------------
    1          7             0       -0.731816   -0.977782    0.000000
    2          1             0       -0.005756    2.109083    0.000000
    3          6             0        1.108495    0.300199    0.000000
    4          1             0        2.114311    0.707580    0.000000
    5          6             0        0.628696   -0.979896    0.000000
    6          1             0        1.198465   -1.906028    0.000000
    7          1             0       -2.102660    0.664560    0.000000
    8          6             0       -1.084132    0.282009    0.000000
    9          7             0        0.000000    1.093629    0.000000
 ---------------------------------------------------------------------
 Rotational constants (GHZ):      9.8778562      9.5231160      4.8486215
 Standard basis: CC-pVTZ (5D, 7F)
 There are   140 symmetry adapted basis functions of A'  symmetry.
 There are    66 symmetry adapted basis functions of A"  symmetry.
 Integral buffers will be    131072 words long.
 Raffenetti 2 integral format.
 Two-electron integral symmetry is turned on.
   206 basis functions,   333 primitive gaussians,   235 cartesian basis functions
    18 alpha electrons       18 beta electrons
       nuclear repulsion energy       164.1566816554 Hartrees.
 NAtoms=    9 NActive=    9 NUniq=    9 SFac= 7.50D-01 NAtFMM=   80 NAOKFM=F Big=F
 One-electron integrals computed using PRISM.
 NBasis=   206 RedAO= T  NBF=   140    66
 NBsUse=   206 1.00D-06 NBFU=   140    66
 Initial guess read from the read-write file:
 Initial guess orbital symmetries:
       Occupied  (A') (A') (A') (A') (A') (A') (A') (A') (A') (A')
                 (A') (A") (A') (A') (A') (A") (A') (A")
       Virtual   (A") (A') (A") (A') (A') (A') (A') (A') (A') (A')
                 (A") (A') (A') (A") (A') (A') (A") (A') (A') (A')
                 (A') (A') (A") (A") (A') (A') (A') (A') (A") (A')
                 (A') (A") (A") (A') (A") (A') (A") (A') (A') (A')
                 (A') (A") (A') (A') (A") (A') (A') (A") (A') (A')
                 (A") (A') (A') (A") (A') (A') (A') (A") (A') (A')
                 (A') (A") (A') (A') (A") (A") (A') (A') (A') (A')
                 (A') (A") (A") (A') (A') (A") (A') (A') (A") (A')
                 (A') (A') (A") (A') (A") (A") (A') (A') (A") (A")
                 (A') (A') (A') (A") (A') (A") (A") (A') (A') (A')
                 (A") (A') (A") (A") (A') (A") (A') (A') (A') (A")
                 (A') (A") (A') (A') (A") (A') (A') (A') (A") (A')
                 (A") (A") (A') (A') (A') (A') (A") (A") (A") (A')
                 (A") (A") (A') (A') (A') (A') (A') (A') (A") (A')
                 (A') (A") (A') (A') (A') (A") (A') (A") (A') (A')
                 (A") (A") (A') (A') (A") (A') (A") (A") (A') (A')
                 (A') (A") (A') (A") (A") (A') (A") (A') (A') (A")
                 (A') (A') (A') (A') (A") (A') (A') (A') (A') (A')
                 (A') (A') (A') (A') (A') (A') (A') (A')
 Requested convergence on RMS density matrix=1.00D-08 within 128 cycles.
 Requested convergence on MAX density matrix=1.00D-06.
 Requested convergence on             energy=1.00D-06.
 No special actions if energy rises.
 SCF Done:  E(RS-VWN) =  -225.068662904     A.U. after    8 cycles
             Convg  =    0.4632D-08             -V/T =  2.0107
             S**2   =   0.0000
 Calling FoFCou, ICntrl=  2527 FMM=F ISym2X=1 I1Cent= 0 ISCF1= 0.
 ***** Axes restored to original set *****
 -------------------------------------------------------------------
 Center     Atomic                   Forces (Hartrees/Bohr)
 Number     Number              X              Y              Z
 -------------------------------------------------------------------
    1          7          -0.000117401    0.000056504    0.000000000
    2          1          -0.000014040   -0.000244815    0.000000000
    3          6           0.000423838    0.000031878    0.000000000
    4          1          -0.000083522   -0.000052085    0.000000000
    5          6          -0.000255050    0.000021627    0.000000000
    6          1           0.000010443    0.000158278    0.000000000
    7          1           0.000102303   -0.000119359    0.000000000
    8          6           0.000086907    0.000002980    0.000000000
    9          7          -0.000153477    0.000144992    0.000000000
 -------------------------------------------------------------------
 Cartesian Forces:  Max     0.000423838 RMS     0.000126927

 GradGradGradGradGradGradGradGradGradGradGradGradGradGradGradGradGradGrad
 Berny optimization.
 Internal  Forces:  Max     0.000244650 RMS     0.000086347
 Search for a local minimum.
 Step number   4 out of a maximum of  48
 All quantities printed in internal units (Hartrees-Bohrs-Radians)
 Update second derivatives using D2CorX and points  1  2  3  4
 Trust test= 9.92D-01 RLast= 8.25D-03 DXMaxT set to 3.00D-01
     Eigenvalues ---    0.02200   0.02339   0.02380   0.02552   0.02602
     Eigenvalues ---    0.02707   0.14283   0.16000   0.16029   0.16052
     Eigenvalues ---    0.20580   0.25281   0.36357   0.37395   0.37532
     Eigenvalues ---    0.38774   0.45646   0.48740   0.49953   0.54850
     Eigenvalues ---    0.654851000.000001000.000001000.000001000.00000
     Eigenvalues --- 1000.000001000.000001000.000001000.000001000.00000
     Eigenvalues --- 1000.000001000.000001000.000001000.000001000.00000
     Eigenvalues --- 1000.000001000.000001000.00000
 RFO step:  Lambda=-8.92926780D-07.
 Quartic linear search produced a step of -0.00579.
 Iteration  1 RMS(Cart)=  0.00033764 RMS(Int)=  0.00000007
 Iteration  2 RMS(Cart)=  0.00000008 RMS(Int)=  0.00000002
 Variable       Old X    -DE/DX   Delta X   Delta X   Delta X     New X
                                 (Linear)    (Quad)   (Total)
    R1        2.57100  -0.00004   0.00003  -0.00024  -0.00021   2.57078
    R2        2.47201  -0.00018  -0.00002  -0.00017  -0.00019   2.47182
    R3        1.91896  -0.00024   0.00000  -0.00049  -0.00049   1.91847
    R4        2.05070  -0.00010   0.00001  -0.00028  -0.00027   2.05043
    R5        2.58337  -0.00001  -0.00001   0.00011   0.00010   2.58346
    R6        2.57606   0.00007   0.00001   0.00015   0.00017   2.57623
    R7        2.05482  -0.00013   0.00000  -0.00033  -0.00033   2.05449
    R8        2.05602  -0.00014   0.00001  -0.00039  -0.00039   2.05564
    R9        2.55922  -0.00005   0.00001  -0.00014  -0.00013   2.55909
    A1        1.84505  -0.00009  -0.00001  -0.00040  -0.00041   1.84464
    A2        2.31424   0.00007   0.00000   0.00018   0.00018   2.31442
    A3        2.13553   0.00011   0.00000   0.00046   0.00046   2.13599
    A4        1.83342  -0.00018   0.00000  -0.00064  -0.00064   1.83278
    A5        1.92785   0.00016   0.00001   0.00064   0.00064   1.92849
    A6        2.12388   0.00001  -0.00001   0.00032   0.00031   2.12419
    A7        2.23145  -0.00017   0.00001  -0.00096  -0.00095   2.23050
    A8        2.20278  -0.00011   0.00000  -0.00057  -0.00057   2.20221
    A9        1.94073   0.00008   0.00001   0.00019   0.00021   1.94093
   A10        2.13968   0.00004  -0.00001   0.00037   0.00037   2.14004
   A11        2.19770  -0.00001   0.00000  -0.00003  -0.00002   2.19768
   A12        2.20776  -0.00003   0.00000  -0.00019  -0.00019   2.20757
   A13        1.87773   0.00004  -0.00001   0.00021   0.00021   1.87794
    D1        0.00000   0.00000   0.00000   0.00000   0.00000   0.00000
    D2        3.14159   0.00000   0.00000   0.00000   0.00000   3.14159
    D3        3.14159   0.00000   0.00000   0.00000   0.00000   3.14159
    D4        0.00000   0.00000   0.00000   0.00000   0.00000   0.00000
    D5        3.14159   0.00000   0.00000   0.00000   0.00000   3.14159
    D6        0.00000   0.00000   0.00000   0.00000   0.00000   0.00000
    D7        0.00000   0.00000   0.00000   0.00000   0.00000   0.00000
    D8        3.14159   0.00000   0.00000   0.00000   0.00000   3.14159
    D9        0.00000   0.00000   0.00000   0.00000   0.00000   0.00000
   D10        3.14159   0.00000   0.00000   0.00000   0.00000   3.14159
   D11        3.14159   0.00000   0.00000   0.00000   0.00000   3.14159
   D12        0.00000   0.00000   0.00000   0.00000   0.00000   0.00000
   D13        3.14159   0.00000   0.00000   0.00000   0.00000   3.14159
   D14        0.00000   0.00000   0.00000   0.00000   0.00000   0.00000
   D15        0.00000   0.00000   0.00000   0.00000   0.00000   0.00000
   D16        3.14159   0.00000   0.00000   0.00000   0.00000   3.14159
         Item               Value     Threshold  Converged?
 Maximum Force            0.000245     0.000450     YES
 RMS     Force            0.000086     0.000300     YES
 Maximum Displacement     0.001240     0.001800     YES
 RMS     Displacement     0.000338     0.001200     YES
 Predicted change in Energy=-4.467687D-07
 Optimization completed.
    -- Stationary point found.
                           ----------------------------
                           !   Optimized Parameters   !
                           ! (Angstroms and Degrees)  !
 --------------------------                            --------------------------
 ! Name  Definition              Value          Derivative Info.                !
 --------------------------------------------------------------------------------
 ! R1    R(1,5)                  1.3605         -DE/DX =    0.0                 !
 ! R2    R(1,8)                  1.3081         -DE/DX =   -0.0002              !
 ! R3    R(2,9)                  1.0155         -DE/DX =   -0.0002              !
 ! R4    R(3,4)                  1.0852         -DE/DX =   -0.0001              !
 ! R5    R(3,5)                  1.3671         -DE/DX =    0.0                 !
 ! R6    R(3,9)                  1.3632         -DE/DX =    0.0001              !
 ! R7    R(5,6)                  1.0874         -DE/DX =   -0.0001              !
 ! R8    R(7,8)                  1.088          -DE/DX =   -0.0001              !
 ! R9    R(8,9)                  1.3543         -DE/DX =    0.0                 !
 ! A1    A(5,1,8)              105.7133         -DE/DX =   -0.0001              !
 ! A2    A(4,3,5)              132.596          -DE/DX =    0.0001              !
 ! A3    A(4,3,9)              122.3567         -DE/DX =    0.0001              !
 ! A4    A(5,3,9)              105.0473         -DE/DX =   -0.0002              !
 ! A5    A(1,5,3)              110.4578         -DE/DX =    0.0002              !
 ! A6    A(1,5,6)              121.6894         -DE/DX =    0.0                 !
 ! A7    A(3,5,6)              127.8529         -DE/DX =   -0.0002              !
 ! A8    A(1,8,7)              126.2101         -DE/DX =   -0.0001              !
 ! A9    A(1,8,9)              111.1955         -DE/DX =    0.0001              !
 ! A10   A(7,8,9)              122.5944         -DE/DX =    0.0                 !
 ! A11   A(2,9,3)              125.9188         -DE/DX =    0.0                 !
 ! A12   A(2,9,8)              126.4951         -DE/DX =    0.0                 !
 ! A13   A(3,9,8)              107.5861         -DE/DX =    0.0                 !
 ! D1    D(8,1,5,3)              0.0            -DE/DX =    0.0                 !
 ! D2    D(8,1,5,6)            180.0            -DE/DX =    0.0                 !
 ! D3    D(5,1,8,7)            180.0            -DE/DX =    0.0                 !
 ! D4    D(5,1,8,9)              0.0            -DE/DX =    0.0                 !
 ! D5    D(4,3,5,1)            180.0            -DE/DX =    0.0                 !
 ! D6    D(4,3,5,6)              0.0            -DE/DX =    0.0                 !
 ! D7    D(9,3,5,1)              0.0            -DE/DX =    0.0                 !
 ! D8    D(9,3,5,6)            180.0            -DE/DX =    0.0                 !
 ! D9    D(4,3,9,2)              0.0            -DE/DX =    0.0                 !
 ! D10   D(4,3,9,8)            180.0            -DE/DX =    0.0                 !
 ! D11   D(5,3,9,2)            180.0            -DE/DX =    0.0                 !
 ! D12   D(5,3,9,8)              0.0            -DE/DX =    0.0                 !
 ! D13   D(1,8,9,2)            180.0            -DE/DX =    0.0                 !
 ! D14   D(1,8,9,3)              0.0            -DE/DX =    0.0                 !
 ! D15   D(7,8,9,2)              0.0            -DE/DX =    0.0                 !
 ! D16   D(7,8,9,3)            180.0            -DE/DX =    0.0                 !
 --------------------------------------------------------------------------------
 GradGradGradGradGradGradGradGradGradGradGradGradGradGradGradGradGradGrad

                          Input orientation:                          
 ---------------------------------------------------------------------
 Center     Atomic     Atomic              Coordinates (Angstroms)
 Number     Number      Type              X           Y           Z
 ---------------------------------------------------------------------
    1          7             0       -0.735343   -0.979513    0.000000
    2          1             0       -0.001310    2.105465    0.000000
    3          6             0        1.108264    0.293709    0.000000
    4          1             0        2.115129    0.698490    0.000000
    5          6             0        0.625159   -0.985142    0.000000
    6          1             0        1.192533   -1.912743    0.000000
    7          1             0       -2.101940    0.666365    0.000000
    8          6             0       -1.084403    0.281184    0.000000
    9          7             0        0.001822    1.090000    0.000000
 ---------------------------------------------------------------------
                    Distance matrix (angstroms):
                    1          2          3          4          5
     1  N    0.000000
     2  H    3.171104   0.000000
     3  C    2.240531   2.124527   0.000000
     4  H    3.307701   2.541435   1.085184   0.000000
     5  C    1.360514   3.153461   1.367059   2.248250   0.000000
     6  H    2.141874   4.191809   2.208061   2.769426   1.087362
     7  H    2.139276   2.546302   3.231761   4.217191   3.188188
     8  C    1.308129   2.121578   2.192703   3.226631   2.127483
     9  N    2.196884   1.015470   1.363192   2.149266   2.166741
                    6          7          8          9
     6  H    0.000000
     7  H    4.183939   0.000000
     8  C    3.161923   1.088000   0.000000
     9  N    3.230211   2.145992   1.354279   0.000000
 Stoichiometry    C3H4N2
 Framework group  CS[SG(C3H4N2)]
 Deg. of freedom    15
 Full point group                 CS
 Largest Abelian subgroup         CS      NOp   2
 Largest concise Abelian subgroup C1      NOp   1
                         Standard orientation:                         
 ---------------------------------------------------------------------
 Center     Atomic     Atomic              Coordinates (Angstroms)
 Number     Number      Type              X           Y           Z
 ---------------------------------------------------------------------
    1          7             0       -0.731816   -0.977782    0.000000
    2          1             0       -0.005756    2.109083    0.000000
    3          6             0        1.108495    0.300199    0.000000
    4          1             0        2.114311    0.707580    0.000000
    5          6             0        0.628696   -0.979896    0.000000
    6          1             0        1.198465   -1.906028    0.000000
    7          1             0       -2.102660    0.664560    0.000000
    8          6             0       -1.084132    0.282009    0.000000
    9          7             0        0.000000    1.093629    0.000000
 ---------------------------------------------------------------------
 Rotational constants (GHZ):      9.8778562      9.5231160      4.8486215

 **********************************************************************

            Population analysis using the SCF density.

 **********************************************************************

 Orbital symmetries:
       Occupied  (A') (A') (A') (A') (A') (A') (A') (A') (A') (A')
                 (A') (A") (A') (A') (A') (A") (A') (A")
       Virtual   (A") (A') (A") (A') (A') (A') (A') (A') (A') (A')
                 (A") (A') (A') (A") (A') (A') (A") (A') (A') (A')
                 (A') (A') (A") (A") (A') (A') (A') (A') (A") (A')
                 (A') (A") (A") (A') (A") (A') (A") (A') (A') (A')
                 (A') (A") (A') (A') (A") (A') (A') (A") (A') (A')
                 (A") (A') (A') (A") (A') (A') (A') (A") (A') (A')
                 (A') (A") (A') (A') (A") (A") (A') (A') (A') (A')
                 (A') (A") (A") (A') (A') (A") (A') (A') (A") (A')
                 (A') (A") (A') (A') (A") (A") (A') (A') (A") (A")
                 (A') (A') (A') (A") (A') (A") (A") (A') (A') (A')
                 (A") (A') (A") (A") (A') (A") (A') (A') (A') (A")
                 (A') (A") (A') (A') (A") (A') (A') (A') (A") (A')
                 (A") (A") (A') (A') (A') (A') (A") (A") (A") (A')
                 (A") (A") (A') (A') (A') (A') (A') (A') (A") (A')
                 (A') (A") (A') (A') (A") (A') (A') (A") (A') (A')
                 (A") (A") (A') (A') (A") (A') (A") (A") (A') (A')
                 (A') (A") (A') (A") (A") (A') (A") (A') (A') (A")
                 (A') (A') (A') (A') (A") (A') (A') (A') (A') (A')
                 (A') (A') (A') (A') (A') (A') (A') (A')
 The electronic state is 1-A'.
 Alpha  occ. eigenvalues --  -13.94346 -13.86025  -9.85062  -9.83067  -9.81262
 Alpha  occ. eigenvalues --   -0.95703  -0.81376  -0.69295  -0.58000  -0.55703
 Alpha  occ. eigenvalues --   -0.52897  -0.41849  -0.41720  -0.41123  -0.38073
 Alpha  occ. eigenvalues --   -0.28048  -0.24477  -0.23142
 Alpha virt. eigenvalues --   -0.03500  -0.01260   0.00042   0.04093   0.04639
 Alpha virt. eigenvalues --    0.06638   0.11521   0.13372   0.14546   0.17207
 Alpha virt. eigenvalues --    0.22286   0.23033   0.25750   0.27936   0.28321
 Alpha virt. eigenvalues --    0.29996   0.31401   0.32877   0.35984   0.39059
 Alpha virt. eigenvalues --    0.41335   0.42294   0.43306   0.46008   0.46109
 Alpha virt. eigenvalues --    0.47154   0.49419   0.51685   0.52905   0.54262
 Alpha virt. eigenvalues --    0.58886   0.64035   0.65587   0.68060   0.68396
 Alpha virt. eigenvalues --    0.69318   0.75639   0.76785   0.81505   0.86298
 Alpha virt. eigenvalues --    0.89165   0.91557   0.91702   0.93399   0.95358
 Alpha virt. eigenvalues --    0.95867   1.05581   1.07227   1.08061   1.11570
 Alpha virt. eigenvalues --    1.15070   1.17450   1.19756   1.20739   1.25460
 Alpha virt. eigenvalues --    1.27544   1.30055   1.33528   1.36651   1.39557
 Alpha virt. eigenvalues --    1.42688   1.47744   1.48862   1.55291   1.55509
 Alpha virt. eigenvalues --    1.60932   1.68593   1.72525   1.79718   1.84134
 Alpha virt. eigenvalues --    1.92557   1.93714   1.99246   2.00393   2.10913
 Alpha virt. eigenvalues --    2.13938   2.19007   2.30979   2.36538   2.41354
 Alpha virt. eigenvalues --    2.42062   2.47448   2.47503   2.53662   2.57191
 Alpha virt. eigenvalues --    2.60505   2.60534   2.69520   2.73601   2.75357
 Alpha virt. eigenvalues --    2.75834   2.78338   2.81415   2.82381   2.84771
 Alpha virt. eigenvalues --    2.86734   2.89541   2.89596   2.92235   2.93524
 Alpha virt. eigenvalues --    2.94657   2.97995   2.98752   3.03278   3.03289
 Alpha virt. eigenvalues --    3.06078   3.09877   3.13191   3.15332   3.17680
 Alpha virt. eigenvalues --    3.22368   3.22452   3.25719   3.30105   3.31259
 Alpha virt. eigenvalues --    3.33627   3.39011   3.45377   3.45932   3.49495
 Alpha virt. eigenvalues --    3.51983   3.53700   3.55976   3.60538   3.64538
 Alpha virt. eigenvalues --    3.68056   3.68756   3.71281   3.73866   3.77882
 Alpha virt. eigenvalues --    3.82480   3.85338   3.87825   3.90873   3.94864
 Alpha virt. eigenvalues --    3.96981   4.04679   4.06885   4.13418   4.14037
 Alpha virt. eigenvalues --    4.20534   4.26431   4.26832   4.32814   4.36713
 Alpha virt. eigenvalues --    4.36850   4.43269   4.55504   4.55749   4.57450
 Alpha virt. eigenvalues --    4.59476   4.65049   4.65434   4.68535   4.74710
 Alpha virt. eigenvalues --    4.75612   4.82005   4.84088   4.88248   4.92434
 Alpha virt. eigenvalues --    4.93578   4.94238   5.00257   5.01558   5.06247
 Alpha virt. eigenvalues --    5.12758   5.20863   5.21897   5.29886   5.35203
 Alpha virt. eigenvalues --    5.43353   5.47382   5.51320   5.61999   5.68142
 Alpha virt. eigenvalues --    5.81822   5.85971   5.97570   6.04943   6.05749
 Alpha virt. eigenvalues --    6.22162   6.72366   6.80044   9.10129  11.25828
 Alpha virt. eigenvalues --   12.22479  13.36104  13.71736
          Condensed to atoms (all electrons):
              1          2          3          4          5          6
     1  N    6.256437   0.009046  -0.121212   0.007654   0.563027  -0.027258
     2  H    0.009046   0.516297  -0.028449  -0.000408   0.006769  -0.000347
     3  C   -0.121212  -0.028449   5.043029   0.397890   0.575402  -0.052179
     4  H    0.007654  -0.000408   0.397890   0.518259  -0.022031  -0.001304
     5  C    0.563027   0.006769   0.575402  -0.022031   4.841399   0.422445
     6  H   -0.027258  -0.000347  -0.052179  -0.001304   0.422445   0.523387
     7  H   -0.024427  -0.001034   0.006075  -0.000177   0.006968  -0.000267
     8  C    0.631161  -0.028615  -0.125840   0.006381  -0.156451   0.009388
     9  N   -0.123883   0.366784   0.441506  -0.034570  -0.098116   0.003511
              7          8          9
     1  N   -0.024427   0.631161  -0.123883
     2  H   -0.001034  -0.028615   0.366784
     3  C    0.006075  -0.125840   0.441506
     4  H   -0.000177   0.006381  -0.034570
     5  C    0.006968  -0.156451  -0.098116
     6  H   -0.000267   0.009388   0.003511
     7  H    0.514143   0.415144  -0.043514
     8  C    0.415144   4.825562   0.487141
     9  N   -0.043514   0.487141   6.029066
 Mulliken atomic charges:
              1
     1  N   -0.170545
     2  H    0.159957
     3  C   -0.136222
     4  H    0.128307
     5  C   -0.139412
     6  H    0.122624
     7  H    0.127089
     8  C   -0.063872
     9  N   -0.027925
 Sum of Mulliken charges=   0.00000
 Atomic charges with hydrogens summed into heavy atoms:
              1
     1  N   -0.170545
     2  H    0.000000
     3  C   -0.007916
     4  H    0.000000
     5  C   -0.016788
     6  H    0.000000
     7  H    0.000000
     8  C    0.063217
     9  N    0.132032
 Sum of Mulliken charges=   0.00000
 Electronic spatial extent (au):  <R**2>=   282.9579
 Charge=     0.0000 electrons
 Dipole moment (field-independent basis, Debye):
    X=     1.1073    Y=     3.5610    Z=     0.0000  Tot=     3.7292
 Quadrupole moment (field-independent basis, Debye-Ang):
   XX=   -26.7378   YY=   -25.5099   ZZ=   -31.7903
   XY=    -3.1633   XZ=     0.0000   YZ=     0.0000
 Traceless Quadrupole moment (field-independent basis, Debye-Ang):
   XX=     1.2749   YY=     2.5028   ZZ=    -3.7777
   XY=    -3.1633   XZ=     0.0000   YZ=     0.0000
 Octapole moment (field-independent basis, Debye-Ang**2):
  XXX=     0.0390  YYY=    16.0388  ZZZ=     0.0000  XYY=     5.4225
  XXY=     6.1787  XXZ=     0.0000  XZZ=    -1.0605  YZZ=     1.1845
  YYZ=     0.0000  XYZ=     0.0000
 Hexadecapole moment (field-independent basis, Debye-Ang**3):
 XXXX=  -157.7888 YYYY=  -140.2274 ZZZZ=   -33.6775 XXXY=    -2.5638
 XXXZ=     0.0000 YYYX=    -9.0246 YYYZ=     0.0000 ZZZX=     0.0000
 ZZZY=     0.0000 XXYY=   -57.8365 XXZZ=   -39.5222 YYZZ=   -36.3472
 XXYZ=     0.0000 YYXZ=     0.0000 ZZXY=     0.7870
 N-N= 1.641566816554D+02 E-N=-8.526302612005D+02  KE= 2.226952176742D+02
 Symmetry A'   KE= 2.144194034773D+02
 Symmetry A"   KE= 8.275814196928D+00
 1\1\GINC-P1928\FOpt\RSVWN\CC-pVTZ\C3H4N2\RDJ3\07-Mar-2008\0\\#LSDA/cc-
 pVTZ opt freq\\1himidaz 1H-Imidazole casno=288324 method=51 basis=6 co
 nfig=1\\0,1\N,-0.7353431369,-0.9795134557,0.\H,-0.0013099031,2.1054651
 02,0.\C,1.1082638674,0.2937086521,0.\H,2.1151288001,0.6984897413,0.\C,
 0.6251590105,-0.9851421244,0.\H,1.1925329456,-1.9127433104,0.\H,-2.101
 9395594,0.6663649984,0.\C,-1.0844034132,0.2811840459,0.\N,0.001822389,
 1.0900003509,0.\\Version=AM64L-G03RevD.01\State=1-A'\HF=-225.0686629\R
 MSD=4.632e-09\RMSF=1.269e-04\Thermal=0.\Dipole=0.4392769,1.3998632,0.\
 PG=CS [SG(C3H4N2)]\\@


 There ain't no surer way to find out whether you
 like people or hate them than to travel with them.
                                     -- Mark Twain
 Job cpu time:  0 days  0 hours 15 minutes  8.3 seconds.
 File lengths (MBytes):  RWF=     37 Int=      0 D2E=      0 Chk=      8 Scr=      1
 Normal termination of Gaussian 03 at Fri Mar  7 20:39:01 2008.
 Link1:  Proceeding to internal job step number  2.
 ----------------------------------------------------------------
 #N Geom=AllCheck Guess=Read SCRF=Check GenChk RSVWN/CC-pVTZ Freq
 ----------------------------------------------------------------
 1/10=4,29=7,30=1,38=1,40=1,46=1/1,3;
 2/40=1/2;
 3/5=16,6=1,11=2,16=1,25=1,30=1,70=2,71=2,74=205/1,2,3;
 4/5=1,7=1/1;
 5/5=2,38=6/2;
 8/6=4,10=90,11=11/1;
 11/6=1,8=1,9=11,15=111,16=1/1,2,10;
 10/6=1/2;
 6/7=2,8=2,9=2,10=2,18=1,28=1/1;
 7/8=1,10=1,25=1/1,2,3,16;
 1/10=4,30=1,46=1/3;
 99//99;
 -------------------------------------------------------------
 1himidaz 1H-Imidazole casno=288324 method=51 basis=6 config=1
 -------------------------------------------------------------
 Redundant internal coordinates taken from checkpoint file:
 /gaussian/Gau-22013.chk
 Charge =  0 Multiplicity = 1
 N,0,-0.7353431369,-0.9795134557,0.
 H,0,-0.0013099031,2.105465102,0.
[...]
   9   7    -0.02   0.05   0.00     0.04   0.10   0.00    -0.36   0.01   0.00
                    16                     17                     18
                    A'                     A'                     A'
 Frequencies --  1482.3824              1525.5956              3165.1684
 Red. masses --     4.1009                 3.8639                 1.0937
 Frc consts  --     5.3095                 5.2985                 6.4559
 IR Inten    --    13.8781                12.4456                 2.1425
 Atom AN      X      Y      Z        X      Y      Z        X      Y      Z
   1   7     0.00  -0.16   0.00    -0.03   0.20   0.00     0.00   0.00   0.00
   2   1     0.07  -0.15   0.00     0.54   0.00   0.00     0.00  -0.01   0.00
   3   6    -0.03   0.30   0.00     0.11   0.22   0.00    -0.02   0.00   0.00
   4   1     0.31  -0.50   0.00     0.32  -0.16   0.00     0.20   0.08   0.00
   5   6     0.00  -0.17   0.00    -0.14  -0.24   0.00     0.04  -0.06   0.00
   6   1     0.04  -0.20   0.00     0.47   0.09   0.00    -0.43   0.71   0.00
   7   1    -0.27  -0.49   0.00     0.26   0.20   0.00    -0.47   0.17   0.00
   8   6     0.03   0.33   0.00     0.07  -0.23   0.00     0.04  -0.01   0.00
   9   7    -0.02  -0.14   0.00    -0.12   0.00   0.00     0.00   0.00   0.00
                    19                     20                     21
                    A'                     A'                     A'
 Frequencies --  3168.2366              3200.1508              3557.4264
 Red. masses --     1.0979                 1.1047                 1.0815
 Frc consts  --     6.4931                 6.6658                 8.0638
 IR Inten    --     1.4457                 0.0623                53.1780
 Atom AN      X      Y      Z        X      Y      Z        X      Y      Z
   1   7     0.00   0.00   0.00     0.00   0.00   0.00     0.00   0.00   0.00
   2   1    -0.01   0.01   0.00     0.00  -0.02   0.00    -0.01   1.00   0.00
   3   6    -0.01  -0.01   0.00    -0.08  -0.03   0.00     0.00   0.00   0.00
   4   1     0.19   0.07   0.00     0.88   0.36   0.00     0.01   0.00   0.00
   5   6     0.02  -0.04   0.00    -0.01   0.03   0.00     0.00   0.00   0.00
   6   1    -0.24   0.40   0.00     0.14  -0.25   0.00     0.00   0.00   0.00
   7   1     0.80  -0.30   0.00    -0.06   0.02   0.00    -0.01   0.00   0.00
   8   6    -0.07   0.03   0.00     0.01   0.00   0.00     0.00   0.00   0.00
   9   7     0.00   0.00   0.00     0.00   0.00   0.00     0.00  -0.08   0.00

 -------------------
 - Thermochemistry -
 -------------------
 Temperature   298.150 Kelvin.  Pressure   1.00000 Atm.
 Atom  1 has atomic number  7 and mass  14.00307
 Atom  2 has atomic number  1 and mass   1.00783
 Atom  3 has atomic number  6 and mass  12.00000
 Atom  4 has atomic number  1 and mass   1.00783
 Atom  5 has atomic number  6 and mass  12.00000
 Atom  6 has atomic number  1 and mass   1.00783
 Atom  7 has atomic number  1 and mass   1.00783
 Atom  8 has atomic number  6 and mass  12.00000
 Atom  9 has atomic number  7 and mass  14.00307
 Molecular mass:    68.03745 amu.
 Principal axes and moments of inertia in atomic units:
                           1         2         3
     EIGENVALUES --   182.70576 189.51163 372.21739
           X            0.40754   0.91319   0.00000
           Y            0.91319  -0.40754   0.00000
           Z            0.00000   0.00000   1.00000
 This molecule is an asymmetric top.
 Rotational symmetry number  1.
 Rotational temperatures (Kelvin)      0.47406     0.45704     0.23270
 Rotational constants (GHZ):           9.87786     9.52312     4.84862
 Zero-point vibrational energy     183034.0 (Joules/Mol)
                                   43.74618 (Kcal/Mol)
 Warning -- explicit consideration of   1 degrees of freedom as
           vibrations may cause significant error
 Vibrational temperatures:    806.35   927.15   976.57  1022.05  1126.15
          (Kelvin)           1221.48  1271.06  1333.00  1516.45  1548.89
                             1602.96  1719.01  1780.02  1967.61  2046.27
                             2132.82  2194.99  4553.97  4558.38  4604.30
                             5118.34
 
 Zero-point correction=                           0.069714 (Hartree/Particle)
 Thermal correction to Energy=                    0.073489
 Thermal correction to Enthalpy=                  0.074434
 Thermal correction to Gibbs Free Energy=         0.043466
 Sum of electronic and zero-point Energies=           -224.998949
 Sum of electronic and thermal Energies=              -224.995174
 Sum of electronic and thermal Enthalpies=            -224.994229
 Sum of electronic and thermal Free Energies=         -225.025197
 
                     E (Thermal)             CV                S
                      KCal/Mol        Cal/Mol-Kelvin    Cal/Mol-Kelvin
 Total                   46.115             13.584             65.177
 Electronic               0.000              0.000              0.000
 Translational            0.889              2.981             38.570
 Rotational               0.889              2.981             24.070
 Vibrational             44.338              7.622              2.537
 Vibration  1             0.916              1.117              0.523
                       Q            Log10(Q)             Ln(Q)
 Total Bot       0.101644D-19        -19.992918        -46.035396
 Total V=0       0.118364D+13         12.073218         27.799612
 Vib (Bot)       0.113388D-31        -31.945434        -73.557081
 Vib (Bot)  1    0.277200D+00         -0.557207         -1.283018
 Vib (V=0)       0.132039D+01          0.120702          0.277927
 Vib (V=0)  1    0.107170D+01          0.030073          0.069245
 Electronic      0.100000D+01          0.000000          0.000000
 Translational   0.220586D+08          7.343577         16.909211
 Rotational      0.406386D+05          4.608939         10.612474
 ***** Axes restored to original set *****
 -------------------------------------------------------------------
 Center     Atomic                   Forces (Hartrees/Bohr)
 Number     Number              X              Y              Z
 -------------------------------------------------------------------
    1          7          -0.000117173    0.000057087    0.000000000
    2          1          -0.000014029   -0.000244630    0.000000000
    3          6           0.000423974    0.000031725    0.000000000
    4          1          -0.000083468   -0.000052043    0.000000000
    5          6          -0.000255431    0.000021587    0.000000000
    6          1           0.000010466    0.000158298    0.000000000
    7          1           0.000102360   -0.000119334    0.000000000
    8          6           0.000086771    0.000002254    0.000000000
    9          7          -0.000153470    0.000145055    0.000000000
 -------------------------------------------------------------------
 Cartesian Forces:  Max     0.000423974 RMS     0.000126957

 GradGradGradGradGradGradGradGradGradGradGradGradGradGradGradGradGradGrad
 Berny optimization.
 Internal  Forces:  Max     0.000244464 RMS     0.000086369
 Search for a local minimum.
 Step number   1 out of a maximum of   2
 All quantities printed in internal units (Hartrees-Bohrs-Radians)
 Second derivative matrix not updated -- analytic derivatives used.
     Eigenvalues ---    0.00596   0.01057   0.01866   0.02534   0.05944
     Eigenvalues ---    0.06120   0.08860   0.09618   0.10040   0.10726
     Eigenvalues ---    0.22373   0.23916   0.34397   0.35200   0.35811
     Eigenvalues ---    0.36336   0.40201   0.44691   0.46005   0.46760
     Eigenvalues ---    0.578881000.000001000.000001000.000001000.00000
     Eigenvalues --- 1000.000001000.000001000.000001000.000001000.00000
     Eigenvalues --- 1000.000001000.000001000.000001000.000001000.00000
     Eigenvalues --- 1000.000001000.000001000.00000
 Angle between quadratic step and forces=  33.97 degrees.
 Linear search not attempted -- first point.
 Iteration  1 RMS(Cart)=  0.00040721 RMS(Int)=  0.00000013
 Iteration  2 RMS(Cart)=  0.00000015 RMS(Int)=  0.00000001
 Variable       Old X    -DE/DX   Delta X   Delta X   Delta X     New X
                                 (Linear)    (Quad)   (Total)
    R1        2.57100  -0.00004   0.00000  -0.00022  -0.00022   2.57078
    R2        2.47201  -0.00019   0.00000  -0.00020  -0.00020   2.47181
    R3        1.91896  -0.00024   0.00000  -0.00054  -0.00054   1.91842
    R4        2.05070  -0.00010   0.00000  -0.00032  -0.00032   2.05038
    R5        2.58337  -0.00001   0.00000   0.00006   0.00006   2.58343
    R6        2.57606   0.00007   0.00000   0.00039   0.00039   2.57645
    R7        2.05482  -0.00013   0.00000  -0.00032  -0.00032   2.05450
    R8        2.05602  -0.00014   0.00000  -0.00037  -0.00037   2.05565
    R9        2.55922  -0.00005   0.00000  -0.00029  -0.00029   2.55893
    A1        1.84505  -0.00009   0.00000  -0.00042  -0.00042   1.84463
    A2        2.31424   0.00007   0.00000   0.00015   0.00015   2.31439
    A3        2.13553   0.00011   0.00000   0.00049   0.00049   2.13601
    A4        1.83342  -0.00018   0.00000  -0.00064  -0.00064   1.83278
    A5        1.92785   0.00016   0.00000   0.00063   0.00063   1.92848
    A6        2.12388   0.00001   0.00000   0.00068   0.00068   2.12456
    A7        2.23145  -0.00017   0.00000  -0.00131  -0.00131   2.23014
    A8        2.20278  -0.00011   0.00000  -0.00081  -0.00081   2.20197
    A9        1.94073   0.00008   0.00000   0.00030   0.00030   1.94103
   A10        2.13968   0.00004   0.00000   0.00051   0.00051   2.14018
   A11        2.19770  -0.00001   0.00000   0.00017   0.00017   2.19787
   A12        2.20776  -0.00003   0.00000  -0.00030  -0.00030   2.20746
   A13        1.87773   0.00004   0.00000   0.00012   0.00012   1.87786
    D1        0.00000   0.00000   0.00000   0.00000   0.00000   0.00000
    D2        3.14159   0.00000   0.00000   0.00000   0.00000   3.14159
    D3        3.14159   0.00000   0.00000   0.00000   0.00000   3.14159
    D4        0.00000   0.00000   0.00000   0.00000   0.00000   0.00000
    D5        3.14159   0.00000   0.00000   0.00000   0.00000   3.14159
    D6        0.00000   0.00000   0.00000   0.00000   0.00000   0.00000
    D7        0.00000   0.00000   0.00000   0.00000   0.00000   0.00000
    D8        3.14159   0.00000   0.00000   0.00000   0.00000   3.14159
    D9        0.00000   0.00000   0.00000   0.00000   0.00000   0.00000
   D10        3.14159   0.00000   0.00000   0.00000   0.00000   3.14159
   D11        3.14159   0.00000   0.00000   0.00000   0.00000   3.14159
   D12        0.00000   0.00000   0.00000   0.00000   0.00000   0.00000
   D13        3.14159   0.00000   0.00000   0.00000   0.00000   3.14159
   D14        0.00000   0.00000   0.00000   0.00000   0.00000   0.00000
   D15        0.00000   0.00000   0.00000   0.00000   0.00000   0.00000
   D16        3.14159   0.00000   0.00000   0.00000   0.00000   3.14159
         Item               Value     Threshold  Converged?
 Maximum Force            0.000244     0.000450     YES
 RMS     Force            0.000086     0.000300     YES
 Maximum Displacement     0.001462     0.001800     YES
 RMS     Displacement     0.000407     0.001200     YES
 Predicted change in Energy=-5.186493D-07
 Optimization completed.
    -- Stationary point found.
                           ----------------------------
                           !   Optimized Parameters   !
                           ! (Angstroms and Degrees)  !
 --------------------------                            --------------------------
 ! Name  Definition              Value          Derivative Info.                !
 --------------------------------------------------------------------------------
 ! R1    R(1,5)                  1.3605         -DE/DX =    0.0                 !
 ! R2    R(1,8)                  1.3081         -DE/DX =   -0.0002              !
 ! R3    R(2,9)                  1.0155         -DE/DX =   -0.0002              !
 ! R4    R(3,4)                  1.0852         -DE/DX =   -0.0001              !
 ! R5    R(3,5)                  1.3671         -DE/DX =    0.0                 !
 ! R6    R(3,9)                  1.3632         -DE/DX =    0.0001              !
 ! R7    R(5,6)                  1.0874         -DE/DX =   -0.0001              !
 ! R8    R(7,8)                  1.088          -DE/DX =   -0.0001              !
 ! R9    R(8,9)                  1.3543         -DE/DX =    0.0                 !
 ! A1    A(5,1,8)              105.7133         -DE/DX =   -0.0001              !
 ! A2    A(4,3,5)              132.596          -DE/DX =    0.0001              !
 ! A3    A(4,3,9)              122.3567         -DE/DX =    0.0001              !
 ! A4    A(5,3,9)              105.0473         -DE/DX =   -0.0002              !
 ! A5    A(1,5,3)              110.4578         -DE/DX =    0.0002              !
 ! A6    A(1,5,6)              121.6894         -DE/DX =    0.0                 !
 ! A7    A(3,5,6)              127.8529         -DE/DX =   -0.0002              !
 ! A8    A(1,8,7)              126.2101         -DE/DX =   -0.0001              !
 ! A9    A(1,8,9)              111.1955         -DE/DX =    0.0001              !
 ! A10   A(7,8,9)              122.5944         -DE/DX =    0.0                 !
 ! A11   A(2,9,3)              125.9188         -DE/DX =    0.0                 !
 ! A12   A(2,9,8)              126.4951         -DE/DX =    0.0                 !
 ! A13   A(3,9,8)              107.5861         -DE/DX =    0.0                 !
 ! D1    D(8,1,5,3)              0.0            -DE/DX =    0.0                 !
 ! D2    D(8,1,5,6)            180.0            -DE/DX =    0.0                 !
 ! D3    D(5,1,8,7)            180.0            -DE/DX =    0.0                 !
 ! D4    D(5,1,8,9)              0.0            -DE/DX =    0.0                 !
 ! D5    D(4,3,5,1)            180.0            -DE/DX =    0.0                 !
 ! D6    D(4,3,5,6)              0.0            -DE/DX =    0.0                 !
 ! D7    D(9,3,5,1)              0.0            -DE/DX =    0.0                 !
 ! D8    D(9,3,5,6)            180.0            -DE/DX =    0.0                 !
 ! D9    D(4,3,9,2)              0.0            -DE/DX =    0.0                 !
 ! D10   D(4,3,9,8)            180.0            -DE/DX =    0.0                 !
 ! D11   D(5,3,9,2)            180.0            -DE/DX =    0.0                 !
 ! D12   D(5,3,9,8)              0.0            -DE/DX =    0.0                 !
 ! D13   D(1,8,9,2)            180.0            -DE/DX =    0.0                 !
 ! D14   D(1,8,9,3)              0.0            -DE/DX =    0.0                 !
 ! D15   D(7,8,9,2)              0.0            -DE/DX =    0.0                 !
 ! D16   D(7,8,9,3)            180.0            -DE/DX =    0.0                 !
 --------------------------------------------------------------------------------
 GradGradGradGradGradGradGradGradGradGradGradGradGradGradGradGradGradGrad

 1\1\GINC-P1928\Freq\RSVWN\CC-pVTZ\C3H4N2\RDJ3\07-Mar-2008\0\\#N Geom=A
 llCheck Guess=Read SCRF=Check GenChk RSVWN/CC-pVTZ Freq\\1himidaz 1H-I
 midazole casno=288324 method=51 basis=6 config=1\\0,1\N,-0.7353431369,
 -0.9795134557,0.\H,-0.0013099031,2.105465102,0.\C,1.1082638674,0.29370
 86521,0.\H,2.1151288001,0.6984897413,0.\C,0.6251590105,-0.9851421244,0
 .\H,1.1925329456,-1.9127433104,0.\H,-2.1019395594,0.6663649984,0.\C,-1
 .0844034132,0.2811840459,0.\N,0.001822389,1.0900003509,0.\\Version=AM6
 4L-G03RevD.01\State=1-A'\HF=-225.0686629\RMSD=6.183e-09\RMSF=1.270e-04
 \ZeroPoint=0.069714\Thermal=0.0734894\Dipole=0.439273,1.3998575,0.\Dip
 oleDeriv=-0.4018236,-0.0938471,0.,-0.0840411,-0.5588845,0.,0.,0.,-0.29
 87535,0.1765812,-0.0118022,0.,-0.0120148,0.2014565,0.,0.,0.,0.3033401,
 -0.0933234,-0.171556,0.,0.0198851,0.1798542,0.,0.,0.,-0.1520397,0.0252
 559,-0.028903,0.,-0.0518138,0.0664618,0.,0.,0.,0.1883862,0.1336125,-0.
 0234304,0.,-0.0396321,0.1484776,0.,0.,0.,-0.1361588,0.0390251,0.049273
 ,0.,0.0751262,0.0290049,0.,0.,0.,0.1554276,0.0324197,0.0487453,0.,0.04
 15152,0.051726,0.,0.,0.,0.1638539,0.1089442,0.1753101,0.,0.1047834,0.4
 30669,0.,0.,0.,-0.0262308,-0.0206917,0.0562102,0.,-0.053808,-0.5487654
 ,0.,0.,0.,-0.197825\Polar=54.3040425,-1.0942678,51.6013294,0.,0.,27.33
 30532\PG=CS [SG(C3H4N2)]\NImag=0\\0.48562084,-0.04260185,0.58446814,0.
 ,0.,0.10427666,-0.00543090,-0.00716643,0.,0.05220322,-0.00227732,-0.00
 162281,0.,-0.00216876,0.44998560,0.,0.,0.00653201,0.,0.,0.01217183,-0.
 05550680,-0.00541221,0.,0.00997786,-0.00511969,0.,0.80343328,-0.076190
 59,-0.00096949,0.,0.02431712,-0.00640079,0.,0.12069993,0.65052181,0.,0
 .,0.01813112,0.,0.,-0.00620474,0.,0.,0.11044770,0.00038757,-0.00011419
 ,0.,0.00010689,-0.00001532,0.,-0.30030287,-0.09883281,0.,0.31612536,-0
 .00548783,-0.00426543,0.,-0.00100262,0.00036219,0.,-0.10906773,-0.0963
 9000,0.,0.10690787,0.08771944,0.,0.,0.00628854,0.,0.,-0.00134561,0.,0.
 ,-0.01993383,0.,0.,0.01733304,-0.28965329,0.00537363,0.,-0.00686802,-0
 .00033044,0.,-0.11791453,-0.07972918,0.,0.00019368,-0.01957225,0.,0.60
 193075,-0.00975912,-0.09054672,0.,0.00525086,-0.00050848,0.,-0.0934527
 4,-0.35209215,0.,0.00190772,0.00687148,0.,-0.10658033,0.82468975,0.,0.
 ,-0.07093330,0.,0.,0.00276552,0.,0.,-0.06744699,0.,0.,-0.00100828,0.,0
 .,0.13230144,-0.01541281,0.02443463,0.,0.00094061,-0.00017455,0.,0.009
 96599,-0.00924362,0.,-0.00028504,0.00067073,0.,-0.11915709,0.12094490,
 0.,0.13052552,0.00076810,0.00647092,0.,0.00079124,0.00002988,0.,0.0145
 4172,-0.00994477,0.,-0.00035332,-0.00009058,0.,0.12247437,-0.26612498,
 0.,-0.13439318,0.27116940,0.,0.,-0.00502228,0.,0.,0.00163227,0.,0.,0.0
 0015661,0.,0.,-0.00214671,0.,0.,-0.02742463,0.,0.,0.02163163,-0.000930
 48,0.00524716,0.,-0.00037685,-0.00010120,0.,-0.00023731,-0.00390715,0.
 ,-0.00027570,0.00057318,0.,0.00210234,0.00069015,0.,0.00003643,0.00000
 773,0.,0.31601235,0.02691505,-0.00830503,0.,0.00079853,0.00024619,0.,-
 0.00268366,-0.00389899,0.,-0.00057588,0.00094745,0.,0.00200531,-0.0045
 9899,0.,0.00119016,0.00030846,0.,-0.09830517,0.08785264,0.,0.,-0.00516
 961,0.,0.,-0.00134366,0.,0.,0.00282172,0.,0.,0.00158324,0.,0.,0.006489
 08,0.,0.,0.00102221,0.,0.,0.01901415,-0.10994456,0.06832371,0.,0.01418
 269,0.00676108,0.,-0.09855317,0.02492545,0.,-0.00140010,0.00334483,0.,
 -0.06865279,0.02860640,0.,-0.00595750,-0.00164099,0.,-0.29987938,0.092
 27023,0.,0.82479538,0.09691914,-0.38411390,0.,-0.02168724,-0.00893846,
 0.,-0.02382558,-0.00493394,0.,0.00210829,-0.00646984,0.,0.08362162,-0.
 03187208,0.,0.00072749,0.00172213,0.,0.08682711,-0.08302213,0.,-0.1248
 6883,0.67845865,0.,0.,-0.07646403,0.,0.,-0.00744292,0.,0.,0.01763764,0
 .,0.,0.00309190,0.,0.,0.01094492,0.,0.,0.00541917,0.,0.,-0.02247776,0.
 ,0.,0.13147274,-0.00912956,-0.04808446,0.,-0.06473550,0.00342620,0.,-0
 .25086245,0.09796084,0.,-0.01454978,0.02363382,0.,-0.00198103,0.052392
 15,0.,-0.00065610,-0.00219566,0.,-0.01645140,-0.02161457,0.,-0.2545905
 6,-0.09982200,0.,0.61295640,0.01171442,-0.10111568,0.,0.00086731,-0.43
 315330,0.,0.10431995,-0.17589169,0.,-0.01103235,0.01131529,0.,-0.00726
 273,-0.08581782,0.,-0.00415656,-0.00354045,0.,0.00896818,0.01047039,0.
 ,-0.09772189,-0.16083042,0.,-0.00569634,0.93856369,0.,0.,0.02236090,0.
 ,0.,-0.00676470,0.,0.,-0.05560921,0.,0.,-0.00386228,0.,0.,0.01431224,0
 .,0.,0.00473174,0.,0.,-0.00193937,0.,0.,-0.06218166,0.,0.,0.08895236\\
 0.00011717,-0.00005709,0.,0.00001403,0.00024463,0.,-0.00042397,-0.0000
 3172,0.,0.00008347,0.00005204,0.,0.00025543,-0.00002159,0.,-0.00001047
 ,-0.00015830,0.,-0.00010236,0.00011933,0.,-0.00008677,-0.00000225,0.,0
 .00015347,-0.00014506,0.\\\@


 KNOWLEDGE IS EXPERIMENT'S DAUGHTER.
 -- LEONARDO DA VINCI, IN "PENSIERI" CA. 1492
 Job cpu time:  0 days  0 hours 22 minutes 51.4 seconds.
 File lengths (MBytes):  RWF=     43 Int=      0 D2E=      0 Chk=      8 Scr=      1
 Normal termination of Gaussian 03 at Fri Mar  7 21:01:54 2008.
