 host = p1917 (kernel = 2.6.18-8.el5)
 Running revision D01, using 64-bit version

 Current disk usage on p1917
tmpfs                 3.9G     0  3.9G   0% /dev/shm

 START DATE Thu Mar  6 13:50:51 EST 2008
 Entering Gaussian System, Link 0=/usr/local/gaussian03-rev-D01-64/g03/g03
 Initial command:
 /usr/local/gaussian03-rev-D01-64/g03/l1.exe /gaussian/Gau-1457.inp -scrdir=/gaussian/
 Entering Link 1 = /usr/local/gaussian03-rev-D01-64/g03/l1.exe PID=      1461.
  
 Copyright (c) 1988,1990,1992,1993,1995,1998,2003,2004, Gaussian, Inc.
                  All Rights Reserved.
  
 This is the Gaussian(R) 03 program.  It is based on the
 the Gaussian(R) 98 system (copyright 1998, Gaussian, Inc.),
 the Gaussian(R) 94 system (copyright 1995, Gaussian, Inc.),
 the Gaussian 92(TM) system (copyright 1992, Gaussian, Inc.),
 the Gaussian 90(TM) system (copyright 1990, Gaussian, Inc.),
 the Gaussian 88(TM) system (copyright 1988, Gaussian, Inc.),
 the Gaussian 86(TM) system (copyright 1986, Carnegie Mellon
 University), and the Gaussian 82(TM) system (copyright 1983,
 Carnegie Mellon University). Gaussian is a federally registered
 trademark of Gaussian, Inc.
  
 This software contains proprietary and confidential information,
 including trade secrets, belonging to Gaussian, Inc.
  
 This software is provided under written license and may be
 used, copied, transmitted, or stored only in accord with that
 written license.
  
 The following legend is applicable only to US Government
 contracts under FAR:
  
                    RESTRICTED RIGHTS LEGEND
  
 Use, reproduction and disclosure by the US Government is
 subject to restrictions as set forth in subparagraphs (a)
 and (c) of the Commercial Computer Software - Restricted
 Rights clause in FAR 52.227-19.
  
 Gaussian, Inc.
 340 Quinnipiac St., Bldg. 40, Wallingford CT 06492
  
  
 ---------------------------------------------------------------
 Warning -- This program may not be used in any manner that
 competes with the business of Gaussian, Inc. or will provide
 assistance to any competitor of Gaussian, Inc.  The licensee
 of this program is prohibited from giving any competitor of
 Gaussian, Inc. access to this program.  By using this program,
 the user acknowledges that Gaussian, Inc. is engaged in the
 business of creating and licensing software in the field of
 computational chemistry and represents and warrants to the
 licensee that it is not a competitor of Gaussian, Inc. and that
 it will not use this program in any manner prohibited above.
 ---------------------------------------------------------------
  

 Cite this work as:
 Gaussian 03, Revision D.01,
 M. J. Frisch, G. W. Trucks, H. B. Schlegel, G. E. Scuseria, 
 M. A. Robb, J. R. Cheeseman, J. A. Montgomery, Jr., T. Vreven, 
 K. N. Kudin, J. C. Burant, J. M. Millam, S. S. Iyengar, J. Tomasi, 
 V. Barone, B. Mennucci, M. Cossi, G. Scalmani, N. Rega, 
 G. A. Petersson, H. Nakatsuji, M. Hada, M. Ehara, K. Toyota, 
 R. Fukuda, J. Hasegawa, M. Ishida, T. Nakajima, Y. Honda, O. Kitao, 
 H. Nakai, M. Klene, X. Li, J. E. Knox, H. P. Hratchian, J. B. Cross, 
 V. Bakken, C. Adamo, J. Jaramillo, R. Gomperts, R. E. Stratmann, 
 O. Yazyev, A. J. Austin, R. Cammi, C. Pomelli, J. W. Ochterski, 
 P. Y. Ayala, K. Morokuma, G. A. Voth, P. Salvador, J. J. Dannenberg, 
 V. G. Zakrzewski, S. Dapprich, A. D. Daniels, M. C. Strain, 
 O. Farkas, D. K. Malick, A. D. Rabuck, K. Raghavachari, 
 J. B. Foresman, J. V. Ortiz, Q. Cui, A. G. Baboul, S. Clifford, 
 J. Cioslowski, B. B. Stefanov, G. Liu, A. Liashenko, P. Piskorz, 
 I. Komaromi, R. L. Martin, D. J. Fox, T. Keith, M. A. Al-Laham, 
 C. Y. Peng, A. Nanayakkara, M. Challacombe, P. M. W. Gill, 
 B. Johnson, W. Chen, M. W. Wong, C. Gonzalez, and J. A. Pople, 
 Gaussian, Inc., Wallingford CT, 2004.
 
 ******************************************
 Gaussian 03:  AM64L-G03RevD.01 13-Oct-2005
                 6-Mar-2008 
 ******************************************
 %mem=24000000
 -----------------------
 #LSDA/6-31+G** opt freq
 -----------------------
 1/14=-1,18=20,26=3,38=1/1,3;
 2/9=110,17=6,18=5,40=1/2;
 3/5=1,6=6,7=111,11=2,16=1,25=1,30=1,74=205/1,2,3;
 4//1;
 5/5=2,38=5/2;
 6/7=2,8=2,9=2,10=2,28=1/1;
 7//1,2,3,16;
 1/14=-1,18=20/3(3);
 2/9=110/2;
 6/7=2,8=2,9=2,10=2,19=2,28=1/1;
 99//99;
 2/9=110/2;
 3/5=1,6=6,7=111,11=2,16=1,25=1,30=1,74=205/1,2,3;
 4/5=5,16=3/1;
 5/5=2,38=5/2;
 7//1,2,3,16;
 1/14=-1,18=20/3(-5);
 2/9=110/2;
 6/7=2,8=2,9=2,10=2,19=2,28=1/1;
 99/9=1/99;
 -------------------------------------------------------------
 1himidaz 1H-Imidazole casno=288324 method=51 basis=4 config=1
 -------------------------------------------------------------
 Symbolic Z-matrix:
 Charge =  0 Multiplicity = 1
 N                    -0.74106  -0.96596   0. 
 H                    -0.01273   2.08825   0. 
 C                     1.10986   0.28827   0. 
 H                     2.10334   0.68144   0. 
 C                     0.63018  -0.97392   0. 
 H                     1.18224  -1.89044   0. 
 H                    -2.07716   0.65597   0. 
 C                    -1.07476   0.2791    0. 
 N                     0.        1.09512   0. 
 

 GradGradGradGradGradGradGradGradGradGradGradGradGradGradGradGradGradGrad
 Berny optimization.
 Initialization pass.
                           ----------------------------
                           !    Initial Parameters    !
                           ! (Angstroms and Degrees)  !
 --------------------------                            --------------------------
 ! Name  Definition              Value          Derivative Info.                !
 --------------------------------------------------------------------------------
 ! R1    R(1,5)                  1.3713         estimate D2E/DX2                !
 ! R2    R(1,8)                  1.289          estimate D2E/DX2                !
 ! R3    R(2,9)                  0.9932         estimate D2E/DX2                !
 ! R4    R(3,4)                  1.0684         estimate D2E/DX2                !
 ! R5    R(3,5)                  1.3503         estimate D2E/DX2                !
 ! R6    R(3,9)                  1.3721         estimate D2E/DX2                !
 ! R7    R(5,6)                  1.0699         estimate D2E/DX2                !
 ! R8    R(7,8)                  1.0709         estimate D2E/DX2                !
 ! R9    R(8,9)                  1.3494         estimate D2E/DX2                !
 ! A1    A(5,1,8)              105.3363         estimate D2E/DX2                !
 ! A2    A(4,3,5)              132.3996         estimate D2E/DX2                !
 ! A3    A(4,3,9)              122.3927         estimate D2E/DX2                !
 ! A4    A(5,3,9)              105.2077         estimate D2E/DX2                !
 ! A5    A(1,5,3)              110.476          estimate D2E/DX2                !
 ! A6    A(1,5,6)              121.3948         estimate D2E/DX2                !
 ! A7    A(3,5,6)              128.1292         estimate D2E/DX2                !
 ! A8    A(1,8,7)              125.6083         estimate D2E/DX2                !
 ! A9    A(1,8,9)              112.2043         estimate D2E/DX2                !
 ! A10   A(7,8,9)              122.1873         estimate D2E/DX2                !
 ! A11   A(2,9,3)              126.7509         estimate D2E/DX2                !
 ! A12   A(2,9,8)              126.4734         estimate D2E/DX2                !
 ! A13   A(3,9,8)              106.7757         estimate D2E/DX2                !
 ! D1    D(8,1,5,3)              0.0            estimate D2E/DX2                !
 ! D2    D(8,1,5,6)            180.0            estimate D2E/DX2                !
 ! D3    D(5,1,8,7)            180.0            estimate D2E/DX2                !
 ! D4    D(5,1,8,9)              0.0            estimate D2E/DX2                !
 ! D5    D(4,3,5,1)            180.0            estimate D2E/DX2                !
 ! D6    D(4,3,5,6)              0.0            estimate D2E/DX2                !
 ! D7    D(9,3,5,1)              0.0            estimate D2E/DX2                !
 ! D8    D(9,3,5,6)            180.0            estimate D2E/DX2                !
 ! D9    D(4,3,9,2)              0.0            estimate D2E/DX2                !
 ! D10   D(4,3,9,8)            180.0            estimate D2E/DX2                !
 ! D11   D(5,3,9,2)            180.0            estimate D2E/DX2                !
 ! D12   D(5,3,9,8)              0.0            estimate D2E/DX2                !
 ! D13   D(1,8,9,2)            180.0            estimate D2E/DX2                !
 ! D14   D(1,8,9,3)              0.0            estimate D2E/DX2                !
 ! D15   D(7,8,9,2)              0.0            estimate D2E/DX2                !
 ! D16   D(7,8,9,3)            180.0            estimate D2E/DX2                !
 --------------------------------------------------------------------------------
 Trust Radius=3.00D-01 FncErr=1.00D-07 GrdErr=1.00D-06
 Number of steps in this run=  48 maximum allowed number of steps= 100.
 GradGradGradGradGradGradGradGradGradGradGradGradGradGradGradGradGradGrad

                          Input orientation:                          
 ---------------------------------------------------------------------
 Center     Atomic     Atomic              Coordinates (Angstroms)
 Number     Number      Type              X           Y           Z
 ---------------------------------------------------------------------
    1          7             0       -0.741059   -0.965959    0.000000
    2          1             0       -0.012734    2.088247    0.000000
    3          6             0        1.109862    0.288272    0.000000
    4          1             0        2.103339    0.681436    0.000000
    5          6             0        0.630182   -0.973920    0.000000
    6          1             0        1.182239   -1.890444    0.000000
    7          1             0       -2.077162    0.655969    0.000000
    8          6             0       -1.074756    0.279096    0.000000
    9          7             0        0.000000    1.095117    0.000000
 ---------------------------------------------------------------------
                    Distance matrix (angstroms):
                    1          2          3          4          5
     1  N    0.000000
     2  H    3.139846   0.000000
     3  C    2.235845   2.121351   0.000000
     4  H    3.287021   2.541040   1.068445   0.000000
     5  C    1.371264   3.128931   1.350267   2.215941   0.000000
     6  H    2.133951   4.154268   2.179918   2.731848   1.069945
     7  H    2.101386   2.512625   3.208165   4.180579   3.160103
     8  C    1.288998   2.097837   2.184637   3.203461   2.115860
     9  N    2.190252   0.993212   1.372149   2.143634   2.162879
                    6          7          8          9
     6  H    0.000000
     7  H    4.136171   0.000000
     8  C    3.130644   1.070911   0.000000
     9  N    3.211116   2.123076   1.349441   0.000000
 Stoichiometry    C3H4N2
 Framework group  CS[SG(C3H4N2)]
 Deg. of freedom    15
 Full point group                 CS
 Largest Abelian subgroup         CS      NOp   2
 Largest concise Abelian subgroup C1      NOp   1
                         Standard orientation:                         
 ---------------------------------------------------------------------
 Center     Atomic     Atomic              Coordinates (Angstroms)
 Number     Number      Type              X           Y           Z
 ---------------------------------------------------------------------
    1          7             0       -0.741059   -0.965959    0.000000
    2          1             0       -0.012734    2.088247    0.000000
    3          6             0        1.109862    0.288272    0.000000
    4          1             0        2.103339    0.681436    0.000000
    5          6             0        0.630182   -0.973920    0.000000
    6          1             0        1.182239   -1.890444    0.000000
    7          1             0       -2.077162    0.655969    0.000000
    8          6             0       -1.074756    0.279096    0.000000
    9          7             0        0.000000    1.095117    0.000000
 ---------------------------------------------------------------------
 Rotational constants (GHZ):      9.9280198      9.6396664      4.8908592
 Standard basis: 6-31+G(d,p) (6D, 7F)
 There are    86 symmetry adapted basis functions of A'  symmetry.
 There are    29 symmetry adapted basis functions of A"  symmetry.
 Integral buffers will be    131072 words long.
 Raffenetti 2 integral format.
 Two-electron integral symmetry is turned on.
   115 basis functions,   188 primitive gaussians,   115 cartesian basis functions
    18 alpha electrons       18 beta electrons
       nuclear repulsion energy       164.9791768016 Hartrees.
 NAtoms=    9 NActive=    9 NUniq=    9 SFac= 7.50D-01 NAtFMM=   80 NAOKFM=F Big=F
 One-electron integrals computed using PRISM.
 NBasis=   115 RedAO= T  NBF=    86    29
 NBsUse=   115 1.00D-06 NBFU=    86    29
 Harris functional with IExCor=  205 diagonalized for initial guess.
 ExpMin= 4.38D-02 ExpMax= 4.17D+03 ExpMxC= 6.27D+02 IAcc=2 IRadAn=         4 AccDes= 0.00D+00
 HarFok:  IExCor= 205 AccDes= 0.00D+00 IRadAn=         4 IDoV=1
 ScaDFX=  1.000000  1.000000  1.000000  1.000000
 Initial guess orbital symmetries:
       Occupied  (A') (A') (A') (A') (A') (A') (A') (A') (A') (A')
                 (A') (A') (A') (A") (A') (A') (A") (A")
       Virtual   (A") (A") (A') (A') (A') (A') (A') (A') (A") (A')
                 (A") (A") (A') (A') (A') (A') (A') (A') (A') (A")
                 (A') (A") (A') (A') (A') (A') (A') (A') (A') (A')
                 (A') (A') (A") (A") (A') (A") (A') (A') (A') (A')
                 (A') (A") (A') (A") (A') (A') (A') (A') (A') (A')
                 (A") (A') (A') (A") (A") (A') (A") (A") (A') (A')
                 (A') (A') (A') (A') (A') (A") (A') (A") (A") (A')
                 (A") (A') (A") (A') (A') (A") (A') (A") (A') (A')
                 (A') (A") (A') (A") (A') (A') (A') (A') (A') (A')
                 (A') (A') (A') (A') (A') (A') (A')
 The electronic state of the initial guess is 1-A'.
 Requested convergence on RMS density matrix=1.00D-08 within 128 cycles.
 Requested convergence on MAX density matrix=1.00D-06.
 Requested convergence on             energy=1.00D-06.
 No special actions if energy rises.
 SCF Done:  E(RS-VWN) =  -224.993749173     A.U. after   13 cycles
             Convg  =    0.9824D-08             -V/T =  2.0083
             S**2   =   0.0000

 **********************************************************************

            Population analysis using the SCF density.

 **********************************************************************

 Orbital symmetries:
       Occupied  (A') (A') (A') (A') (A') (A') (A') (A') (A') (A')
                 (A') (A') (A") (A') (A') (A") (A') (A")
       Virtual   (A") (A') (A") (A') (A') (A') (A') (A") (A') (A")
                 (A") (A') (A') (A') (A') (A') (A") (A') (A') (A')
                 (A") (A') (A') (A') (A') (A') (A') (A') (A') (A')
                 (A') (A') (A") (A") (A") (A') (A') (A') (A') (A')
                 (A") (A') (A') (A') (A") (A') (A') (A') (A') (A')
                 (A") (A') (A') (A') (A") (A") (A") (A') (A") (A')
                 (A') (A') (A') (A') (A") (A') (A') (A") (A") (A')
                 (A") (A') (A") (A') (A") (A') (A') (A") (A') (A')
                 (A') (A") (A") (A') (A') (A') (A') (A') (A') (A')
                 (A') (A') (A') (A') (A') (A') (A')
 The electronic state is 1-A'.
 Alpha  occ. eigenvalues --  -13.96119 -13.87970  -9.86253  -9.84389  -9.82449
 Alpha  occ. eigenvalues --   -0.96488  -0.82093  -0.70125  -0.58642  -0.56282
 Alpha  occ. eigenvalues --   -0.53669  -0.42197  -0.42104  -0.41631  -0.38493
 Alpha  occ. eigenvalues --   -0.28111  -0.24803  -0.23588
 Alpha virt. eigenvalues --   -0.03500  -0.03168  -0.00117   0.00374   0.01358
 Alpha virt. eigenvalues --    0.03040   0.03696   0.03697   0.05143   0.07488
 Alpha virt. eigenvalues --    0.09020   0.09151   0.09893   0.12483   0.14048
 Alpha virt. eigenvalues --    0.14962   0.16112   0.16709   0.17743   0.19477
 Alpha virt. eigenvalues --    0.19851   0.20260   0.22103   0.22254   0.23391
 Alpha virt. eigenvalues --    0.26498   0.27213   0.29309   0.37934   0.41173
 Alpha virt. eigenvalues --    0.43290   0.59273   0.60029   0.61994   0.64514
 Alpha virt. eigenvalues --    0.64962   0.71420   0.76238   0.77543   0.81308
 Alpha virt. eigenvalues --    0.83846   0.84739   0.86655   0.90631   0.91025
 Alpha virt. eigenvalues --    0.95613   0.96098   0.99194   1.06654   1.08549
 Alpha virt. eigenvalues --    1.16485   1.16588   1.20770   1.23172   1.25592
 Alpha virt. eigenvalues --    1.26858   1.36784   1.40752   1.41333   1.47344
 Alpha virt. eigenvalues --    1.67197   1.79589   1.84208   1.86478   1.94137
 Alpha virt. eigenvalues --    1.95308   1.98812   2.02717   2.09422   2.10633
 Alpha virt. eigenvalues --    2.17501   2.20721   2.31126   2.33245   2.36045
 Alpha virt. eigenvalues --    2.39716   2.42675   2.49947   2.50618   2.53739
 Alpha virt. eigenvalues --    2.55037   2.60989   2.70205   2.70475   2.81566
 Alpha virt. eigenvalues --    2.89551   2.98295   3.15729   3.19875   3.26615
 Alpha virt. eigenvalues --    3.57626   3.69752   4.06413   4.14159   4.23322
 Alpha virt. eigenvalues --    4.44471   4.64630
          Condensed to atoms (all electrons):
              1          2          3          4          5          6
     1  N    6.815948   0.013331   0.033755   0.008081   0.284368  -0.079338
     2  H    0.013331   0.405268   0.009732  -0.002621  -0.005764  -0.000079
     3  C    0.033755   0.009732   5.305665   0.372271   0.382564  -0.098924
     4  H    0.008081  -0.002621   0.372271   0.514207  -0.028763  -0.000295
     5  C    0.284368  -0.005764   0.382564  -0.028763   5.252013   0.428234
     6  H   -0.079338  -0.000079  -0.098924  -0.000295   0.428234   0.550696
     7  H   -0.069533   0.000679  -0.007219  -0.000070   0.016359  -0.000044
     8  C    0.292486  -0.015680  -0.375493   0.018508   0.049005   0.037390
     9  N   -0.015109   0.277818   0.485586  -0.055520  -0.260079   0.003664
              7          8          9
     1  N   -0.069533   0.292486  -0.015109
     2  H    0.000679  -0.015680   0.277818
     3  C   -0.007219  -0.375493   0.485586
     4  H   -0.000070   0.018508  -0.055520
     5  C    0.016359   0.049005  -0.260079
     6  H   -0.000044   0.037390   0.003664
     7  H    0.545101   0.451215  -0.103536
     8  C    0.451215   5.349331   0.162291
     9  N   -0.103536   0.162291   6.843230
 Mulliken atomic charges:
              1
     1  N   -0.283989
     2  H    0.317315
     3  C   -0.107937
     4  H    0.174201
     5  C   -0.117936
     6  H    0.158696
     7  H    0.167049
     8  C    0.030947
     9  N   -0.338344
 Sum of Mulliken charges=   0.00000
 Atomic charges with hydrogens summed into heavy atoms:
              1
     1  N   -0.283989
     2  H    0.000000
     3  C    0.066264
     4  H    0.000000
     5  C    0.040759
     6  H    0.000000
     7  H    0.000000
     8  C    0.197996
     9  N   -0.021030
 Sum of Mulliken charges=   0.00000
 Electronic spatial extent (au):  <R**2>=   281.5291
 Charge=     0.0000 electrons
 Dipole moment (field-independent basis, Debye):
    X=     1.2383    Y=     3.6453    Z=     0.0000  Tot=     3.8499
 Quadrupole moment (field-independent basis, Debye-Ang):
   XX=   -27.0491   YY=   -25.9520   ZZ=   -32.2009
   XY=    -3.4378   XZ=     0.0000   YZ=     0.0000
 Traceless Quadrupole moment (field-independent basis, Debye-Ang):
   XX=     1.3515   YY=     2.4487   ZZ=    -3.8002
   XY=    -3.4378   XZ=     0.0000   YZ=     0.0000
 Octapole moment (field-independent basis, Debye-Ang**2):
  XXX=     0.9088  YYY=    16.6382  ZZZ=     0.0000  XYY=     5.8680
  XXY=     6.6201  XXZ=     0.0000  XZZ=    -1.0325  YZZ=     1.2955
  YYZ=     0.0000  XYZ=     0.0000
 Hexadecapole moment (field-independent basis, Debye-Ang**3):
 XXXX=  -161.1856 YYYY=  -142.7664 ZZZZ=   -37.2667 XXXY=    -3.5640
 XXXZ=     0.0000 YYYX=   -10.3761 YYYZ=     0.0000 ZZZX=     0.0000
 ZZZY=     0.0000 XXYY=   -59.1920 XXZZ=   -40.8966 YYZZ=   -37.7356
 XXYZ=     0.0000 YYXZ=     0.0000 ZZXY=     0.4628
 N-N= 1.649791768016D+02 E-N=-8.542582964165D+02  KE= 2.231308799212D+02
 Symmetry A'   KE= 2.149939016112D+02
 Symmetry A"   KE= 8.136978309997D+00
 Calling FoFCou, ICntrl=  2527 FMM=F ISym2X=1 I1Cent= 0 ISCF1= 0.
 ***** Axes restored to original set *****
 -------------------------------------------------------------------
 Center     Atomic                   Forces (Hartrees/Bohr)
 Number     Number              X              Y              Z
 -------------------------------------------------------------------
    1          7           0.008291849   -0.026432487    0.000000000
    2          1           0.000387826    0.023484868    0.000000000
    3          6          -0.004171482    0.015148353    0.000000000
    4          1           0.013719086    0.005692576    0.000000000
    5          6          -0.014375755   -0.009211601    0.000000000
    6          1           0.007602400   -0.012698928    0.000000000
    7          1          -0.014250856    0.005637191    0.000000000
    8          6          -0.006052420    0.015229430    0.000000000
    9          7           0.008849352   -0.016849402    0.000000000
 -------------------------------------------------------------------
 Cartesian Forces:  Max     0.026432487 RMS     0.010823216

 GradGradGradGradGradGradGradGradGradGradGradGradGradGradGradGradGradGrad
 Berny optimization.
 Internal  Forces:  Max     0.027627830 RMS     0.008455502
 Search for a local minimum.
 Step number   1 out of a maximum of  48
 All quantities printed in internal units (Hartrees-Bohrs-Radians)
 Second derivative matrix not updated -- first step.
     Eigenvalues ---    0.02198   0.02341   0.02379   0.02551   0.02603
     Eigenvalues ---    0.02705   0.16000   0.16000   0.16000   0.16000
     Eigenvalues ---    0.22000   0.22911   0.37115   0.37237   0.37427
     Eigenvalues ---    0.45111   0.47811   0.48902   0.51454   0.54834
     Eigenvalues ---    0.671221000.000001000.000001000.000001000.00000
     Eigenvalues --- 1000.000001000.000001000.000001000.000001000.00000
     Eigenvalues --- 1000.000001000.000001000.000001000.000001000.00000
     Eigenvalues --- 1000.000001000.000001000.00000
 RFO step:  Lambda=-5.32010221D-03.
 Linear search not attempted -- first point.
 Iteration  1 RMS(Cart)=  0.02127293 RMS(Int)=  0.00004369
 Iteration  2 RMS(Cart)=  0.00005232 RMS(Int)=  0.00000996
 Iteration  3 RMS(Cart)=  0.00000000 RMS(Int)=  0.00000996
 Variable       Old X    -DE/DX   Delta X   Delta X   Delta X     New X
                                 (Linear)    (Quad)   (Total)
    R1        2.59131   0.00062   0.00000   0.00172   0.00172   2.59303
    R2        2.43585   0.02763   0.00000   0.04034   0.04036   2.47621
    R3        1.87690   0.02348   0.00000   0.04749   0.04749   1.92439
    R4        2.01907   0.01485   0.00000   0.03913   0.03913   2.05819
    R5        2.55164   0.02331   0.00000   0.04060   0.04059   2.59222
    R6        2.59299   0.00250   0.00000   0.00341   0.00340   2.59639
    R7        2.02190   0.01480   0.00000   0.03919   0.03919   2.06109
    R8        2.02373   0.01532   0.00000   0.04070   0.04070   2.06443
    R9        2.55007   0.01231   0.00000   0.02275   0.02276   2.57283
    A1        1.83847  -0.00054   0.00000   0.00414   0.00416   1.84262
    A2        2.31081  -0.00063   0.00000   0.00094   0.00095   2.31176
    A3        2.13616  -0.00114   0.00000  -0.00210  -0.00209   2.13407
    A4        1.83622   0.00177   0.00000   0.00116   0.00114   1.83736
    A5        1.92817   0.00001   0.00000  -0.00236  -0.00238   1.92579
    A6        2.11874  -0.00004   0.00000   0.00096   0.00097   2.11971
    A7        2.23628   0.00003   0.00000   0.00140   0.00141   2.23769
    A8        2.19228   0.00184   0.00000   0.00624   0.00622   2.19850
    A9        1.95834  -0.00315   0.00000  -0.00932  -0.00930   1.94904
   A10        2.13257   0.00132   0.00000   0.00309   0.00308   2.13565
   A11        2.21222  -0.00160   0.00000  -0.00708  -0.00708   2.20514
   A12        2.20738  -0.00031   0.00000   0.00070   0.00070   2.20807
   A13        1.86359   0.00191   0.00000   0.00638   0.00639   1.86997
    D1        0.00000   0.00000   0.00000   0.00000   0.00000   0.00000
    D2        3.14159   0.00000   0.00000   0.00000   0.00000   3.14159
    D3        3.14159   0.00000   0.00000   0.00000   0.00000   3.14159
    D4        0.00000   0.00000   0.00000   0.00000   0.00000   0.00000
    D5        3.14159   0.00000   0.00000   0.00000   0.00000   3.14159
    D6        0.00000   0.00000   0.00000   0.00000   0.00000   0.00000
    D7        0.00000   0.00000   0.00000   0.00000   0.00000   0.00000
    D8        3.14159   0.00000   0.00000   0.00000   0.00000   3.14159
    D9        0.00000   0.00000   0.00000   0.00000   0.00000   0.00000
   D10        3.14159   0.00000   0.00000   0.00000   0.00000   3.14159
   D11        3.14159   0.00000   0.00000   0.00000   0.00000   3.14159
   D12        0.00000   0.00000   0.00000   0.00000   0.00000   0.00000
   D13        3.14159   0.00000   0.00000   0.00000   0.00000   3.14159
   D14        0.00000   0.00000   0.00000   0.00000   0.00000   0.00000
   D15        0.00000   0.00000   0.00000   0.00000   0.00000   0.00000
   D16        3.14159   0.00000   0.00000   0.00000   0.00000   3.14159
         Item               Value     Threshold  Converged?
 Maximum Force            0.027628     0.000450     NO 
 RMS     Force            0.008456     0.000300     NO 
 Maximum Displacement     0.062826     0.001800     NO 
 RMS     Displacement     0.021279     0.001200     NO 
 Predicted change in Energy=-2.689247D-03
 GradGradGradGradGradGradGradGradGradGradGradGradGradGradGradGradGradGrad

                          Input orientation:                          
 ---------------------------------------------------------------------
 Center     Atomic     Atomic              Coordinates (Angstroms)
 Number     Number      Type              X           Y           Z
 ---------------------------------------------------------------------
    1          7             0       -0.741680   -0.983411    0.000000
    2          1             0       -0.006995    2.117430    0.000000
    3          6             0        1.113784    0.293415    0.000000
    4          1             0        2.124873    0.698316    0.000000
    5          6             0        0.630478   -0.990367    0.000000
    6          1             0        1.194832   -1.923690    0.000000
    7          1             0       -2.109152    0.666406    0.000000
    8          6             0       -1.087097    0.280596    0.000000
    9          7             0        0.000867    1.099117    0.000000
 ---------------------------------------------------------------------
                    Distance matrix (angstroms):
                    1          2          3          4          5
     1  N    0.000000
     2  H    3.186687   0.000000
     3  C    2.252339   2.140836   0.000000
     4  H    3.323452   2.561005   1.089149   0.000000
     5  C    1.372175   3.172503   1.371744   2.254965   0.000000
     6  H    2.152720   4.216046   2.218586   2.782067   1.090683
     7  H    2.142866   2.554316   3.244448   4.234145   3.201635
     8  C    1.310354   2.130863   2.200919   3.239019   2.136682
     9  N    2.210949   1.018344   1.373950   2.161491   2.182281
                    6          7          8          9
     6  H    0.000000
     7  H    4.198203   0.000000
     8  C    3.172709   1.092449   0.000000
     9  N    3.250064   2.153931   1.361485   0.000000
 Stoichiometry    C3H4N2
 Framework group  CS[SG(C3H4N2)]
 Deg. of freedom    15
 Full point group                 CS
 Largest Abelian subgroup         CS      NOp   2
 Largest concise Abelian subgroup C1      NOp   1
                         Standard orientation:                         
 ---------------------------------------------------------------------
 Center     Atomic     Atomic              Coordinates (Angstroms)
 Number     Number      Type              X           Y           Z
 ---------------------------------------------------------------------
    1          7             0       -0.738855   -0.981118    0.000000
    2          1             0       -0.009667    2.121020    0.000000
    3          6             0        1.114344    0.298994    0.000000
    4          1             0        2.124713    0.705687    0.000000
    5          6             0        0.633313   -0.985642    0.000000
    6          1             0        1.199321   -1.917964    0.000000
    7          1             0       -2.109249    0.666273    0.000000
    8          6             0       -1.086512    0.282275    0.000000
    9          7             0        0.000000    1.102722    0.000000
 ---------------------------------------------------------------------
 Rotational constants (GHZ):      9.7777864      9.4201469      4.7978177
 Standard basis: 6-31+G(d,p) (6D, 7F)
 There are    86 symmetry adapted basis functions of A'  symmetry.
 There are    29 symmetry adapted basis functions of A"  symmetry.
 Integral buffers will be    131072 words long.
 Raffenetti 2 integral format.
 Two-electron integral symmetry is turned on.
   115 basis functions,   188 primitive gaussians,   115 cartesian basis functions
    18 alpha electrons       18 beta electrons
       nuclear repulsion energy       163.3133408431 Hartrees.
 NAtoms=    9 NActive=    9 NUniq=    9 SFac= 7.50D-01 NAtFMM=   80 NAOKFM=F Big=F
 One-electron integrals computed using PRISM.
 NBasis=   115 RedAO= T  NBF=    86    29
 NBsUse=   115 1.00D-06 NBFU=    86    29
 Initial guess read from the read-write file:
 Initial guess orbital symmetries:
       Occupied  (A') (A') (A') (A') (A') (A') (A') (A') (A') (A')
                 (A') (A') (A") (A') (A') (A") (A') (A")
       Virtual   (A") (A') (A") (A') (A') (A') (A') (A") (A') (A")
                 (A") (A') (A') (A') (A') (A') (A") (A') (A') (A')
                 (A") (A') (A') (A') (A') (A') (A') (A') (A') (A')
                 (A') (A') (A") (A") (A") (A') (A') (A') (A') (A')
                 (A") (A') (A') (A') (A") (A') (A') (A') (A') (A')
                 (A") (A') (A') (A') (A") (A") (A") (A') (A") (A')
                 (A') (A') (A') (A') (A") (A') (A') (A") (A") (A')
                 (A") (A') (A") (A') (A") (A') (A') (A") (A') (A')
                 (A') (A") (A") (A') (A') (A') (A') (A') (A') (A')
                 (A') (A') (A') (A') (A') (A') (A')
 Harris functional with IExCor=  205 diagonalized for initial guess.
 ExpMin= 4.38D-02 ExpMax= 4.17D+03 ExpMxC= 6.27D+02 IAcc=2 IRadAn=         4 AccDes= 0.00D+00
 HarFok:  IExCor= 205 AccDes= 0.00D+00 IRadAn=         4 IDoV=1
 ScaDFX=  1.000000  1.000000  1.000000  1.000000
 Requested convergence on RMS density matrix=1.00D-08 within 128 cycles.
 Requested convergence on MAX density matrix=1.00D-06.
 Requested convergence on             energy=1.00D-06.
 No special actions if energy rises.
 SCF Done:  E(RS-VWN) =  -224.996412530     A.U. after   10 cycles
             Convg  =    0.5382D-08             -V/T =  2.0097
             S**2   =   0.0000
 Calling FoFCou, ICntrl=  2527 FMM=F ISym2X=1 I1Cent= 0 ISCF1= 0.
 ***** Axes restored to original set *****
 -------------------------------------------------------------------
 Center     Atomic                   Forces (Hartrees/Bohr)
 Number     Number              X              Y              Z
 -------------------------------------------------------------------
    1          7           0.004855635   -0.003407667    0.000000000
    2          1           0.000253507    0.000121406    0.000000000
    3          6           0.000082481    0.003906161    0.000000000
    4          1          -0.000207128   -0.000008637    0.000000000
    5          6          -0.005555202   -0.000241017    0.000000000
    6          1           0.000059344    0.000323965    0.000000000
    7          1           0.000711063   -0.000450010    0.000000000
    8          6          -0.002457036    0.004371810    0.000000000
    9          7           0.002257335   -0.004616013    0.000000000
 -------------------------------------------------------------------
 Cartesian Forces:  Max     0.005555202 RMS     0.002226641

 GradGradGradGradGradGradGradGradGradGradGradGradGradGradGradGradGradGrad
 Berny optimization.
 Internal  Forces:  Max     0.003730314 RMS     0.001085132
 Search for a local minimum.
 Step number   2 out of a maximum of  48
 All quantities printed in internal units (Hartrees-Bohrs-Radians)
 Update second derivatives using D2CorX and points  1  2
 Trust test= 9.90D-01 RLast= 1.05D-01 DXMaxT set to 3.15D-01
     Eigenvalues ---    0.02199   0.02340   0.02380   0.02552   0.02603
     Eigenvalues ---    0.02707   0.15983   0.16000   0.16000   0.16005
     Eigenvalues ---    0.21689   0.22953   0.37143   0.37350   0.38038
     Eigenvalues ---    0.45216   0.46875   0.48940   0.51791   0.56255
     Eigenvalues ---    0.651621000.000001000.000001000.000001000.00000
     Eigenvalues --- 1000.000001000.000001000.000001000.000001000.00000
     Eigenvalues --- 1000.000001000.000001000.000001000.000001000.00000
     Eigenvalues --- 1000.000001000.000001000.00000
 RFO step:  Lambda=-1.09788724D-04.
 Quartic linear search produced a step of  0.02430.
 Iteration  1 RMS(Cart)=  0.00262197 RMS(Int)=  0.00000502
 Iteration  2 RMS(Cart)=  0.00000548 RMS(Int)=  0.00000174
 Iteration  3 RMS(Cart)=  0.00000000 RMS(Int)=  0.00000174
 Variable       Old X    -DE/DX   Delta X   Delta X   Delta X     New X
                                 (Linear)    (Quad)   (Total)
    R1        2.59303  -0.00373   0.00004  -0.00751  -0.00747   2.58557
    R2        2.47621   0.00271   0.00098   0.00413   0.00511   2.48132
    R3        1.92439   0.00012   0.00115   0.00014   0.00129   1.92568
    R4        2.05819  -0.00020   0.00095  -0.00061   0.00034   2.05853
    R5        2.59222   0.00139   0.00099   0.00215   0.00313   2.59535
    R6        2.59639  -0.00334   0.00008  -0.00703  -0.00694   2.58945
    R7        2.06109  -0.00025   0.00095  -0.00075   0.00020   2.06129
    R8        2.06443  -0.00082   0.00099  -0.00235  -0.00136   2.06307
    R9        2.57283  -0.00036   0.00055  -0.00052   0.00004   2.57287
    A1        1.84262  -0.00059   0.00010  -0.00136  -0.00127   1.84136
    A2        2.31176   0.00051   0.00002   0.00324   0.00326   2.31502
    A3        2.13407   0.00037  -0.00005   0.00232   0.00227   2.13633
    A4        1.83736  -0.00087   0.00003  -0.00556  -0.00553   1.83183
    A5        1.92579   0.00129  -0.00006   0.00517   0.00511   1.93090
    A6        2.11971  -0.00042   0.00002  -0.00114  -0.00112   2.11860
    A7        2.23769  -0.00087   0.00003  -0.00403  -0.00399   2.23369
    A8        2.19850   0.00044   0.00015   0.00115   0.00130   2.19980
    A9        1.94904  -0.00122  -0.00023  -0.00455  -0.00478   1.94426
   A10        2.13565   0.00079   0.00007   0.00340   0.00348   2.13912
   A11        2.20514  -0.00094  -0.00017  -0.00471  -0.00489   2.20025
   A12        2.20807  -0.00046   0.00002  -0.00159  -0.00157   2.20650
   A13        1.86997   0.00140   0.00016   0.00630   0.00646   1.87643
    D1        0.00000   0.00000   0.00000   0.00000   0.00000   0.00000
    D2        3.14159   0.00000   0.00000   0.00000   0.00000   3.14159
    D3        3.14159   0.00000   0.00000   0.00000   0.00000   3.14159
    D4        0.00000   0.00000   0.00000   0.00000   0.00000   0.00000
    D5        3.14159   0.00000   0.00000   0.00000   0.00000   3.14159
    D6        0.00000   0.00000   0.00000   0.00000   0.00000   0.00000
    D7        0.00000   0.00000   0.00000   0.00000   0.00000   0.00000
    D8        3.14159   0.00000   0.00000   0.00000   0.00000   3.14159
    D9        0.00000   0.00000   0.00000   0.00000   0.00000   0.00000
   D10        3.14159   0.00000   0.00000   0.00000   0.00000   3.14159
   D11        3.14159   0.00000   0.00000   0.00000   0.00000   3.14159
   D12        0.00000   0.00000   0.00000   0.00000   0.00000   0.00000
   D13        3.14159   0.00000   0.00000   0.00000   0.00000   3.14159
   D14        0.00000   0.00000   0.00000   0.00000   0.00000   0.00000
   D15        0.00000   0.00000   0.00000   0.00000   0.00000   0.00000
   D16        3.14159   0.00000   0.00000   0.00000   0.00000   3.14159
         Item               Value     Threshold  Converged?
 Maximum Force            0.003730     0.000450     NO 
 RMS     Force            0.001085     0.000300     NO 
 Maximum Displacement     0.006804     0.001800     NO 
 RMS     Displacement     0.002622     0.001200     NO 
 Predicted change in Energy=-5.612785D-05
 GradGradGradGradGradGradGradGradGradGradGradGradGradGradGradGradGradGrad

                          Input orientation:                          
 ---------------------------------------------------------------------
 Center     Atomic     Atomic              Coordinates (Angstroms)
 Number     Number      Type              X           Y           Z
 ---------------------------------------------------------------------
    1          7             0       -0.740773   -0.985413    0.000000
    2          1             0       -0.003741    2.114527    0.000000
    3          6             0        1.114568    0.295314    0.000000
    4          1             0        2.125523    0.701033    0.000000
    5          6             0        0.627445   -0.988798    0.000000
    6          1             0        1.193234   -1.921375    0.000000
    7          1             0       -2.109974    0.666269    0.000000
    8          6             0       -1.088584    0.280741    0.000000
    9          7             0        0.002213    1.095516    0.000000
 ---------------------------------------------------------------------
                    Distance matrix (angstroms):
                    1          2          3          4          5
     1  N    0.000000
     2  H    3.186353   0.000000
     3  C    2.254452   2.135451   0.000000
     4  H    3.325621   2.555725   1.089329   0.000000
     5  C    1.368222   3.166863   1.373402   2.258266   0.000000
     6  H    2.148583   4.209662   2.218085   2.783197   1.090788
     7  H    2.145405   2.556104   3.245809   4.235639   3.198860
     8  C    1.313057   2.130647   2.203201   3.241470   2.134593
     9  N    2.209592   1.019028   1.370276   2.159643   2.176070
                    6          7          8          9
     6  H    0.000000
     7  H    4.196079   0.000000
     8  C    3.171121   1.091727   0.000000
     9  N    3.243480   2.155363   1.361506   0.000000
 Stoichiometry    C3H4N2
 Framework group  CS[SG(C3H4N2)]
 Deg. of freedom    15
 Full point group                 CS
 Largest Abelian subgroup         CS      NOp   2
 Largest concise Abelian subgroup C1      NOp   1
                         Standard orientation:                         
 ---------------------------------------------------------------------
 Center     Atomic     Atomic              Coordinates (Angstroms)
 Number     Number      Type              X           Y           Z
 ---------------------------------------------------------------------
    1          7             0       -0.736465   -0.983689    0.000000
    2          1             0       -0.009146    2.118544    0.000000
    3          6             0        1.114856    0.302843    0.000000
    4          1             0        2.124535    0.711727    0.000000
    5          6             0        0.631757   -0.982788    0.000000
    6          1             0        1.200464   -1.913589    0.000000
    7          1             0       -2.110832    0.663696    0.000000
    8          6             0       -1.088240    0.281369    0.000000
    9          7             0        0.000000    1.099557    0.000000
 ---------------------------------------------------------------------
 Rotational constants (GHZ):      9.7981738      9.4189298      4.8024048
 Standard basis: 6-31+G(d,p) (6D, 7F)
 There are    86 symmetry adapted basis functions of A'  symmetry.
 There are    29 symmetry adapted basis functions of A"  symmetry.
 Integral buffers will be    131072 words long.
 Raffenetti 2 integral format.
 Two-electron integral symmetry is turned on.
   115 basis functions,   188 primitive gaussians,   115 cartesian basis functions
    18 alpha electrons       18 beta electrons
       nuclear repulsion energy       163.3849614311 Hartrees.
 NAtoms=    9 NActive=    9 NUniq=    9 SFac= 7.50D-01 NAtFMM=   80 NAOKFM=F Big=F
 One-electron integrals computed using PRISM.
 NBasis=   115 RedAO= T  NBF=    86    29
 NBsUse=   115 1.00D-06 NBFU=    86    29
 Initial guess read from the read-write file:
 Initial guess orbital symmetries:
       Occupied  (A') (A') (A') (A') (A') (A') (A') (A') (A') (A')
                 (A') (A') (A") (A') (A') (A") (A') (A")
       Virtual   (A") (A') (A") (A') (A') (A') (A') (A") (A') (A")
                 (A") (A') (A') (A') (A') (A') (A") (A') (A') (A')
                 (A') (A") (A') (A') (A') (A') (A') (A') (A') (A')
                 (A') (A') (A") (A") (A") (A') (A') (A') (A') (A')
                 (A") (A') (A') (A') (A") (A') (A') (A') (A') (A')
                 (A') (A") (A') (A') (A") (A") (A") (A') (A") (A')
                 (A') (A') (A') (A') (A') (A") (A') (A") (A') (A")
                 (A") (A') (A") (A') (A") (A') (A') (A') (A") (A')
                 (A') (A") (A") (A') (A') (A') (A') (A') (A') (A')
                 (A') (A') (A') (A') (A') (A') (A')
 Requested convergence on RMS density matrix=1.00D-08 within 128 cycles.
 Requested convergence on MAX density matrix=1.00D-06.
 Requested convergence on             energy=1.00D-06.
 No special actions if energy rises.
 SCF Done:  E(RS-VWN) =  -224.996481055     A.U. after    9 cycles
             Convg  =    0.6909D-08             -V/T =  2.0097
             S**2   =   0.0000
 Calling FoFCou, ICntrl=  2527 FMM=F ISym2X=1 I1Cent= 0 ISCF1= 0.
 ***** Axes restored to original set *****
 -------------------------------------------------------------------
 Center     Atomic                   Forces (Hartrees/Bohr)
 Number     Number              X              Y              Z
 -------------------------------------------------------------------
    1          7           0.002322010   -0.000858719    0.000000000
    2          1          -0.000033183   -0.000317111    0.000000000
    3          6           0.000025232    0.001128011    0.000000000
    4          1          -0.000391353   -0.000187789    0.000000000
    5          6          -0.001831278   -0.001293897    0.000000000
    6          1           0.000086346    0.000233729    0.000000000
    7          1           0.000450237   -0.000209674    0.000000000
    8          6          -0.000599456    0.002089791    0.000000000
    9          7          -0.000028556   -0.000584341    0.000000000
 -------------------------------------------------------------------
 Cartesian Forces:  Max     0.002322010 RMS     0.000818707

 GradGradGradGradGradGradGradGradGradGradGradGradGradGradGradGradGradGrad
 Berny optimization.
 Internal  Forces:  Max     0.001675836 RMS     0.000428820
 Search for a local minimum.
 Step number   3 out of a maximum of  48
 All quantities printed in internal units (Hartrees-Bohrs-Radians)
 Update second derivatives using D2CorX and points  1  2  3
 Trust test= 1.22D+00 RLast= 1.84D-02 DXMaxT set to 3.15D-01
     Eigenvalues ---    0.02199   0.02340   0.02380   0.02552   0.02602
     Eigenvalues ---    0.02707   0.15548   0.16000   0.16001   0.16066
     Eigenvalues ---    0.20351   0.25773   0.35388   0.37405   0.37993
     Eigenvalues ---    0.38496   0.45610   0.49717   0.50352   0.56258
     Eigenvalues ---    0.640971000.000001000.000001000.000001000.00000
     Eigenvalues --- 1000.000001000.000001000.000001000.000001000.00000
     Eigenvalues --- 1000.000001000.000001000.000001000.000001000.00000
     Eigenvalues --- 1000.000001000.000001000.00000
 RFO step:  Lambda=-1.46700923D-05.
 Quartic linear search produced a step of  0.27478.
 Iteration  1 RMS(Cart)=  0.00100344 RMS(Int)=  0.00000101
 Iteration  2 RMS(Cart)=  0.00000073 RMS(Int)=  0.00000075
 Variable       Old X    -DE/DX   Delta X   Delta X   Delta X     New X
                                 (Linear)    (Quad)   (Total)
    R1        2.58557  -0.00168  -0.00205  -0.00308  -0.00513   2.58043
    R2        2.48132   0.00132   0.00140   0.00205   0.00345   2.48477
    R3        1.92568  -0.00032   0.00036  -0.00062  -0.00026   1.92542
    R4        2.05853  -0.00043   0.00009  -0.00119  -0.00110   2.05743
    R5        2.59535   0.00071   0.00086   0.00143   0.00229   2.59764
    R6        2.58945  -0.00048  -0.00191  -0.00024  -0.00215   2.58730
    R7        2.06129  -0.00016   0.00005  -0.00023  -0.00017   2.06112
    R8        2.06307  -0.00050  -0.00037  -0.00116  -0.00153   2.06153
    R9        2.57287  -0.00081   0.00001  -0.00165  -0.00163   2.57124
    A1        1.84136   0.00030  -0.00035   0.00215   0.00181   1.84316
    A2        2.31502  -0.00013   0.00090  -0.00113  -0.00024   2.31478
    A3        2.13633  -0.00007   0.00062  -0.00054   0.00009   2.13642
    A4        1.83183   0.00021  -0.00152   0.00167   0.00015   1.83198
    A5        1.93090  -0.00024   0.00140  -0.00228  -0.00088   1.93002
    A6        2.11860   0.00032  -0.00031   0.00252   0.00221   2.12081
    A7        2.23369  -0.00008  -0.00110  -0.00024  -0.00133   2.23236
    A8        2.19980   0.00013   0.00036   0.00036   0.00072   2.20052
    A9        1.94426  -0.00033  -0.00131  -0.00097  -0.00228   1.94198
   A10        2.13912   0.00020   0.00096   0.00061   0.00156   2.14069
   A11        2.20025   0.00000  -0.00134   0.00076  -0.00059   2.19967
   A12        2.20650  -0.00006  -0.00043  -0.00018  -0.00062   2.20588
   A13        1.87643   0.00006   0.00177  -0.00057   0.00120   1.87764
    D1        0.00000   0.00000   0.00000   0.00000   0.00000   0.00000
    D2        3.14159   0.00000   0.00000   0.00000   0.00000   3.14159
    D3        3.14159   0.00000   0.00000   0.00000   0.00000   3.14159
    D4        0.00000   0.00000   0.00000   0.00000   0.00000   0.00000
    D5        3.14159   0.00000   0.00000   0.00000   0.00000   3.14159
    D6        0.00000   0.00000   0.00000   0.00000   0.00000   0.00000
    D7        0.00000   0.00000   0.00000   0.00000   0.00000   0.00000
    D8        3.14159   0.00000   0.00000   0.00000   0.00000   3.14159
    D9        0.00000   0.00000   0.00000   0.00000   0.00000   0.00000
   D10        3.14159   0.00000   0.00000   0.00000   0.00000   3.14159
   D11        3.14159   0.00000   0.00000   0.00000   0.00000   3.14159
   D12        0.00000   0.00000   0.00000   0.00000   0.00000   0.00000
   D13        3.14159   0.00000   0.00000   0.00000   0.00000   3.14159
   D14        0.00000   0.00000   0.00000   0.00000   0.00000   0.00000
   D15        0.00000   0.00000   0.00000   0.00000   0.00000   0.00000
   D16        3.14159   0.00000   0.00000   0.00000   0.00000   3.14159
         Item               Value     Threshold  Converged?
 Maximum Force            0.001676     0.000450     NO 
 RMS     Force            0.000429     0.000300     NO 
 Maximum Displacement     0.003455     0.001800     NO 
 RMS     Displacement     0.001004     0.001200     YES
 Predicted change in Energy=-1.070779D-05
 GradGradGradGradGradGradGradGradGradGradGradGradGradGradGradGradGradGrad

                          Input orientation:                          
 ---------------------------------------------------------------------
 Center     Atomic     Atomic              Coordinates (Angstroms)
 Number     Number      Type              X           Y           Z
 ---------------------------------------------------------------------
    1          7             0       -0.738945   -0.985541    0.000000
    2          1             0       -0.003267    2.113912    0.000000
    3          6             0        1.113751    0.295639    0.000000
    4          1             0        2.124150    0.701182    0.000000
    5          6             0        0.626555   -0.989742    0.000000
    6          1             0        1.193796   -1.921328    0.000000
    7          1             0       -2.109583    0.666700    0.000000
    8          6             0       -1.088764    0.281954    0.000000
    9          7             0        0.002218    1.095037    0.000000
 ---------------------------------------------------------------------
                    Distance matrix (angstroms):
                    1          2          3          4          5
     1  N    0.000000
     2  H    3.185565   0.000000
     3  C    2.252533   2.133974   0.000000
     4  H    3.323002   2.553764   1.088747   0.000000
     5  C    1.365506   3.166913   1.374614   2.258764   0.000000
     6  H    2.147367   4.209052   2.218412   2.782646   1.090695
     7  H    2.146753   2.555580   3.244621   4.233873   3.198476
     8  C    1.314883   2.129406   2.202558   3.240149   2.135305
     9  N    2.208648   1.018889   1.369140   2.158175   2.176258
                    6          7          8          9
     6  H    0.000000
     7  H    4.196451   0.000000
     8  C    3.172465   1.090917   0.000000
     9  N    3.243196   2.154803   1.360641   0.000000
 Stoichiometry    C3H4N2
 Framework group  CS[SG(C3H4N2)]
 Deg. of freedom    15
 Full point group                 CS
 Largest Abelian subgroup         CS      NOp   2
 Largest concise Abelian subgroup C1      NOp   1
                         Standard orientation:                         
 ---------------------------------------------------------------------
 Center     Atomic     Atomic              Coordinates (Angstroms)
 Number     Number      Type              X           Y           Z
 ---------------------------------------------------------------------
    1          7             0       -0.734713   -0.983767    0.000000
    2          1             0       -0.008641    2.117949    0.000000
    3          6             0        1.114005    0.303146    0.000000
    4          1             0        2.123142    0.711817    0.000000
    5          6             0        0.630793   -0.983738    0.000000
    6          1             0        1.200917   -1.913563    0.000000
    7          1             0       -2.110463    0.664219    0.000000
    8          6             0       -1.088458    0.282638    0.000000
    9          7             0        0.000000    1.099097    0.000000
 ---------------------------------------------------------------------
 Rotational constants (GHZ):      9.8036131      9.4235367      4.8049091
 Standard basis: 6-31+G(d,p) (6D, 7F)
 There are    86 symmetry adapted basis functions of A'  symmetry.
 There are    29 symmetry adapted basis functions of A"  symmetry.
 Integral buffers will be    131072 words long.
 Raffenetti 2 integral format.
 Two-electron integral symmetry is turned on.
   115 basis functions,   188 primitive gaussians,   115 cartesian basis functions
    18 alpha electrons       18 beta electrons
       nuclear repulsion energy       163.4267735884 Hartrees.
 NAtoms=    9 NActive=    9 NUniq=    9 SFac= 7.50D-01 NAtFMM=   80 NAOKFM=F Big=F
 One-electron integrals computed using PRISM.
 NBasis=   115 RedAO= T  NBF=    86    29
 NBsUse=   115 1.00D-06 NBFU=    86    29
 Initial guess read from the read-write file:
 Initial guess orbital symmetries:
       Occupied  (A') (A') (A') (A') (A') (A') (A') (A') (A') (A')
                 (A') (A') (A") (A') (A') (A") (A') (A")
       Virtual   (A") (A') (A") (A') (A') (A') (A') (A") (A') (A")
                 (A") (A') (A') (A') (A') (A') (A") (A') (A') (A')
                 (A') (A") (A') (A') (A') (A') (A') (A') (A') (A')
                 (A') (A') (A") (A") (A") (A') (A') (A') (A') (A')
                 (A") (A') (A') (A') (A") (A') (A') (A') (A') (A')
                 (A') (A") (A') (A') (A") (A") (A") (A') (A") (A')
                 (A') (A') (A') (A') (A') (A") (A') (A") (A') (A")
                 (A") (A') (A") (A') (A") (A') (A') (A') (A") (A')
                 (A') (A") (A") (A') (A') (A') (A') (A') (A') (A')
                 (A') (A') (A') (A') (A') (A') (A')
 Requested convergence on RMS density matrix=1.00D-08 within 128 cycles.
 Requested convergence on MAX density matrix=1.00D-06.
 Requested convergence on             energy=1.00D-06.
 No special actions if energy rises.
 SCF Done:  E(RS-VWN) =  -224.996491214     A.U. after    9 cycles
             Convg  =    0.4683D-08             -V/T =  2.0097
             S**2   =   0.0000
 Calling FoFCou, ICntrl=  2527 FMM=F ISym2X=1 I1Cent= 0 ISCF1= 0.
 ***** Axes restored to original set *****
 -------------------------------------------------------------------
 Center     Atomic                   Forces (Hartrees/Bohr)
 Number     Number              X              Y              Z
 -------------------------------------------------------------------
    1          7          -0.000200908    0.000122284    0.000000000
    2          1          -0.000012443   -0.000162602    0.000000000
    3          6           0.000343673    0.000000369    0.000000000
    4          1          -0.000010783   -0.000022810    0.000000000
    5          6          -0.000182795   -0.000001491    0.000000000
    6          1           0.000044311    0.000101500    0.000000000
    7          1           0.000004832   -0.000082382    0.000000000
    8          6           0.000205375   -0.000064506    0.000000000
    9          7          -0.000191262    0.000109638    0.000000000
 -------------------------------------------------------------------
 Cartesian Forces:  Max     0.000343673 RMS     0.000113545

 GradGradGradGradGradGradGradGradGradGradGradGradGradGradGradGradGradGrad
 Berny optimization.
 Internal  Forces:  Max     0.000210880 RMS     0.000072046
 Search for a local minimum.
 Step number   4 out of a maximum of  48
 All quantities printed in internal units (Hartrees-Bohrs-Radians)
 Update second derivatives using D2CorX and points  1  2  3  4
 Trust test= 9.49D-01 RLast= 8.69D-03 DXMaxT set to 3.15D-01
     Eigenvalues ---    0.02199   0.02339   0.02380   0.02552   0.02602
     Eigenvalues ---    0.02707   0.14604   0.16000   0.16017   0.16055
     Eigenvalues ---    0.20986   0.25710   0.36685   0.37445   0.37672
     Eigenvalues ---    0.39480   0.45610   0.48930   0.50751   0.55040
     Eigenvalues ---    0.655461000.000001000.000001000.000001000.00000
     Eigenvalues --- 1000.000001000.000001000.000001000.000001000.00000
     Eigenvalues --- 1000.000001000.000001000.000001000.000001000.00000
     Eigenvalues --- 1000.000001000.000001000.00000
 RFO step:  Lambda=-5.54265840D-07.
 Quartic linear search produced a step of -0.04758.
 Iteration  1 RMS(Cart)=  0.00027244 RMS(Int)=  0.00000006
 Iteration  2 RMS(Cart)=  0.00000006 RMS(Int)=  0.00000002
 Variable       Old X    -DE/DX   Delta X   Delta X   Delta X     New X
                                 (Linear)    (Quad)   (Total)
    R1        2.58043   0.00004   0.00024  -0.00021   0.00003   2.58047
    R2        2.48477  -0.00021  -0.00016  -0.00013  -0.00029   2.48448
    R3        1.92542  -0.00016   0.00001  -0.00034  -0.00033   1.92510
    R4        2.05743  -0.00002   0.00005  -0.00012  -0.00006   2.05737
    R5        2.59764   0.00002  -0.00011   0.00020   0.00009   2.59773
    R6        2.58730   0.00011   0.00010   0.00017   0.00028   2.58757
    R7        2.06112  -0.00006   0.00001  -0.00017  -0.00016   2.06096
    R8        2.06153  -0.00003   0.00007  -0.00017  -0.00009   2.06144
    R9        2.57124  -0.00005   0.00008  -0.00022  -0.00014   2.57110
    A1        1.84316  -0.00006  -0.00009  -0.00025  -0.00034   1.84283
    A2        2.31478   0.00006   0.00001   0.00011   0.00012   2.31490
    A3        2.13642   0.00010   0.00000   0.00037   0.00036   2.13678
    A4        1.83198  -0.00016  -0.00001  -0.00048  -0.00049   1.83150
    A5        1.93002   0.00011   0.00004   0.00040   0.00044   1.93046
    A6        2.12081   0.00004  -0.00011   0.00046   0.00035   2.12116
    A7        2.23236  -0.00014   0.00006  -0.00086  -0.00079   2.23156
    A8        2.20052  -0.00012  -0.00003  -0.00056  -0.00059   2.19993
    A9        1.94198   0.00009   0.00011   0.00017   0.00028   1.94226
   A10        2.14069   0.00003  -0.00007   0.00039   0.00031   2.14100
   A11        2.19967   0.00000   0.00003   0.00001   0.00004   2.19970
   A12        2.20588  -0.00003   0.00003  -0.00017  -0.00014   2.20575
   A13        1.87764   0.00003  -0.00006   0.00016   0.00010   1.87773
    D1        0.00000   0.00000   0.00000   0.00000   0.00000   0.00000
    D2        3.14159   0.00000   0.00000   0.00000   0.00000   3.14159
    D3        3.14159   0.00000   0.00000   0.00000   0.00000   3.14159
    D4        0.00000   0.00000   0.00000   0.00000   0.00000   0.00000
    D5        3.14159   0.00000   0.00000   0.00000   0.00000   3.14159
    D6        0.00000   0.00000   0.00000   0.00000   0.00000   0.00000
    D7        0.00000   0.00000   0.00000   0.00000   0.00000   0.00000
    D8        3.14159   0.00000   0.00000   0.00000   0.00000   3.14159
    D9        0.00000   0.00000   0.00000   0.00000   0.00000   0.00000
   D10        3.14159   0.00000   0.00000   0.00000   0.00000   3.14159
   D11        3.14159   0.00000   0.00000   0.00000   0.00000   3.14159
   D12        0.00000   0.00000   0.00000   0.00000   0.00000   0.00000
   D13        3.14159   0.00000   0.00000   0.00000   0.00000   3.14159
   D14        0.00000   0.00000   0.00000   0.00000   0.00000   0.00000
   D15        0.00000   0.00000   0.00000   0.00000   0.00000   0.00000
   D16        3.14159   0.00000   0.00000   0.00000   0.00000   3.14159
         Item               Value     Threshold  Converged?
 Maximum Force            0.000211     0.000450     YES
 RMS     Force            0.000072     0.000300     YES
 Maximum Displacement     0.000874     0.001800     YES
 RMS     Displacement     0.000272     0.001200     YES
 Predicted change in Energy=-3.025508D-07
 Optimization completed.
    -- Stationary point found.
                           ----------------------------
                           !   Optimized Parameters   !
                           ! (Angstroms and Degrees)  !
 --------------------------                            --------------------------
 ! Name  Definition              Value          Derivative Info.                !
 --------------------------------------------------------------------------------
 ! R1    R(1,5)                  1.3655         -DE/DX =    0.0                 !
 ! R2    R(1,8)                  1.3149         -DE/DX =   -0.0002              !
 ! R3    R(2,9)                  1.0189         -DE/DX =   -0.0002              !
 ! R4    R(3,4)                  1.0887         -DE/DX =    0.0                 !
 ! R5    R(3,5)                  1.3746         -DE/DX =    0.0                 !
 ! R6    R(3,9)                  1.3691         -DE/DX =    0.0001              !
 ! R7    R(5,6)                  1.0907         -DE/DX =   -0.0001              !
 ! R8    R(7,8)                  1.0909         -DE/DX =    0.0                 !
 ! R9    R(8,9)                  1.3606         -DE/DX =   -0.0001              !
 ! A1    A(5,1,8)              105.6054         -DE/DX =   -0.0001              !
 ! A2    A(4,3,5)              132.6272         -DE/DX =    0.0001              !
 ! A3    A(4,3,9)              122.4079         -DE/DX =    0.0001              !
 ! A4    A(5,3,9)              104.965          -DE/DX =   -0.0002              !
 ! A5    A(1,5,3)              110.5819         -DE/DX =    0.0001              !
 ! A6    A(1,5,6)              121.5134         -DE/DX =    0.0                 !
 ! A7    A(3,5,6)              127.9047         -DE/DX =   -0.0001              !
 ! A8    A(1,8,7)              126.0805         -DE/DX =   -0.0001              !
 ! A9    A(1,8,9)              111.2672         -DE/DX =    0.0001              !
 ! A10   A(7,8,9)              122.6523         -DE/DX =    0.0                 !
 ! A11   A(2,9,3)              126.0316         -DE/DX =    0.0                 !
 ! A12   A(2,9,8)              126.3879         -DE/DX =    0.0                 !
 ! A13   A(3,9,8)              107.5806         -DE/DX =    0.0                 !
 ! D1    D(8,1,5,3)              0.0            -DE/DX =    0.0                 !
 ! D2    D(8,1,5,6)            180.0            -DE/DX =    0.0                 !
 ! D3    D(5,1,8,7)            180.0            -DE/DX =    0.0                 !
 ! D4    D(5,1,8,9)              0.0            -DE/DX =    0.0                 !
 ! D5    D(4,3,5,1)            180.0            -DE/DX =    0.0                 !
 ! D6    D(4,3,5,6)              0.0            -DE/DX =    0.0                 !
 ! D7    D(9,3,5,1)              0.0            -DE/DX =    0.0                 !
 ! D8    D(9,3,5,6)            180.0            -DE/DX =    0.0                 !
 ! D9    D(4,3,9,2)              0.0            -DE/DX =    0.0                 !
 ! D10   D(4,3,9,8)            180.0            -DE/DX =    0.0                 !
 ! D11   D(5,3,9,2)            180.0            -DE/DX =    0.0                 !
 ! D12   D(5,3,9,8)              0.0            -DE/DX =    0.0                 !
 ! D13   D(1,8,9,2)            180.0            -DE/DX =    0.0                 !
 ! D14   D(1,8,9,3)              0.0            -DE/DX =    0.0                 !
 ! D15   D(7,8,9,2)              0.0            -DE/DX =    0.0                 !
 ! D16   D(7,8,9,3)            180.0            -DE/DX =    0.0                 !
 --------------------------------------------------------------------------------
 GradGradGradGradGradGradGradGradGradGradGradGradGradGradGradGradGradGrad

                          Input orientation:                          
 ---------------------------------------------------------------------
 Center     Atomic     Atomic              Coordinates (Angstroms)
 Number     Number      Type              X           Y           Z
 ---------------------------------------------------------------------
    1          7             0       -0.738945   -0.985541    0.000000
    2          1             0       -0.003267    2.113912    0.000000
    3          6             0        1.113751    0.295639    0.000000
    4          1             0        2.124150    0.701182    0.000000
    5          6             0        0.626555   -0.989742    0.000000
    6          1             0        1.193796   -1.921328    0.000000
    7          1             0       -2.109583    0.666700    0.000000
    8          6             0       -1.088764    0.281954    0.000000
    9          7             0        0.002218    1.095037    0.000000
 ---------------------------------------------------------------------
                    Distance matrix (angstroms):
                    1          2          3          4          5
     1  N    0.000000
     2  H    3.185565   0.000000
     3  C    2.252533   2.133974   0.000000
     4  H    3.323002   2.553764   1.088747   0.000000
     5  C    1.365506   3.166913   1.374614   2.258764   0.000000
     6  H    2.147367   4.209052   2.218412   2.782646   1.090695
     7  H    2.146753   2.555580   3.244621   4.233873   3.198476
     8  C    1.314883   2.129406   2.202558   3.240149   2.135305
     9  N    2.208648   1.018889   1.369140   2.158175   2.176258
                    6          7          8          9
     6  H    0.000000
     7  H    4.196451   0.000000
     8  C    3.172465   1.090917   0.000000
     9  N    3.243196   2.154803   1.360641   0.000000
 Stoichiometry    C3H4N2
 Framework group  CS[SG(C3H4N2)]
 Deg. of freedom    15
 Full point group                 CS
 Largest Abelian subgroup         CS      NOp   2
 Largest concise Abelian subgroup C1      NOp   1
                         Standard orientation:                         
 ---------------------------------------------------------------------
 Center     Atomic     Atomic              Coordinates (Angstroms)
 Number     Number      Type              X           Y           Z
 ---------------------------------------------------------------------
    1          7             0       -0.734713   -0.983767    0.000000
    2          1             0       -0.008641    2.117949    0.000000
    3          6             0        1.114005    0.303146    0.000000
    4          1             0        2.123142    0.711817    0.000000
    5          6             0        0.630793   -0.983738    0.000000
    6          1             0        1.200917   -1.913563    0.000000
    7          1             0       -2.110463    0.664219    0.000000
    8          6             0       -1.088458    0.282638    0.000000
    9          7             0        0.000000    1.099097    0.000000
 ---------------------------------------------------------------------
 Rotational constants (GHZ):      9.8036131      9.4235367      4.8049091

 **********************************************************************

            Population analysis using the SCF density.

 **********************************************************************

 Orbital symmetries:
       Occupied  (A') (A') (A') (A') (A') (A') (A') (A') (A') (A')
                 (A') (A') (A") (A') (A') (A") (A') (A")
       Virtual   (A") (A') (A") (A') (A') (A') (A') (A") (A') (A")
                 (A") (A') (A') (A') (A') (A') (A") (A') (A') (A')
                 (A') (A") (A') (A') (A') (A') (A') (A') (A') (A')
                 (A') (A') (A") (A") (A") (A') (A') (A') (A') (A')
                 (A") (A') (A') (A') (A") (A') (A') (A') (A') (A')
                 (A') (A") (A') (A') (A") (A") (A") (A') (A") (A')
                 (A') (A') (A') (A') (A') (A") (A') (A") (A') (A")
                 (A") (A') (A") (A') (A") (A') (A') (A') (A") (A')
                 (A') (A") (A") (A') (A') (A') (A') (A') (A') (A')
                 (A') (A') (A') (A') (A') (A') (A')
 The electronic state is 1-A'.
 Alpha  occ. eigenvalues --  -13.96637 -13.88341  -9.86772  -9.84826  -9.82937
 Alpha  occ. eigenvalues --   -0.95908  -0.81739  -0.69562  -0.58329  -0.55900
 Alpha  occ. eigenvalues --   -0.53086  -0.41940  -0.41762  -0.41413  -0.38311
 Alpha  occ. eigenvalues --   -0.28182  -0.24842  -0.23216
 Alpha virt. eigenvalues --   -0.03945  -0.03492  -0.00454   0.00258   0.01180
 Alpha virt. eigenvalues --    0.02806   0.03529   0.03707   0.04980   0.07449
 Alpha virt. eigenvalues --    0.08909   0.08952   0.09490   0.12312   0.13966
 Alpha virt. eigenvalues --    0.15046   0.16018   0.16244   0.17480   0.18788
 Alpha virt. eigenvalues --    0.19722   0.19812   0.21414   0.21983   0.23112
 Alpha virt. eigenvalues --    0.26136   0.26672   0.28987   0.37323   0.39660
 Alpha virt. eigenvalues --    0.42632   0.59532   0.59952   0.62147   0.64353
 Alpha virt. eigenvalues --    0.65036   0.70551   0.75724   0.76703   0.80413
 Alpha virt. eigenvalues --    0.83724   0.84180   0.86082   0.89944   0.90949
 Alpha virt. eigenvalues --    0.95140   0.96115   0.98956   1.06398   1.08066
 Alpha virt. eigenvalues --    1.15882   1.16821   1.20144   1.22815   1.25443
 Alpha virt. eigenvalues --    1.26630   1.36286   1.39363   1.41137   1.46525
 Alpha virt. eigenvalues --    1.66004   1.78497   1.83021   1.85131   1.92726
 Alpha virt. eigenvalues --    1.93587   1.96468   2.01401   2.09011   2.09790
 Alpha virt. eigenvalues --    2.15952   2.18346   2.29465   2.32382   2.33775
 Alpha virt. eigenvalues --    2.38522   2.40332   2.47878   2.48262   2.51525
 Alpha virt. eigenvalues --    2.53329   2.57757   2.66375   2.67923   2.77817
 Alpha virt. eigenvalues --    2.86609   2.92908   3.11157   3.14792   3.21308
 Alpha virt. eigenvalues --    3.52614   3.65200   4.05795   4.12259   4.22260
 Alpha virt. eigenvalues --    4.43830   4.60611
          Condensed to atoms (all electrons):
              1          2          3          4          5          6
     1  N    6.811064   0.012338   0.035068   0.007223   0.284138  -0.077321
     2  H    0.012338   0.405189   0.009920  -0.002452  -0.005372  -0.000067
     3  C    0.035068   0.009920   5.336951   0.366385   0.380565  -0.096989
     4  H    0.007223  -0.002452   0.366385   0.510379  -0.023647  -0.000073
     5  C    0.284138  -0.005372   0.380565  -0.023647   5.240336   0.425562
     6  H   -0.077321  -0.000067  -0.096989  -0.000073   0.425562   0.547739
     7  H   -0.064071   0.000622  -0.007002  -0.000065   0.014988  -0.000042
     8  C    0.283490  -0.013310  -0.390521   0.018331   0.052817   0.036604
     9  N   -0.016960   0.271100   0.483190  -0.052602  -0.250866   0.003675
              7          8          9
     1  N   -0.064071   0.283490  -0.016960
     2  H    0.000622  -0.013310   0.271100
     3  C   -0.007002  -0.390521   0.483190
     4  H   -0.000065   0.018331  -0.052602
     5  C    0.014988   0.052817  -0.250866
     6  H   -0.000042   0.036604   0.003675
     7  H    0.535258   0.444256  -0.095619
     8  C    0.444256   5.388114   0.170540
     9  N   -0.095619   0.170540   6.817303
 Mulliken atomic charges:
              1
     1  N   -0.274969
     2  H    0.322033
     3  C   -0.117568
     4  H    0.176521
     5  C   -0.118521
     6  H    0.160912
     7  H    0.171675
     8  C    0.009679
     9  N   -0.329761
 Sum of Mulliken charges=   0.00000
 Atomic charges with hydrogens summed into heavy atoms:
              1
     1  N   -0.274969
     2  H    0.000000
     3  C    0.058953
     4  H    0.000000
     5  C    0.042391
     6  H    0.000000
     7  H    0.000000
     8  C    0.181354
     9  N   -0.007728
 Sum of Mulliken charges=   0.00000
 Electronic spatial extent (au):  <R**2>=   285.8890
 Charge=     0.0000 electrons
 Dipole moment (field-independent basis, Debye):
    X=     1.2147    Y=     3.7169    Z=     0.0000  Tot=     3.9104
 Quadrupole moment (field-independent basis, Debye-Ang):
   XX=   -27.0047   YY=   -25.8752   ZZ=   -32.4702
   XY=    -3.4532   XZ=     0.0000   YZ=     0.0000
 Traceless Quadrupole moment (field-independent basis, Debye-Ang):
   XX=     1.4453   YY=     2.5748   ZZ=    -4.0202
   XY=    -3.4532   XZ=     0.0000   YZ=     0.0000
 Octapole moment (field-independent basis, Debye-Ang**2):
  XXX=     0.5553  YYY=    17.2239  ZZZ=     0.0000  XYY=     6.0496
  XXY=     6.7762  XXZ=     0.0000  XZZ=    -1.0285  YZZ=     1.2753
  YYZ=     0.0000  XYZ=     0.0000
 Hexadecapole moment (field-independent basis, Debye-Ang**3):
 XXXX=  -162.7593 YYYY=  -145.3466 ZZZZ=   -37.9429 XXXY=    -3.7102
 XXXZ=     0.0000 YYYX=   -10.7696 YYYZ=     0.0000 ZZZX=     0.0000
 ZZZY=     0.0000 XXYY=   -60.1172 XXZZ=   -41.8650 YYZZ=   -38.7028
 XXYZ=     0.0000 YYXZ=     0.0000 ZZXY=     0.4814
 N-N= 1.634267735884D+02 E-N=-8.509534118813D+02  KE= 2.228433381198D+02
 Symmetry A'   KE= 2.147342728722D+02
 Symmetry A"   KE= 8.109065247601D+00
 1\1\GINC-P1917\FOpt\RSVWN\6-31+G(d,p)\C3H4N2\RDJ3\06-Mar-2008\0\\#LSDA
 /6-31+G** opt freq\\1himidaz 1H-Imidazole casno=288324 method=51 basis
 =4 config=1\\0,1\N,-0.738944597,-0.9855407818,0.\H,-0.003267354,2.1139
 116817,0.\C,1.1137510808,0.2956390481,0.\H,2.1241498278,0.7011820855,0
 .\C,0.6265550029,-0.989741607,0.\H,1.1937963521,-1.9213279056,0.\H,-2.
 1095828988,0.6666997841,0.\C,-1.0887639807,0.2819542258,0.\N,0.0022175
 668,1.0950374692,0.\\Version=AM64L-G03RevD.01\State=1-A'\HF=-224.99649
 12\RMSD=4.683e-09\RMSF=1.135e-04\Thermal=0.\Dipole=0.4824338,1.4608714
 ,0.\PG=CS [SG(C3H4N2)]\\@


 The mind is not a vessel to be filled but a fire to be kindled.
                                  -- Plutarch
 Job cpu time:  0 days  0 hours  1 minutes 37.4 seconds.
 File lengths (MBytes):  RWF=     21 Int=      0 D2E=      0 Chk=      7 Scr=      1
 Normal termination of Gaussian 03 at Thu Mar  6 13:52:29 2008.
 Link1:  Proceeding to internal job step number  2.
 --------------------------------------------------------------------
 #N Geom=AllCheck Guess=Read SCRF=Check GenChk RSVWN/6-31+G(d,p) Freq
 --------------------------------------------------------------------
 1/10=4,29=7,30=1,38=1,40=1,46=1/1,3;
 2/40=1/2;
 3/5=1,6=6,7=111,11=2,16=1,25=1,30=1,70=2,71=2,74=205/1,2,3;
 4/5=1,7=1/1;
 5/5=2,38=6/2;
 8/6=4,10=90,11=11/1;
 11/6=1,8=1,9=11,15=111,16=1/1,2,10;
 10/6=1/2;
 6/7=2,8=2,9=2,10=2,18=1,28=1/1;
 7/8=1,10=1,25=1/1,2,3,16;
 1/10=4,30=1,46=1/3;
 99//99;
 -------------------------------------------------------------
 1himidaz 1H-Imidazole casno=288324 method=51 basis=4 config=1
 -------------------------------------------------------------
 Redundant internal coordinates taken from checkpoint file:
 /gaussian/Gau-1461.chk
 Charge =  0 Multiplicity = 1
 N,0,-0.738944597,-0.9855407818,0.
 H,0,-0.003267354,2.1139116817,0.
 C,0,1.1137510808,0.2956390481,0.
 H,0,2.1241498278,0.7011820855,0.
 C,0,0.6265550029,-0.989741607,0.
 H,0,1.1937963521,-1.9213279056,0.
 H,0,-2.1095828988,0.6666997841,0.
 C,0,-1.0887639807,0.2819542258,0.
 N,0,0.0022175668,1.0950374692,0.
 Recover connectivity data from disk.

 GradGradGradGradGradGradGradGradGradGradGradGradGradGradGradGradGradGrad
 Berny optimization.
 Initialization pass.
                           ----------------------------
                           !    Initial Parameters    !
                           ! (Angstroms and Degrees)  !
 --------------------------                            --------------------------
 ! Name  Definition              Value          Derivative Info.                !
 --------------------------------------------------------------------------------
 ! R1    R(1,5)                  1.3655         calculate D2E/DX2 analytically  !
 ! R2    R(1,8)                  1.3149         calculate D2E/DX2 analytically  !
 ! R3    R(2,9)                  1.0189         calculate D2E/DX2 analytically  !
 ! R4    R(3,4)                  1.0887         calculate D2E/DX2 analytically  !
 ! R5    R(3,5)                  1.3746         calculate D2E/DX2 analytically  !
 ! R6    R(3,9)                  1.3691         calculate D2E/DX2 analytically  !
 ! R7    R(5,6)                  1.0907         calculate D2E/DX2 analytically  !
 ! R8    R(7,8)                  1.0909         calculate D2E/DX2 analytically  !
 ! R9    R(8,9)                  1.3606         calculate D2E/DX2 analytically  !
 ! A1    A(5,1,8)              105.6054         calculate D2E/DX2 analytically  !
 ! A2    A(4,3,5)              132.6272         calculate D2E/DX2 analytically  !
 ! A3    A(4,3,9)              122.4079         calculate D2E/DX2 analytically  !
 ! A4    A(5,3,9)              104.965          calculate D2E/DX2 analytically  !
 ! A5    A(1,5,3)              110.5819         calculate D2E/DX2 analytically  !
 ! A6    A(1,5,6)              121.5134         calculate D2E/DX2 analytically  !
 ! A7    A(3,5,6)              127.9047         calculate D2E/DX2 analytically  !
 ! A8    A(1,8,7)              126.0805         calculate D2E/DX2 analytically  !
 ! A9    A(1,8,9)              111.2672         calculate D2E/DX2 analytically  !
 ! A10   A(7,8,9)              122.6523         calculate D2E/DX2 analytically  !
 ! A11   A(2,9,3)              126.0316         calculate D2E/DX2 analytically  !
 ! A12   A(2,9,8)              126.3879         calculate D2E/DX2 analytically  !
 ! A13   A(3,9,8)              107.5806         calculate D2E/DX2 analytically  !
 ! D1    D(8,1,5,3)              0.0            calculate D2E/DX2 analytically  !
 ! D2    D(8,1,5,6)            180.0            calculate D2E/DX2 analytically  !
 ! D3    D(5,1,8,7)            180.0            calculate D2E/DX2 analytically  !
 ! D4    D(5,1,8,9)              0.0            calculate D2E/DX2 analytically  !
 ! D5    D(4,3,5,1)            180.0            calculate D2E/DX2 analytically  !
 ! D6    D(4,3,5,6)              0.0            calculate D2E/DX2 analytically  !
 ! D7    D(9,3,5,1)              0.0            calculate D2E/DX2 analytically  !
 ! D8    D(9,3,5,6)            180.0            calculate D2E/DX2 analytically  !
 ! D9    D(4,3,9,2)              0.0            calculate D2E/DX2 analytically  !
 ! D10   D(4,3,9,8)            180.0            calculate D2E/DX2 analytically  !
 ! D11   D(5,3,9,2)            180.0            calculate D2E/DX2 analytically  !
 ! D12   D(5,3,9,8)              0.0            calculate D2E/DX2 analytically  !
 ! D13   D(1,8,9,2)            180.0            calculate D2E/DX2 analytically  !
 ! D14   D(1,8,9,3)              0.0            calculate D2E/DX2 analytically  !
 ! D15   D(7,8,9,2)              0.0            calculate D2E/DX2 analytically  !
 ! D16   D(7,8,9,3)            180.0            calculate D2E/DX2 analytically  !
 --------------------------------------------------------------------------------
 Trust Radius=3.00D-01 FncErr=1.00D-07 GrdErr=1.00D-07
 Number of steps in this run=   2 maximum allowed number of steps=   2.
 GradGradGradGradGradGradGradGradGradGradGradGradGradGradGradGradGradGrad

                          Input orientation:                          
 ---------------------------------------------------------------------
 Center     Atomic     Atomic              Coordinates (Angstroms)
 Number     Number      Type              X           Y           Z
 ---------------------------------------------------------------------
    1          7             0       -0.738945   -0.985541    0.000000
    2          1             0       -0.003267    2.113912    0.000000
    3          6             0        1.113751    0.295639    0.000000
    4          1             0        2.124150    0.701182    0.000000
    5          6             0        0.626555   -0.989742    0.000000
    6          1             0        1.193796   -1.921328    0.000000
    7          1             0       -2.109583    0.666700    0.000000
    8          6             0       -1.088764    0.281954    0.000000
    9          7             0        0.002218    1.095037    0.000000
 ---------------------------------------------------------------------
                    Distance matrix (angstroms):
                    1          2          3          4          5
     1  N    0.000000
     2  H    3.185565   0.000000
     3  C    2.252533   2.133974   0.000000
     4  H    3.323002   2.553764   1.088747   0.000000
     5  C    1.365506   3.166913   1.374614   2.258764   0.000000
     6  H    2.147367   4.209052   2.218412   2.782646   1.090695
     7  H    2.146753   2.555580   3.244621   4.233873   3.198476
     8  C    1.314883   2.129406   2.202558   3.240149   2.135305
     9  N    2.208648   1.018889   1.369140   2.158175   2.176258
                    6          7          8          9
     6  H    0.000000
     7  H    4.196451   0.000000
     8  C    3.172465   1.090917   0.000000
     9  N    3.243196   2.154803   1.360641   0.000000
 Stoichiometry    C3H4N2
 Framework group  CS[SG(C3H4N2)]
 Deg. of freedom    15
 Full point group                 CS
 Largest Abelian subgroup         CS      NOp   2
 Largest concise Abelian subgroup C1      NOp   1
                         Standard orientation:                         
 ---------------------------------------------------------------------
 Center     Atomic     Atomic              Coordinates (Angstroms)
 Number     Number      Type              X           Y           Z
 ---------------------------------------------------------------------
    1          7             0       -0.734713   -0.983767    0.000000
[...]
                    16                     17                     18
                    A'                     A'                     A'
 Frequencies --  1489.5654              1532.6554              3189.4469
 Red. masses --     4.3061                 3.9627                 1.0931
 Frc consts  --     5.6294                 5.4844                 6.5516
 IR Inten    --    20.4282                13.7331                 2.6896
 Atom AN      X      Y      Z        X      Y      Z        X      Y      Z
   1   7     0.02  -0.16   0.00    -0.03   0.21   0.00     0.00   0.00   0.00
   2   1     0.10  -0.15   0.00     0.52   0.01   0.00     0.00   0.00   0.00
   3   6    -0.02   0.30   0.00     0.11   0.22   0.00    -0.02  -0.01   0.00
   4   1     0.32  -0.48   0.00     0.31  -0.14   0.00     0.28   0.11   0.00
   5   6    -0.02  -0.18   0.00    -0.14  -0.24   0.00     0.04  -0.07   0.00
   6   1     0.08  -0.17   0.00     0.48   0.10   0.00    -0.48   0.80   0.00
   7   1    -0.27  -0.48   0.00     0.27   0.22   0.00    -0.18   0.07   0.00
   8   6     0.04   0.34   0.00     0.07  -0.25   0.00     0.02   0.00   0.00
   9   7    -0.03  -0.14   0.00    -0.11   0.00   0.00     0.00   0.00   0.00
                    19                     20                     21
                    A'                     A'                     A'
 Frequencies --  3194.9390              3221.6746              3573.3633
 Red. masses --     1.0977                 1.1048                 1.0820
 Frc consts  --     6.6016                 6.7560                 8.1398
 IR Inten    --     1.4117                 0.0677                55.0900
 Atom AN      X      Y      Z        X      Y      Z        X      Y      Z
   1   7     0.00   0.00   0.00     0.00   0.00   0.00     0.00   0.00   0.00
   2   1    -0.01   0.02   0.00     0.00  -0.02   0.00    -0.01   1.00   0.00
   3   6    -0.01   0.00   0.00    -0.08  -0.03   0.00     0.00   0.00   0.00
   4   1     0.12   0.05   0.00     0.88   0.35   0.00     0.01   0.00   0.00
   5   6     0.01  -0.01   0.00    -0.01   0.03   0.00     0.00   0.00   0.00
   6   1    -0.08   0.14   0.00     0.16  -0.27   0.00     0.00   0.00   0.00
   7   1     0.91  -0.34   0.00    -0.07   0.03   0.00    -0.01   0.00   0.00
   8   6    -0.08   0.03   0.00     0.01   0.00   0.00     0.00   0.00   0.00
   9   7     0.00   0.00   0.00     0.00   0.00   0.00     0.00  -0.08   0.00

 -------------------
 - Thermochemistry -
 -------------------
 Temperature   298.150 Kelvin.  Pressure   1.00000 Atm.
 Atom  1 has atomic number  7 and mass  14.00307
 Atom  2 has atomic number  1 and mass   1.00783
 Atom  3 has atomic number  6 and mass  12.00000
 Atom  4 has atomic number  1 and mass   1.00783
 Atom  5 has atomic number  6 and mass  12.00000
 Atom  6 has atomic number  1 and mass   1.00783
 Atom  7 has atomic number  1 and mass   1.00783
 Atom  8 has atomic number  6 and mass  12.00000
 Atom  9 has atomic number  7 and mass  14.00307
 Molecular mass:    68.03745 amu.
 Principal axes and moments of inertia in atomic units:
                           1         2         3
     EIGENVALUES --   184.08940 191.51421 375.60361
           X            0.41424   0.91017   0.00000
           Y            0.91017  -0.41424   0.00000
           Z            0.00000   0.00000   1.00000
 This molecule is an asymmetric top.
 Rotational symmetry number  1.
 Rotational temperatures (Kelvin)      0.47050     0.45226     0.23060
 Rotational constants (GHZ):           9.80361     9.42354     4.80491
 Zero-point vibrational energy     183400.8 (Joules/Mol)
                                   43.83385 (Kcal/Mol)
 Warning -- explicit consideration of   1 degrees of freedom as
           vibrations may cause significant error
 Vibrational temperatures:    794.55   912.75   964.86  1004.79  1104.25
          (Kelvin)           1202.21  1260.70  1321.46  1519.67  1558.39
                             1613.22  1723.33  1782.52  1982.78  2060.05
                             2143.15  2205.15  4588.90  4596.80  4635.27
                             5141.27
 
 Zero-point correction=                           0.069854 (Hartree/Particle)
 Thermal correction to Energy=                    0.073656
 Thermal correction to Enthalpy=                  0.074600
 Thermal correction to Gibbs Free Energy=         0.043582
 Sum of electronic and zero-point Energies=           -224.926638
 Sum of electronic and thermal Energies=              -224.922835
 Sum of electronic and thermal Enthalpies=            -224.921891
 Sum of electronic and thermal Free Energies=         -224.952910
 
                     E (Thermal)             CV                S
                      KCal/Mol        Cal/Mol-Kelvin    Cal/Mol-Kelvin
 Total                   46.220             13.701             65.284
 Electronic               0.000              0.000              0.000
 Translational            0.889              2.981             38.570
 Rotational               0.889              2.981             24.097
 Vibrational             44.442              7.739              2.617
 Vibration  1             0.908              1.135              0.540
                       Q            Log10(Q)             Ln(Q)
 Total Bot       0.899357D-20        -20.046068        -46.157777
 Total V=0       0.121432D+13         12.084334         27.825207
 Vib (Bot)       0.989758D-32        -32.004471        -73.693018
 Vib (Bot)  1    0.283560D+00         -0.547355         -1.260331
 Vib (V=0)       0.133638D+01          0.125930          0.289966
 Vib (V=0)  1    0.107481D+01          0.031332          0.072144
 Electronic      0.100000D+01          0.000000          0.000000
 Translational   0.220586D+08          7.343577         16.909211
 Rotational      0.411933D+05          4.614826         10.626030
 ***** Axes restored to original set *****
 -------------------------------------------------------------------
 Center     Atomic                   Forces (Hartrees/Bohr)
 Number     Number              X              Y              Z
 -------------------------------------------------------------------
    1          7          -0.000200870    0.000122267    0.000000000
    2          1          -0.000012445   -0.000162592    0.000000000
    3          6           0.000343672    0.000000315    0.000000000
    4          1          -0.000010784   -0.000022806    0.000000000
    5          6          -0.000182780   -0.000001483    0.000000000
    6          1           0.000044299    0.000101514    0.000000000
    7          1           0.000004825   -0.000082381    0.000000000
    8          6           0.000205343   -0.000064488    0.000000000
    9          7          -0.000191259    0.000109654    0.000000000
 -------------------------------------------------------------------
 Cartesian Forces:  Max     0.000343672 RMS     0.000113538

 GradGradGradGradGradGradGradGradGradGradGradGradGradGradGradGradGradGrad
 Berny optimization.
 Internal  Forces:  Max     0.000210853 RMS     0.000072041
 Search for a local minimum.
 Step number   1 out of a maximum of   2
 All quantities printed in internal units (Hartrees-Bohrs-Radians)
 Second derivative matrix not updated -- analytic derivatives used.
     Eigenvalues ---    0.00577   0.01026   0.01838   0.02532   0.05732
     Eigenvalues ---    0.05969   0.09015   0.09693   0.10207   0.10893
     Eigenvalues ---    0.22560   0.24029   0.34933   0.35811   0.36298
     Eigenvalues ---    0.36835   0.40532   0.44991   0.46394   0.46996
     Eigenvalues ---    0.578451000.000001000.000001000.000001000.00000
     Eigenvalues --- 1000.000001000.000001000.000001000.000001000.00000
     Eigenvalues --- 1000.000001000.000001000.000001000.000001000.00000
     Eigenvalues --- 1000.000001000.000001000.00000
 Angle between quadratic step and forces=  34.83 degrees.
 Linear search not attempted -- first point.
 Iteration  1 RMS(Cart)=  0.00035774 RMS(Int)=  0.00000011
 Iteration  2 RMS(Cart)=  0.00000013 RMS(Int)=  0.00000001
 Variable       Old X    -DE/DX   Delta X   Delta X   Delta X     New X
                                 (Linear)    (Quad)   (Total)
    R1        2.58043   0.00004   0.00000   0.00001   0.00001   2.58045
    R2        2.48477  -0.00021   0.00000  -0.00031  -0.00031   2.48446
    R3        1.92542  -0.00016   0.00000  -0.00036  -0.00036   1.92506
    R4        2.05743  -0.00002   0.00000  -0.00009  -0.00009   2.05735
    R5        2.59764   0.00002   0.00000   0.00009   0.00009   2.59773
    R6        2.58730   0.00011   0.00000   0.00046   0.00046   2.58776
    R7        2.06112  -0.00006   0.00000  -0.00014  -0.00014   2.06097
    R8        2.06153  -0.00003   0.00000  -0.00007  -0.00007   2.06147
    R9        2.57124  -0.00005   0.00000  -0.00030  -0.00030   2.57094
    A1        1.84316  -0.00006   0.00000  -0.00036  -0.00036   1.84280
    A2        2.31478   0.00006   0.00000   0.00012   0.00012   2.31490
    A3        2.13642   0.00010   0.00000   0.00040   0.00040   2.13682
    A4        1.83198  -0.00016   0.00000  -0.00052  -0.00052   1.83146
    A5        1.93002   0.00011   0.00000   0.00046   0.00046   1.93048
    A6        2.12081   0.00004   0.00000   0.00073   0.00073   2.12154
    A7        2.23236  -0.00014   0.00000  -0.00118  -0.00118   2.23117
    A8        2.20052  -0.00012   0.00000  -0.00085  -0.00085   2.19967
    A9        1.94198   0.00009   0.00000   0.00038   0.00038   1.94236
   A10        2.14069   0.00003   0.00000   0.00047   0.00047   2.14116
   A11        2.19967   0.00000   0.00000   0.00018   0.00018   2.19984
   A12        2.20588  -0.00003   0.00000  -0.00023  -0.00023   2.20566
   A13        1.87764   0.00003   0.00000   0.00005   0.00005   1.87768
    D1        0.00000   0.00000   0.00000   0.00000   0.00000   0.00000
    D2        3.14159   0.00000   0.00000   0.00000   0.00000   3.14159
    D3        3.14159   0.00000   0.00000   0.00000   0.00000   3.14159
    D4        0.00000   0.00000   0.00000   0.00000   0.00000   0.00000
    D5        3.14159   0.00000   0.00000   0.00000   0.00000   3.14159
    D6        0.00000   0.00000   0.00000   0.00000   0.00000   0.00000
    D7        0.00000   0.00000   0.00000   0.00000   0.00000   0.00000
    D8        3.14159   0.00000   0.00000   0.00000   0.00000   3.14159
    D9        0.00000   0.00000   0.00000   0.00000   0.00000   0.00000
   D10        3.14159   0.00000   0.00000   0.00000   0.00000   3.14159
   D11        3.14159   0.00000   0.00000   0.00000   0.00000   3.14159
   D12        0.00000   0.00000   0.00000   0.00000   0.00000   0.00000
   D13        3.14159   0.00000   0.00000   0.00000   0.00000   3.14159
   D14        0.00000   0.00000   0.00000   0.00000   0.00000   0.00000
   D15        0.00000   0.00000   0.00000   0.00000   0.00000   0.00000
   D16        3.14159   0.00000   0.00000   0.00000   0.00000   3.14159
         Item               Value     Threshold  Converged?
 Maximum Force            0.000211     0.000450     YES
 RMS     Force            0.000072     0.000300     YES
 Maximum Displacement     0.001116     0.001800     YES
 RMS     Displacement     0.000358     0.001200     YES
 Predicted change in Energy=-3.845752D-07
 Optimization completed.
    -- Stationary point found.
                           ----------------------------
                           !   Optimized Parameters   !
                           ! (Angstroms and Degrees)  !
 --------------------------                            --------------------------
 ! Name  Definition              Value          Derivative Info.                !
 --------------------------------------------------------------------------------
 ! R1    R(1,5)                  1.3655         -DE/DX =    0.0                 !
 ! R2    R(1,8)                  1.3149         -DE/DX =   -0.0002              !
 ! R3    R(2,9)                  1.0189         -DE/DX =   -0.0002              !
 ! R4    R(3,4)                  1.0887         -DE/DX =    0.0                 !
 ! R5    R(3,5)                  1.3746         -DE/DX =    0.0                 !
 ! R6    R(3,9)                  1.3691         -DE/DX =    0.0001              !
 ! R7    R(5,6)                  1.0907         -DE/DX =   -0.0001              !
 ! R8    R(7,8)                  1.0909         -DE/DX =    0.0                 !
 ! R9    R(8,9)                  1.3606         -DE/DX =   -0.0001              !
 ! A1    A(5,1,8)              105.6054         -DE/DX =   -0.0001              !
 ! A2    A(4,3,5)              132.6272         -DE/DX =    0.0001              !
 ! A3    A(4,3,9)              122.4079         -DE/DX =    0.0001              !
 ! A4    A(5,3,9)              104.965          -DE/DX =   -0.0002              !
 ! A5    A(1,5,3)              110.5819         -DE/DX =    0.0001              !
 ! A6    A(1,5,6)              121.5134         -DE/DX =    0.0                 !
 ! A7    A(3,5,6)              127.9047         -DE/DX =   -0.0001              !
 ! A8    A(1,8,7)              126.0805         -DE/DX =   -0.0001              !
 ! A9    A(1,8,9)              111.2672         -DE/DX =    0.0001              !
 ! A10   A(7,8,9)              122.6523         -DE/DX =    0.0                 !
 ! A11   A(2,9,3)              126.0316         -DE/DX =    0.0                 !
 ! A12   A(2,9,8)              126.3879         -DE/DX =    0.0                 !
 ! A13   A(3,9,8)              107.5806         -DE/DX =    0.0                 !
 ! D1    D(8,1,5,3)              0.0            -DE/DX =    0.0                 !
 ! D2    D(8,1,5,6)            180.0            -DE/DX =    0.0                 !
 ! D3    D(5,1,8,7)            180.0            -DE/DX =    0.0                 !
 ! D4    D(5,1,8,9)              0.0            -DE/DX =    0.0                 !
 ! D5    D(4,3,5,1)            180.0            -DE/DX =    0.0                 !
 ! D6    D(4,3,5,6)              0.0            -DE/DX =    0.0                 !
 ! D7    D(9,3,5,1)              0.0            -DE/DX =    0.0                 !
 ! D8    D(9,3,5,6)            180.0            -DE/DX =    0.0                 !
 ! D9    D(4,3,9,2)              0.0            -DE/DX =    0.0                 !
 ! D10   D(4,3,9,8)            180.0            -DE/DX =    0.0                 !
 ! D11   D(5,3,9,2)            180.0            -DE/DX =    0.0                 !
 ! D12   D(5,3,9,8)              0.0            -DE/DX =    0.0                 !
 ! D13   D(1,8,9,2)            180.0            -DE/DX =    0.0                 !
 ! D14   D(1,8,9,3)              0.0            -DE/DX =    0.0                 !
 ! D15   D(7,8,9,2)              0.0            -DE/DX =    0.0                 !
 ! D16   D(7,8,9,3)            180.0            -DE/DX =    0.0                 !
 --------------------------------------------------------------------------------
 GradGradGradGradGradGradGradGradGradGradGradGradGradGradGradGradGradGrad

 1\1\GINC-P1917\Freq\RSVWN\6-31+G(d,p)\C3H4N2\RDJ3\06-Mar-2008\0\\#N Ge
 om=AllCheck Guess=Read SCRF=Check GenChk RSVWN/6-31+G(d,p) Freq\\1himi
 daz 1H-Imidazole casno=288324 method=51 basis=4 config=1\\0,1\N,-0.738
 944597,-0.9855407818,0.\H,-0.003267354,2.1139116817,0.\C,1.1137510808,
 0.2956390481,0.\H,2.1241498278,0.7011820855,0.\C,0.6265550029,-0.98974
 1607,0.\H,1.1937963521,-1.9213279056,0.\H,-2.1095828988,0.6666997841,0
 .\C,-1.0887639807,0.2819542258,0.\N,0.0022175668,1.0950374692,0.\\Vers
 ion=AM64L-G03RevD.01\State=1-A'\HF=-224.9964912\RMSD=2.121e-09\RMSF=1.
 135e-04\ZeroPoint=0.0698537\Thermal=0.0736558\Dipole=0.4824343,1.46087
 12,0.\DipoleDeriv=-0.3930754,-0.0741029,0.,-0.0778257,-0.5699224,0.,0.
 ,0.,-0.2952305,0.1901501,-0.0126825,0.,-0.0125891,0.2003116,0.,0.,0.,0
 .3293209,-0.1071378,-0.1807598,0.,-0.0077505,0.2136081,0.,0.,0.,-0.168
 3326,0.024595,-0.0321151,0.,-0.0563702,0.0672465,0.,0.,0.,0.2089251,0.
 1753063,0.0007876,0.,-0.0416975,0.1276377,0.,0.,0.,-0.1470786,0.039212
 1,0.0468465,0.,0.074876,0.0254002,0.,0.,0.,0.1649828,0.0315416,0.04935
 94,0.,0.0397444,0.0481719,0.,0.,0.,0.1768616,0.0806707,0.1626633,0.,0.
 1441849,0.5060135,0.,0.,0.,-0.0471918,-0.0412627,0.0400036,0.,-0.06257
 21,-0.6184671,0.,0.,0.,-0.2222569\Polar=56.3759047,0.2090142,54.294729
 3,0.,0.,31.3611707\PG=CS [SG(C3H4N2)]\NImag=0\\0.49447582,-0.04871104,
 0.58931584,0.,0.,0.10105404,-0.00552643,-0.00711302,0.,0.05279235,-0.0
 0214392,-0.00153073,0.,-0.00318136,0.45380053,0.,0.,0.00658441,0.,0.,0
 .01201276,-0.05395137,-0.00512772,0.,0.01007544,-0.00588237,0.,0.80628
 207,-0.07399839,-0.00037914,0.,0.02417356,-0.00565903,0.,0.12124734,0.
 65626300,0.,0.,0.01692862,0.,0.,-0.00655666,0.,0.,0.10368936,0.0002438
 5,0.00001753,0.,0.00003246,-0.00004305,0.,-0.30453654,-0.10053871,0.,0
 .32041092,-0.00530734,-0.00433459,0.,-0.00077683,0.00030148,0.,-0.1110
 1314,-0.09648527,0.,0.10837682,0.08829351,0.,0.,0.00637319,0.,0.,-0.00
 113626,0.,0.,-0.01873929,0.,0.,0.01678663,-0.29988526,0.00648281,0.,-0
 .00693869,-0.00032125,0.,-0.11876636,-0.08325188,0.,0.00033785,-0.0195
 2660,0.,0.61074351,-0.00973195,-0.09050248,0.,0.00536832,-0.00057969,0
 .,-0.09553594,-0.35671314,0.,0.00205270,0.00666432,0.,-0.10338612,0.82
 959700,0.,0.,-0.06828358,0.,0.,0.00283029,0.,0.,-0.06280689,0.,0.,-0.0
 0152081,0.,0.,0.12714771,-0.01540487,0.02501869,0.,0.00097441,-0.00017
 513,0.,0.01000757,-0.00937100,0.,-0.00022623,0.00061403,0.,-0.12037638
 ,0.12266153,0.,0.13208933,0.00021272,0.00645860,0.,0.00085821,0.000009
 86,0.,0.01446433,-0.00959847,0.,-0.00033803,-0.00012322,0.,0.12507050,
 -0.27048794,0.,-0.13645368,0.27543973,0.,0.,-0.00507520,0.,0.,0.001622
 33,0.,0.,-0.00026463,0.,0.,-0.00200913,0.,0.,-0.02676793,0.,0.,0.02132
 126,-0.00072298,0.00449183,0.,-0.00043310,-0.00009661,0.,-0.00024108,-
 0.00381918,0.,-0.00027986,0.00059401,0.,0.00192750,0.00063522,0.,0.000
 04204,-0.00001930,0.,0.32162043,0.02728212,-0.00814553,0.,0.00061350,0
 .00019695,0.,-0.00274196,-0.00399068,0.,-0.00060131,0.00097942,0.,0.00
 201094,-0.00491257,0.,0.00126564,0.00033577,0.,-0.09991365,0.08886541,
 0.,0.,-0.00535714,0.,0.,-0.00112607,0.,0.,0.00288592,0.,0.,0.00163043,
 0.,0.,0.00634499,0.,0.,0.00104495,0.,0.,0.01849684,-0.11042620,0.07159
 071,0.,0.01407127,0.00752661,0.,-0.09385027,0.02432217,0.,-0.00136848,
 0.00333490,0.,-0.06540338,0.02751138,0.,-0.00628181,-0.00167931,0.,-0.
 30549230,0.09396437,0.,0.82649256,0.10069224,-0.39264778,0.,-0.0217475
 0,-0.00809837,0.,-0.02341332,-0.00467997,0.,0.00216129,-0.00641588,0.,
 0.07959810,-0.03026915,0.,0.00080442,0.00156231,0.,0.08915091,-0.08370
 611,0.,-0.12482663,0.68830349,0.,0.,-0.07347206,0.,0.,-0.00786665,0.,0
 .,0.01609945,0.,0.,0.00296812,0.,0.,0.01076531,0.,0.,0.00527097,0.,0.,
 -0.02127861,0.,0.,0.12518046,-0.00880257,-0.04664979,0.,-0.06504771,0.
 00431709,0.,-0.25501946,0.10123608,0.,-0.01461397,0.02370414,0.,-0.001
 63881,0.05042487,0.,-0.00082408,-0.00211544,0.,-0.01642065,-0.02187966
 ,0.,-0.25774139,-0.10241950,0.,0.62010865,0.01170555,-0.09823420,0.,0.
 00180511,-0.43844101,0.,0.10800279,-0.17875730,0.,-0.01108724,0.011120
 22,0.,-0.00667649,-0.08279635,0.,-0.00436449,-0.00359665,0.,0.00897677
 ,0.01037733,0.,-0.10174422,-0.16404855,0.,-0.00661779,0.94437652,0.,0.
 ,0.02124772,0.,0.,-0.00636415,0.,0.,-0.05123587,0.,0.,-0.00435287,0.,0
 .,0.01229090,0.,0.,0.00485739,0.,0.,-0.00264130,0.,0.,-0.05766698,0.,0
 .,0.08386517\\0.00020087,-0.00012227,0.,0.00001245,0.00016259,0.,-0.00
 034367,-0.00000032,0.,0.00001078,0.00002281,0.,0.00018278,0.00000148,0
 .,-0.00004430,-0.00010151,0.,-0.00000482,0.00008238,0.,-0.00020534,0.0
 0006449,0.,0.00019126,-0.00010965,0.\\\@


 YOU CANNOT THROW TO THE GROUND THE LETTERS OF
 THE GREEK ALPHABET AND PICK UP THE ILIAD.
        - RUFUS CHOATE, 1799-1859
 Job cpu time:  0 days  0 hours  2 minutes  6.2 seconds.
 File lengths (MBytes):  RWF=     23 Int=      0 D2E=      0 Chk=      7 Scr=      1
 Normal termination of Gaussian 03 at Thu Mar  6 13:54:36 2008.
