 host = p2212 (kernel = 2.6.18-128.el5)
 Running revision E01

 Current disk usage on p2212

 START DATE Mon Jun 20 07:11:16 EDT 2011
 GAUSS_LFLAGS = '-nodelist "p2212"'
 Entering Gaussian System, Link 0=/usr/local/gaussian03-rev-E01-64/g03/g03
 Initial command:
 /usr/local/gaussian03-rev-E01-64/g03/l1.exe /gaussian/Gau-26770.inp -scrdir=/gaussian/
 Entering Link 1 = /usr/local/gaussian03-rev-E01-64/g03/l1.exe PID=     26779.
  
 Copyright (c) 1988,1990,1992,1993,1995,1998,2003,2004,2007, Gaussian, Inc.
                  All Rights Reserved.
  
 This is the Gaussian(R) 03 program.  It is based on the
 the Gaussian(R) 98 system (copyright 1998, Gaussian, Inc.),
 the Gaussian(R) 94 system (copyright 1995, Gaussian, Inc.),
 the Gaussian 92(TM) system (copyright 1992, Gaussian, Inc.),
 the Gaussian 90(TM) system (copyright 1990, Gaussian, Inc.),
 the Gaussian 88(TM) system (copyright 1988, Gaussian, Inc.),
 the Gaussian 86(TM) system (copyright 1986, Carnegie Mellon
 University), and the Gaussian 82(TM) system (copyright 1983,
 Carnegie Mellon University). Gaussian is a federally registered
 trademark of Gaussian, Inc.
  
 This software contains proprietary and confidential information,
 including trade secrets, belonging to Gaussian, Inc.
  
 This software is provided under written license and may be
 used, copied, transmitted, or stored only in accord with that
 written license.
  
 The following legend is applicable only to US Government
 contracts under FAR:
  
                    RESTRICTED RIGHTS LEGEND
  
 Use, reproduction and disclosure by the US Government is
 subject to restrictions as set forth in subparagraphs (a)
 and (c) of the Commercial Computer Software - Restricted
 Rights clause in FAR 52.227-19.
  
 Gaussian, Inc.
 340 Quinnipiac St., Bldg. 40, Wallingford CT 06492
  
  
 ---------------------------------------------------------------
 Warning -- This program may not be used in any manner that
 competes with the business of Gaussian, Inc. or will provide
 assistance to any competitor of Gaussian, Inc.  The licensee
 of this program is prohibited from giving any competitor of
 Gaussian, Inc. access to this program.  By using this program,
 the user acknowledges that Gaussian, Inc. is engaged in the
 business of creating and licensing software in the field of
 computational chemistry and represents and warrants to the
 licensee that it is not a competitor of Gaussian, Inc. and that
 it will not use this program in any manner prohibited above.
 ---------------------------------------------------------------
  

 Cite this work as:
 Gaussian 03, Revision E.01,
 M. J. Frisch, G. W. Trucks, H. B. Schlegel, G. E. Scuseria, 
 M. A. Robb, J. R. Cheeseman, J. A. Montgomery, Jr., T. Vreven, 
 K. N. Kudin, J. C. Burant, J. M. Millam, S. S. Iyengar, J. Tomasi, 
 V. Barone, B. Mennucci, M. Cossi, G. Scalmani, N. Rega, 
 G. A. Petersson, H. Nakatsuji, M. Hada, M. Ehara, K. Toyota, 
 R. Fukuda, J. Hasegawa, M. Ishida, T. Nakajima, Y. Honda, O. Kitao, 
 H. Nakai, M. Klene, X. Li, J. E. Knox, H. P. Hratchian, J. B. Cross, 
 V. Bakken, C. Adamo, J. Jaramillo, R. Gomperts, R. E. Stratmann, 
 O. Yazyev, A. J. Austin, R. Cammi, C. Pomelli, J. W. Ochterski, 
 P. Y. Ayala, K. Morokuma, G. A. Voth, P. Salvador, J. J. Dannenberg, 
 V. G. Zakrzewski, S. Dapprich, A. D. Daniels, M. C. Strain, 
 O. Farkas, D. K. Malick, A. D. Rabuck, K. Raghavachari, 
 J. B. Foresman, J. V. Ortiz, Q. Cui, A. G. Baboul, S. Clifford, 
 J. Cioslowski, B. B. Stefanov, G. Liu, A. Liashenko, P. Piskorz, 
 I. Komaromi, R. L. Martin, D. J. Fox, T. Keith, M. A. Al-Laham, 
 C. Y. Peng, A. Nanayakkara, M. Challacombe, P. M. W. Gill, 
 B. Johnson, W. Chen, M. W. Wong, C. Gonzalez, and J. A. Pople, 
 Gaussian, Inc., Wallingford CT, 2004.
 
 ******************************************
 Gaussian 03:  AM64L-G03RevE.01 11-Sep-2007
                20-Jun-2011 
 ******************************************
 %mem=24000000
 ------------------------
 #PBE1PBE/6-31G* opt freq
 ------------------------
 1/14=-1,18=20,26=3,38=1/1,3;
 2/9=110,17=6,18=5,40=1/2;
 3/5=1,6=6,7=1,11=2,16=1,25=1,30=1,74=-13/1,2,3;
 4//1;
 5/5=2,38=5/2;
 6/7=2,8=2,9=2,10=2,28=1/1;
 7//1,2,3,16;
 1/14=-1,18=20/3(3);
 2/9=110/2;
 6/7=2,8=2,9=2,10=2,19=2,28=1/1;
 99//99;
 2/9=110/2;
 3/5=1,6=6,7=1,11=2,16=1,25=1,30=1,74=-13/1,2,3;
 4/5=5,16=3/1;
 5/5=2,38=5/2;
 7//1,2,3,16;
 1/14=-1,18=20/3(-5);
 2/9=110/2;
 6/7=2,8=2,9=2,10=2,19=2,28=1/1;
 99/9=1/99;
 Leave Link    1 at Mon Jun 20 07:11:18 2011, MaxMem=   24000000 cpu:       0.8
 (Enter /usr/local/gaussian03-rev-E01-64/g03/l101.exe)
 --------------------------------------------------
 1H imidazole C3H4N2 casno=288324 method=54 basis=1
 --------------------------------------------------
 Symbolic Z-matrix:
 Charge =  0 Multiplicity = 1
 N                     0.30938   0.        1.30938 
 H                     0.3125    0.       -1.6875 
 C                    -1.06875   0.       -0.28438 
 H                    -1.91875   0.       -0.79063 
 C                    -0.93438   0.        1.02812 
 H                    -1.675     0.        1.6875 
 H                     1.91875   0.        0.09063 
 C                     0.93438   0.        0.19063 
 N                     0.09688   0.       -0.775 
 
                    Isotopes and Nuclear Properties:
 (Nuclear quadrupole moments (NQMom) in fm**2, nuclear magnetic moments (NMagM)
  in nuclear magnetons)

  Atom         1           2           3           4           5           6           7           8           9
 IAtWgt=          14           1          12           1          12           1           1          12          14
 AtmWgt=  14.0030740   1.0078250  12.0000000   1.0078250  12.0000000   1.0078250   1.0078250  12.0000000  14.0030740
 NucSpn=           2           1           0           1           0           1           1           0           2
 AtZEff=   0.0000000   0.0000000   0.0000000   0.0000000   0.0000000   0.0000000   0.0000000   0.0000000   0.0000000
 NQMom=    2.0440000   0.0000000   0.0000000   0.0000000   0.0000000   0.0000000   0.0000000   0.0000000   2.0440000
 NMagM=    0.4037610   2.7928460   0.0000000   2.7928460   0.0000000   2.7928460   2.7928460   0.0000000   0.4037610
 Leave Link  101 at Mon Jun 20 07:11:18 2011, MaxMem=   24000000 cpu:       0.5
 (Enter /usr/local/gaussian03-rev-E01-64/g03/l103.exe)

 GradGradGradGradGradGradGradGradGradGradGradGradGradGradGradGradGradGrad
 Berny optimization.
 Initialization pass.
                           ----------------------------
                           !    Initial Parameters    !
                           ! (Angstroms and Degrees)  !
 --------------------------                            --------------------------
 ! Name  Definition              Value          Derivative Info.                !
 --------------------------------------------------------------------------------
 ! R1    R(1,5)                  1.2752         estimate D2E/DX2                !
 ! R2    R(1,8)                  1.2815         estimate D2E/DX2                !
 ! R3    R(2,9)                  0.9376         estimate D2E/DX2                !
 ! R4    R(3,4)                  0.9893         estimate D2E/DX2                !
 ! R5    R(3,5)                  1.3194         estimate D2E/DX2                !
 ! R6    R(3,9)                  1.2647         estimate D2E/DX2                !
 ! R7    R(5,6)                  0.9916         estimate D2E/DX2                !
 ! R8    R(7,8)                  0.9894         estimate D2E/DX2                !
 ! R9    R(8,9)                  1.2782         estimate D2E/DX2                !
 ! A1    A(5,1,8)              106.4483         estimate D2E/DX2                !
 ! A2    A(4,3,5)              126.6232         estimate D2E/DX2                !
 ! A3    A(4,3,9)              126.3957         estimate D2E/DX2                !
 ! A4    A(5,3,9)              106.9812         estimate D2E/DX2                !
 ! A5    A(1,5,3)              108.5877         estimate D2E/DX2                !
 ! A6    A(1,5,6)              125.5794         estimate D2E/DX2                !
 ! A7    A(3,5,6)              125.8329         estimate D2E/DX2                !
 ! A8    A(1,8,7)              124.9909         estimate D2E/DX2                !
 ! A9    A(1,8,9)              109.8741         estimate D2E/DX2                !
 ! A10   A(7,8,9)              125.1349         estimate D2E/DX2                !
 ! A11   A(2,9,3)              126.122          estimate D2E/DX2                !
 ! A12   A(2,9,8)              125.7693         estimate D2E/DX2                !
 ! A13   A(3,9,8)              108.1088         estimate D2E/DX2                !
 ! D1    D(8,1,5,3)              0.0            estimate D2E/DX2                !
 ! D2    D(8,1,5,6)            180.0            estimate D2E/DX2                !
 ! D3    D(5,1,8,7)            180.0            estimate D2E/DX2                !
 ! D4    D(5,1,8,9)              0.0            estimate D2E/DX2                !
 ! D5    D(4,3,5,1)            180.0            estimate D2E/DX2                !
 ! D6    D(4,3,5,6)              0.0            estimate D2E/DX2                !
 ! D7    D(9,3,5,1)              0.0            estimate D2E/DX2                !
 ! D8    D(9,3,5,6)            180.0            estimate D2E/DX2                !
 ! D9    D(4,3,9,2)              0.0            estimate D2E/DX2                !
 ! D10   D(4,3,9,8)            180.0            estimate D2E/DX2                !
 ! D11   D(5,3,9,2)            180.0            estimate D2E/DX2                !
 ! D12   D(5,3,9,8)              0.0            estimate D2E/DX2                !
 ! D13   D(1,8,9,2)            180.0            estimate D2E/DX2                !
 ! D14   D(1,8,9,3)              0.0            estimate D2E/DX2                !
 ! D15   D(7,8,9,2)              0.0            estimate D2E/DX2                !
 ! D16   D(7,8,9,3)            180.0            estimate D2E/DX2                !
 --------------------------------------------------------------------------------
 Trust Radius=3.00D-01 FncErr=1.00D-07 GrdErr=1.00D-06
 Number of steps in this run=  48 maximum allowed number of steps= 100.
 GradGradGradGradGradGradGradGradGradGradGradGradGradGradGradGradGradGrad

 Leave Link  103 at Mon Jun 20 07:11:19 2011, MaxMem=   24000000 cpu:       0.0
 (Enter /usr/local/gaussian03-rev-E01-64/g03/l202.exe)
                          Input orientation:                          
 ---------------------------------------------------------------------
 Center     Atomic     Atomic              Coordinates (Angstroms)
 Number     Number      Type              X           Y           Z
 ---------------------------------------------------------------------
    1          7             0        0.309375    0.000000    1.309375
    2          1             0        0.312500    0.000000   -1.687500
    3          6             0       -1.068750    0.000000   -0.284375
    4          1             0       -1.918750    0.000000   -0.790625
    5          6             0       -0.934375    0.000000    1.028125
    6          1             0       -1.675000    0.000000    1.687500
    7          1             0        1.918750    0.000000    0.090625
    8          6             0        0.934375    0.000000    0.190625
    9          7             0        0.096875    0.000000   -0.775000
 ---------------------------------------------------------------------
                    Distance matrix (angstroms):
                    1          2          3          4          5
     1  N    0.000000
     2  H    2.996877   0.000000
     3  C    2.106957   1.968911   0.000000
     4  H    3.061787   2.404758   0.989338   0.000000
     5  C    1.275153   2.988196   1.319361   2.068054   0.000000
     6  H    2.020080   3.916731   2.062966   2.490084   0.991615
     7  H    2.018772   2.396199   3.010944   3.937386   3.003203
     8  C    1.281494   1.978404   2.058673   3.017147   2.047836
     9  N    2.095179   0.937630   1.264672   2.015686   2.077194
                    6          7          8          9
     6  H    0.000000
     7  H    3.932563   0.000000
     8  C    3.008234   0.989441   0.000000
     9  N    3.033718   2.017061   1.278217   0.000000
 Stoichiometry    C3H4N2
 Framework group  CS[SG(C3H4N2)]
 Deg. of freedom    15
 Full point group                 CS
 Largest Abelian subgroup         CS      NOp   2
 Largest concise Abelian subgroup C1      NOp   1
                         Standard orientation:                         
 ---------------------------------------------------------------------
 Center     Atomic     Atomic              Coordinates (Angstroms)
 Number     Number      Type              X           Y           Z
 ---------------------------------------------------------------------
    1          7             0       -0.674969   -0.941702    0.000000
    2          1             0       -0.005288    1.979393    0.000000
    3          6             0        1.025744    0.302019    0.000000
    4          1             0        1.967693    0.604544    0.000000
    5          6             0        0.600174   -0.946822    0.000000
    6          1             0        1.173884   -1.755622    0.000000
    7          1             0       -1.969692    0.607211    0.000000
    8          6             0       -1.032886    0.288794    0.000000
    9          7             0        0.000000    1.041778    0.000000
 ---------------------------------------------------------------------
 Rotational constants (GHZ):     11.1543378     10.4769589      5.4025212
 Leave Link  202 at Mon Jun 20 07:11:19 2011, MaxMem=   24000000 cpu:       0.0
 (Enter /usr/local/gaussian03-rev-E01-64/g03/l301.exe)
 Standard basis: 6-31G(d) (6D, 7F)
 There are    63 symmetry adapted basis functions of A'  symmetry.
 There are    20 symmetry adapted basis functions of A"  symmetry.
 Integral buffers will be    131072 words long.
 Raffenetti 2 integral format.
 Two-electron integral symmetry is turned on.
    83 basis functions,   156 primitive gaussians,    83 cartesian basis functions
    18 alpha electrons       18 beta electrons
       nuclear repulsion energy       173.5664703841 Hartrees.
 IExCor=1009 DFT=T Ex=PBE+HF Corr=PBE ExCW=0 ScaHFX=  0.250000
 ScaDFX=  0.750000  0.750000  1.000000  1.000000
 IRadAn=      0 IRanWt=     -1 IRanGd=            0 ICorTp=0
 NAtoms=    9 NActive=    9 NUniq=    9 SFac= 7.50D-01 NAtFMM=   80 NAOKFM=F Big=F
 Leave Link  301 at Mon Jun 20 07:11:19 2011, MaxMem=   24000000 cpu:       0.0
 (Enter /usr/local/gaussian03-rev-E01-64/g03/l302.exe)
 NPDir=0 NMtPBC=     1 NCelOv=     1 NCel=       1 NClECP=     1 NCelD=      1
         NCelK=      1 NCelE2=     1 NClLst=     1 CellRange=     0.0.
 One-electron integrals computed using PRISM.
 NBasis=    83 RedAO= T  NBF=    63    20
 NBsUse=    83 1.00D-06 NBFU=    63    20
 Precomputing XC quadrature grid using
 IXCGrd= 2 IRadAn=           0 IRanWt=          -1 IRanGd=           0.
 NRdTot=     555 NPtTot=       69836 NUsed=       73758 NTot=       73790
 NSgBfM=    83    83    83    83.
 Leave Link  302 at Mon Jun 20 07:11:20 2011, MaxMem=   24000000 cpu:       0.2
 (Enter /usr/local/gaussian03-rev-E01-64/g03/l303.exe)
 DipDrv:  MaxL=1.
 Leave Link  303 at Mon Jun 20 07:11:20 2011, MaxMem=   24000000 cpu:       0.0
 (Enter /usr/local/gaussian03-rev-E01-64/g03/l401.exe)
 Harris functional with IExCor= 1009 diagonalized for initial guess.
 ExpMin= 1.61D-01 ExpMax= 4.17D+03 ExpMxC= 6.27D+02 IAcc=1 IRadAn=         1 AccDes= 1.00D-06
 HarFok:  IExCor=1009 AccDes= 1.00D-06 IRadAn=         1 IDoV=1
 ScaDFX=  1.000000  1.000000  1.000000  1.000000
 Harris En= -226.066351007391    
 Initial guess orbital symmetries:
       Occupied  (A') (A') (A') (A') (A') (A') (A') (A') (A') (A')
                 (A') (A') (A') (A") (A') (A") (A') (A")
       Virtual   (A") (A") (A') (A') (A') (A') (A') (A') (A') (A')
                 (A') (A') (A") (A") (A') (A") (A') (A') (A') (A')
                 (A") (A') (A") (A') (A') (A') (A') (A') (A') (A')
                 (A") (A') (A') (A") (A") (A') (A') (A") (A") (A')
                 (A') (A') (A') (A') (A') (A') (A") (A") (A') (A")
                 (A') (A") (A') (A') (A") (A') (A') (A') (A') (A')
                 (A') (A') (A') (A') (A')
 The electronic state of the initial guess is 1-A'.
 Leave Link  401 at Mon Jun 20 07:11:20 2011, MaxMem=   24000000 cpu:       0.2
 (Enter /usr/local/gaussian03-rev-E01-64/g03/l502.exe)
 Closed shell SCF:
 Requested convergence on RMS density matrix=1.00D-08 within 128 cycles.
 Requested convergence on MAX density matrix=1.00D-06.
 Requested convergence on             energy=1.00D-06.
 No special actions if energy rises.
 Using DIIS extrapolation, IDIIS=  1040.
 Integral symmetry usage will be decided dynamically.
        73757 words used for storage of precomputed grid.
 Keep R1 integrals in memory in canonical form, NReq=     7915306.
 IEnd=    116005 IEndB=    116005 NGot=  24000000 MDV=  17829753
 LenX=  17829753
 Symmetry not used in FoFDir.
 MinBra= 0 MaxBra= 2 Meth= 1.
 IRaf=       0 NMat=   1 IRICut=       1 DoRegI=T DoRafI=F ISym2E= 0 JSym2E=0.
 Integral accuracy reduced to 1.0D-05 until final iterations.

 Cycle   1  Pass 0  IDiag  1:
 E= -225.718081866929    
 DIIS: error= 4.94D-02 at cycle   1 NSaved=   1.
 NSaved= 1 IEnMin= 1 EnMin= -225.718081866929     IErMin= 1 ErrMin= 4.94D-02
 ErrMax= 4.94D-02 EMaxC= 1.00D-01 BMatC= 1.68D-01 BMatP= 1.68D-01
 IDIUse=3 WtCom= 5.06D-01 WtEn= 4.94D-01
 Coeff-Com:  0.100D+01
 Coeff-En:   0.100D+01
 Coeff:      0.100D+01
 Gap=     0.215 Goal=   None    Shift=    0.000
 GapD=    0.215 DampG=1.000 DampE=0.500 DampFc=0.5000 IDamp=-1.
 Damping current iteration by 5.00D-01
 RMSDP=1.23D-02 MaxDP=1.45D-01              OVMax= 2.00D-01

 Cycle   2  Pass 0  IDiag  1:
 E= -225.798946247172     Delta-E=       -0.080864380243 Rises=F Damp=T
 DIIS: error= 8.57D-03 at cycle   2 NSaved=   2.
 NSaved= 2 IEnMin= 2 EnMin= -225.798946247172     IErMin= 2 ErrMin= 8.57D-03
 ErrMax= 8.57D-03 EMaxC= 1.00D-01 BMatC= 9.60D-03 BMatP= 1.68D-01
 IDIUse=3 WtCom= 9.14D-01 WtEn= 8.57D-02
 Coeff-Com:  0.340D-01 0.966D+00
 Coeff-En:   0.405D-01 0.959D+00
 Coeff:      0.346D-01 0.965D+00
 Gap=     0.297 Goal=   None    Shift=    0.000
 RMSDP=2.89D-03 MaxDP=4.35D-02 DE=-8.09D-02 OVMax= 1.35D-01

 Cycle   3  Pass 0  IDiag  1:
 E= -225.886215715667     Delta-E=       -0.087269468495 Rises=F Damp=F
 DIIS: error= 1.26D-02 at cycle   3 NSaved=   3.
 NSaved= 3 IEnMin= 3 EnMin= -225.886215715667     IErMin= 2 ErrMin= 8.57D-03
 ErrMax= 1.26D-02 EMaxC= 1.00D-01 BMatC= 9.45D-03 BMatP= 9.60D-03
 IDIUse=3 WtCom= 8.74D-01 WtEn= 1.26D-01
 Coeff-Com: -0.258D-01 0.508D+00 0.518D+00
 Coeff-En:   0.000D+00 0.000D+00 0.100D+01
 Coeff:     -0.225D-01 0.444D+00 0.579D+00
 Gap=     0.297 Goal=   None    Shift=    0.000
 RMSDP=1.46D-03 MaxDP=2.71D-02 DE=-8.73D-02 OVMax= 4.65D-02

 Cycle   4  Pass 0  IDiag  1:
 E= -225.892742687989     Delta-E=       -0.006526972322 Rises=F Damp=F
 DIIS: error= 5.60D-03 at cycle   4 NSaved=   4.
 NSaved= 4 IEnMin= 4 EnMin= -225.892742687989     IErMin= 4 ErrMin= 5.60D-03
 ErrMax= 5.60D-03 EMaxC= 1.00D-01 BMatC= 2.11D-03 BMatP= 9.45D-03
 IDIUse=3 WtCom= 9.44D-01 WtEn= 5.60D-02
 Coeff-Com: -0.131D-01 0.110D+00 0.339D+00 0.564D+00
 Coeff-En:   0.000D+00 0.000D+00 0.201D+00 0.799D+00
 Coeff:     -0.124D-01 0.104D+00 0.332D+00 0.577D+00
 Gap=     0.299 Goal=   None    Shift=    0.000
 RMSDP=5.50D-04 MaxDP=8.15D-03 DE=-6.53D-03 OVMax= 1.64D-02

 Cycle   5  Pass 0  IDiag  1:
 E= -225.894543314902     Delta-E=       -0.001800626913 Rises=F Damp=F
 DIIS: error= 6.48D-04 at cycle   5 NSaved=   5.
 NSaved= 5 IEnMin= 5 EnMin= -225.894543314902     IErMin= 5 ErrMin= 6.48D-04
 ErrMax= 6.48D-04 EMaxC= 1.00D-01 BMatC= 4.27D-05 BMatP= 2.11D-03
 IDIUse=3 WtCom= 9.94D-01 WtEn= 6.48D-03
 Coeff-Com: -0.404D-02 0.177D-01 0.974D-01 0.227D+00 0.662D+00
 Coeff-En:   0.000D+00 0.000D+00 0.000D+00 0.000D+00 0.100D+01
 Coeff:     -0.402D-02 0.175D-01 0.968D-01 0.225D+00 0.665D+00
 Gap=     0.299 Goal=   None    Shift=    0.000
 RMSDP=9.50D-05 MaxDP=1.80D-03 DE=-1.80D-03 OVMax= 3.34D-03

 Cycle   6  Pass 0  IDiag  1:
 E= -225.894573923398     Delta-E=       -0.000030608496 Rises=F Damp=F
 DIIS: error= 3.50D-04 at cycle   6 NSaved=   6.
 NSaved= 6 IEnMin= 6 EnMin= -225.894573923398     IErMin= 6 ErrMin= 3.50D-04
 ErrMax= 3.50D-04 EMaxC= 1.00D-01 BMatC= 8.66D-06 BMatP= 4.27D-05
 IDIUse=3 WtCom= 9.97D-01 WtEn= 3.50D-03
 Coeff-Com: -0.126D-02-0.145D-04 0.231D-01 0.721D-01 0.373D+00 0.533D+00
 Coeff-En:   0.000D+00 0.000D+00 0.000D+00 0.000D+00 0.141D+00 0.859D+00
 Coeff:     -0.126D-02-0.144D-04 0.230D-01 0.718D-01 0.372D+00 0.535D+00
 Gap=     0.299 Goal=   None    Shift=    0.000
 RMSDP=3.32D-05 MaxDP=7.30D-04 DE=-3.06D-05 OVMax= 1.35D-03

 Cycle   7  Pass 0  IDiag  1:
 E= -225.894581507159     Delta-E=       -0.000007583762 Rises=F Damp=F
 DIIS: error= 3.33D-05 at cycle   7 NSaved=   7.
 NSaved= 7 IEnMin= 7 EnMin= -225.894581507159     IErMin= 7 ErrMin= 3.33D-05
 ErrMax= 3.33D-05 EMaxC= 1.00D-01 BMatC= 9.18D-08 BMatP= 8.66D-06
 IDIUse=1 WtCom= 1.00D+00 WtEn= 0.00D+00
 Coeff-Com: -0.340D-03-0.510D-03 0.608D-02 0.199D-01 0.118D+00 0.194D+00
 Coeff-Com:  0.663D+00
 Coeff:     -0.340D-03-0.510D-03 0.608D-02 0.199D-01 0.118D+00 0.194D+00
 Coeff:      0.663D+00
 Gap=     0.299 Goal=   None    Shift=    0.000
 RMSDP=5.38D-06 MaxDP=9.41D-05 DE=-7.58D-06 OVMax= 1.64D-04

 Initial convergence to 1.0D-05 achieved.  Increase integral accuracy.
 Cycle   8  Pass 1  IDiag  1:
 E= -225.894602404142     Delta-E=       -0.000020896983 Rises=F Damp=F
 DIIS: error= 1.79D-05 at cycle   1 NSaved=   1.
 NSaved= 1 IEnMin= 1 EnMin= -225.894602404142     IErMin= 1 ErrMin= 1.79D-05
 ErrMax= 1.79D-05 EMaxC= 1.00D-01 BMatC= 3.78D-08 BMatP= 3.78D-08
 IDIUse=1 WtCom= 1.00D+00 WtEn= 0.00D+00
 Coeff-Com:  0.100D+01
 Coeff:      0.100D+01
 Gap=     0.299 Goal=   None    Shift=    0.000
 RMSDP=5.38D-06 MaxDP=9.41D-05 DE=-2.09D-05 OVMax= 1.17D-04

 Cycle   9  Pass 1  IDiag  1:
 E= -225.894602397632     Delta-E=        0.000000006510 Rises=F Damp=F
 DIIS: error= 2.50D-05 at cycle   2 NSaved=   2.
 NSaved= 2 IEnMin= 1 EnMin= -225.894602404142     IErMin= 1 ErrMin= 1.79D-05
 ErrMax= 2.50D-05 EMaxC= 1.00D-01 BMatC= 4.47D-08 BMatP= 3.78D-08
 IDIUse=1 WtCom= 1.00D+00 WtEn= 0.00D+00
 Coeff-Com:  0.524D+00 0.476D+00
 Coeff:      0.524D+00 0.476D+00
 Gap=     0.299 Goal=   None    Shift=    0.000
 RMSDP=2.90D-06 MaxDP=5.20D-05 DE= 6.51D-09 OVMax= 8.60D-05

 Cycle  10  Pass 1  IDiag  1:
 E= -225.894602437289     Delta-E=       -0.000000039657 Rises=F Damp=F
 DIIS: error= 4.26D-06 at cycle   3 NSaved=   3.
 NSaved= 3 IEnMin= 3 EnMin= -225.894602437289     IErMin= 3 ErrMin= 4.26D-06
 ErrMax= 4.26D-06 EMaxC= 1.00D-01 BMatC= 1.46D-09 BMatP= 3.78D-08
 IDIUse=1 WtCom= 1.00D+00 WtEn= 0.00D+00
 Coeff-Com:  0.154D-01 0.149D+00 0.836D+00
 Coeff:      0.154D-01 0.149D+00 0.836D+00
 Gap=     0.299 Goal=   None    Shift=    0.000
 RMSDP=6.57D-07 MaxDP=9.67D-06 DE=-3.97D-08 OVMax= 2.07D-05

 Cycle  11  Pass 1  IDiag  1:
 E= -225.894602438365     Delta-E=       -0.000000001076 Rises=F Damp=F
 DIIS: error= 1.87D-06 at cycle   4 NSaved=   4.
 NSaved= 4 IEnMin= 4 EnMin= -225.894602438365     IErMin= 4 ErrMin= 1.87D-06
 ErrMax= 1.87D-06 EMaxC= 1.00D-01 BMatC= 3.91D-10 BMatP= 1.46D-09
 IDIUse=1 WtCom= 1.00D+00 WtEn= 0.00D+00
 Coeff-Com: -0.157D-01 0.667D-01 0.494D+00 0.455D+00
 Coeff:     -0.157D-01 0.667D-01 0.494D+00 0.455D+00
 Gap=     0.299 Goal=   None    Shift=    0.000
 RMSDP=2.09D-07 MaxDP=4.74D-06 DE=-1.08D-09 OVMax= 5.71D-06

 Cycle  12  Pass 1  IDiag  1:
 E= -225.894602438691     Delta-E=       -0.000000000326 Rises=F Damp=F
 DIIS: error= 2.29D-07 at cycle   5 NSaved=   5.
 NSaved= 5 IEnMin= 5 EnMin= -225.894602438691     IErMin= 5 ErrMin= 2.29D-07
 ErrMax= 2.29D-07 EMaxC= 1.00D-01 BMatC= 5.74D-12 BMatP= 3.91D-10
 IDIUse=1 WtCom= 1.00D+00 WtEn= 0.00D+00
 Coeff-Com: -0.813D-02 0.305D-01 0.227D+00 0.225D+00 0.526D+00
 Coeff:     -0.813D-02 0.305D-01 0.227D+00 0.225D+00 0.526D+00
 Gap=     0.299 Goal=   None    Shift=    0.000
 RMSDP=3.12D-08 MaxDP=4.52D-07 DE=-3.26D-10 OVMax= 9.49D-07

 Cycle  13  Pass 1  IDiag  1:
 E= -225.894602438696     Delta-E=       -0.000000000004 Rises=F Damp=F
 DIIS: error= 7.99D-08 at cycle   6 NSaved=   6.
 NSaved= 6 IEnMin= 6 EnMin= -225.894602438696     IErMin= 6 ErrMin= 7.99D-08
 ErrMax= 7.99D-08 EMaxC= 1.00D-01 BMatC= 6.02D-13 BMatP= 5.74D-12
 IDIUse=1 WtCom= 1.00D+00 WtEn= 0.00D+00
 Coeff-Com: -0.142D-02 0.407D-02 0.273D-01 0.325D-01 0.254D+00 0.684D+00
 Coeff:     -0.142D-02 0.407D-02 0.273D-01 0.325D-01 0.254D+00 0.684D+00
 Gap=     0.299 Goal=   None    Shift=    0.000
 RMSDP=1.28D-08 MaxDP=2.02D-07 DE=-4.38D-12 OVMax= 4.27D-07

 Cycle  14  Pass 1  IDiag  1:
 E= -225.894602438696     Delta-E=        0.000000000000 Rises=F Damp=F
 DIIS: error= 2.51D-08 at cycle   7 NSaved=   7.
 NSaved= 7 IEnMin= 7 EnMin= -225.894602438696     IErMin= 7 ErrMin= 2.51D-08
 ErrMax= 2.51D-08 EMaxC= 1.00D-01 BMatC= 5.84D-14 BMatP= 6.02D-13
 IDIUse=1 WtCom= 1.00D+00 WtEn= 0.00D+00
 Coeff-Com: -0.207D-04-0.469D-03-0.528D-02-0.296D-02 0.739D-01 0.338D+00
 Coeff-Com:  0.597D+00
 Coeff:     -0.207D-04-0.469D-03-0.528D-02-0.296D-02 0.739D-01 0.338D+00
 Coeff:      0.597D+00
 Gap=     0.299 Goal=   None    Shift=    0.000
 RMSDP=3.16D-09 MaxDP=4.88D-08 DE=-2.84D-13 OVMax= 7.15D-08

 SCF Done:  E(RPBE+HF-PBE) =  -225.894602439     A.U. after   14 cycles
             Convg  =    0.3159D-08             -V/T =  2.0009
             S**2   =   0.0000
 KE= 2.256984479847D+02 PE=-8.738130250429D+02 EE= 2.486535042354D+02
 Leave Link  502 at Mon Jun 20 07:11:30 2011, MaxMem=   24000000 cpu:       7.4
 (Enter /usr/local/gaussian03-rev-E01-64/g03/l601.exe)
 Copying SCF densities to generalized density rwf, ISCF=0 IROHF=0.

 **********************************************************************

            Population analysis using the SCF density.

 **********************************************************************

 Orbital symmetries:
       Occupied  (A') (A') (A') (A') (A') (A') (A') (A') (A') (A')
                 (A') (A") (A') (A') (A') (A") (A') (A")
       Virtual   (A") (A') (A") (A') (A') (A') (A') (A') (A') (A')
                 (A') (A') (A") (A") (A') (A") (A') (A') (A') (A')
                 (A") (A') (A') (A") (A') (A') (A') (A') (A') (A')
                 (A') (A") (A') (A') (A") (A") (A') (A") (A') (A")
                 (A') (A') (A') (A') (A') (A') (A") (A") (A') (A")
                 (A') (A") (A') (A') (A") (A') (A') (A') (A') (A')
                 (A') (A') (A') (A') (A')
 The electronic state is 1-A'.
 Alpha  occ. eigenvalues --  -14.44853 -14.34798 -10.25132 -10.22418 -10.20532
 Alpha  occ. eigenvalues --   -1.10124  -0.92323  -0.78385  -0.66458  -0.62698
 Alpha  occ. eigenvalues --   -0.60513  -0.47908  -0.47472  -0.45024  -0.43004
 Alpha  occ. eigenvalues --   -0.30298  -0.25916  -0.23175
 Alpha virt. eigenvalues --    0.06720   0.10358   0.11254   0.17758   0.19820
 Alpha virt. eigenvalues --    0.21609   0.27402   0.28177   0.34164   0.36662
 Alpha virt. eigenvalues --    0.51126   0.54193   0.55253   0.60376   0.63864
 Alpha virt. eigenvalues --    0.65239   0.66449   0.70752   0.71868   0.74622
 Alpha virt. eigenvalues --    0.78645   0.84867   0.85762   0.87659   0.88426
 Alpha virt. eigenvalues --    0.94361   0.96417   0.97142   1.07098   1.07184
 Alpha virt. eigenvalues --    1.28894   1.29099   1.31772   1.37019   1.38574
 Alpha virt. eigenvalues --    1.41636   1.50732   1.60745   1.60870   1.61858
 Alpha virt. eigenvalues --    1.79795   1.99748   2.17257   2.19475   2.23862
 Alpha virt. eigenvalues --    2.26944   2.28720   2.30501   2.40094   2.43145
 Alpha virt. eigenvalues --    2.45279   2.50017   2.64285   2.68204   2.74223
 Alpha virt. eigenvalues --    2.80538   2.84806   3.08711   3.21085   3.33897
 Alpha virt. eigenvalues --    4.03610   4.12399   4.26810   4.29282   4.44598
          Condensed to atoms (all electrons):
              1          2          3          4          5          6
     1  N    6.598414   0.008403  -0.096756   0.009200   0.519722  -0.047406
     2  H    0.008403   0.379854  -0.037380  -0.002447   0.008899  -0.000096
     3  C   -0.096756  -0.037380   4.997867   0.372610   0.599316  -0.078229
     4  H    0.009200  -0.002447   0.372610   0.538419  -0.037361  -0.000037
     5  C    0.519722   0.008899   0.599316  -0.037361   4.744943   0.405815
     6  H   -0.047406  -0.000096  -0.078229  -0.000037   0.405815   0.553219
     7  H   -0.040534  -0.000696   0.005560  -0.000209   0.008033  -0.000253
     8  C    0.579767  -0.030222  -0.142171   0.007730  -0.149875   0.010419
     9  N   -0.101639   0.327006   0.401293  -0.056622  -0.064837   0.005420
              7          8          9
     1  N   -0.040534   0.579767  -0.101639
     2  H   -0.000696  -0.030222   0.327006
     3  C    0.005560  -0.142171   0.401293
     4  H   -0.000209   0.007730  -0.056622
     5  C    0.008033  -0.149875  -0.064837
     6  H   -0.000253   0.010419   0.005420
     7  H    0.518500   0.402730  -0.066626
     8  C    0.402730   4.755090   0.406139
     9  N   -0.066626   0.406139   6.664357
 Mulliken atomic charges:
              1
     1  N   -0.429172
     2  H    0.346680
     3  C   -0.022110
     4  H    0.168716
     5  C   -0.034657
     6  H    0.151148
     7  H    0.173495
     8  C    0.160393
     9  N   -0.514492
 Sum of Mulliken charges=   0.00000
 Atomic charges with hydrogens summed into heavy atoms:
              1
     1  N   -0.429172
     2  H    0.000000
     3  C    0.146606
     4  H    0.000000
     5  C    0.116491
     6  H    0.000000
     7  H    0.000000
     8  C    0.333887
     9  N   -0.167813
 Sum of Mulliken charges=   0.00000
 Electronic spatial extent (au):  <R**2>=   257.4664
 Charge=     0.0000 electrons
 Dipole moment (field-independent basis, Debye):
    X=     1.1148    Y=     3.6741    Z=     0.0000  Tot=     3.8395
 Quadrupole moment (field-independent basis, Debye-Ang):
   XX=   -26.2965   YY=   -24.9911   ZZ=   -30.0709
   XY=    -3.0873   XZ=     0.0000   YZ=     0.0000
 Traceless Quadrupole moment (field-independent basis, Debye-Ang):
   XX=     0.8230   YY=     2.1284   ZZ=    -2.9514
   XY=    -3.0873   XZ=     0.0000   YZ=     0.0000
 Octapole moment (field-independent basis, Debye-Ang**2):
  XXX=     0.3905  YYY=    15.3111  ZZZ=     0.0000  XYY=     4.6298
  XXY=     4.8752  XXZ=     0.0000  XZZ=    -0.6297  YZZ=     1.1580
  YYZ=     0.0000  XYZ=     0.0000
 Hexadecapole moment (field-independent basis, Debye-Ang**3):
 XXXX=  -136.9633 YYYY=  -125.5738 ZZZZ=   -28.3206 XXXY=    -2.4778
 XXXZ=     0.0000 YYYX=    -6.4940 YYYZ=     0.0000 ZZZX=     0.0000
 ZZZY=     0.0000 XXYY=   -50.4851 XXZZ=   -32.6208 YYZZ=   -30.8363
 XXYZ=     0.0000 YYXZ=     0.0000 ZZXY=     0.6598
 N-N= 1.735664703841D+02 E-N=-8.738130275301D+02  KE= 2.256984479847D+02
 Symmetry A'   KE= 2.174979591728D+02
 Symmetry A"   KE= 8.200488811896D+00
 No NMR shielding tensors so no spin-rotation constants.
 Leave Link  601 at Mon Jun 20 07:11:31 2011, MaxMem=   24000000 cpu:       0.1
 (Enter /usr/local/gaussian03-rev-E01-64/g03/l701.exe)
 Compute integral first derivatives.
 ... and contract with generalized density number  0.
 Leave Link  701 at Mon Jun 20 07:11:31 2011, MaxMem=   24000000 cpu:       0.1
 (Enter /usr/local/gaussian03-rev-E01-64/g03/l702.exe)
 L702 exits ... SP integral derivatives will be done elsewhere.
 Leave Link  702 at Mon Jun 20 07:11:31 2011, MaxMem=   24000000 cpu:       0.0
 (Enter /usr/local/gaussian03-rev-E01-64/g03/l703.exe)
 Compute integral first derivatives, UseDBF=F.
 Integral derivatives from FoFDir, PRISM(SPDF).
 Petite list used in FoFDir.
 MinBra= 0 MaxBra= 2 Meth= 1.
 IRaf=       0 NMat=   1 IRICut=       1 DoRegI=T DoRafI=F ISym2E= 1 JSym2E=1.
 Leave Link  703 at Mon Jun 20 07:11:34 2011, MaxMem=   24000000 cpu:       3.1
 (Enter /usr/local/gaussian03-rev-E01-64/g03/l716.exe)
 Dipole        = 4.38578618D-01 1.44552118D+00-1.74904682D-31
 ***** Axes restored to original set *****
 -------------------------------------------------------------------
 Center     Atomic                   Forces (Hartrees/Bohr)
 Number     Number              X              Y              Z
 -------------------------------------------------------------------
    1          7           0.082497227    0.000000000    0.083033590
    2          1           0.018569586    0.000000000   -0.080053305
    3          6          -0.074870568    0.000000000    0.019649348
    4          1          -0.070279787    0.000000000   -0.052328727
    5          6          -0.024353988    0.000000000   -0.017052193
    6          1          -0.060850443    0.000000000    0.061138728
    7          1           0.086891283    0.000000000   -0.011376085
    8          6           0.009727894    0.000000000    0.046358900
    9          7           0.032668796    0.000000000   -0.049370255
 -------------------------------------------------------------------
 Cartesian Forces:  Max     0.086891283 RMS     0.045491371
 Leave Link  716 at Mon Jun 20 07:11:34 2011, MaxMem=   24000000 cpu:       0.0
 (Enter /usr/local/gaussian03-rev-E01-64/g03/l103.exe)

 GradGradGradGradGradGradGradGradGradGradGradGradGradGradGradGradGradGrad
 Berny optimization.
 Internal  Forces:  Max     0.127429608 RMS     0.046235833
 Search for a local minimum.
 Step number   1 out of a maximum of  48
 All quantities printed in internal units (Hartrees-Bohrs-Radians)
 Second derivative matrix not updated -- first step.
     Eigenvalues ---    0.03211   0.03261   0.03288   0.03318   0.03352
     Eigenvalues ---    0.03407   0.16000   0.16000   0.16000   0.16000
     Eigenvalues ---    0.22000   0.22917   0.49193   0.49594   0.49613
     Eigenvalues ---    0.54578   0.60577   0.63413   0.68379   0.73836
     Eigenvalues ---    0.765081000.000001000.000001000.000001000.00000
     Eigenvalues --- 1000.000001000.000001000.000001000.000001000.00000
     Eigenvalues --- 1000.000001000.000001000.000001000.000001000.00000
     Eigenvalues --- 1000.000001000.000001000.00000
 RFO step:  Lambda=-1.09628165D-01.
 Linear search not attempted -- first point.
 Maximum step size (   0.300) exceeded in Quadratic search.
    -- Step size scaled by   0.765
 Iteration  1 RMS(Cart)=  0.06530802 RMS(Int)=  0.00046014
 Iteration  2 RMS(Cart)=  0.00053168 RMS(Int)=  0.00010289
 Iteration  3 RMS(Cart)=  0.00000031 RMS(Int)=  0.00010289
 Variable       Old X    -DE/DX   Delta X   Delta X   Delta X     New X
                                 (Linear)    (Quad)   (Total)
    R1        2.40969   0.11518   0.00000   0.10064   0.10058   2.51027
    R2        2.42167   0.05764   0.00000   0.05073   0.05054   2.47221
    R3        1.77186   0.08218   0.00000   0.08787   0.08787   1.85973
    R4        1.86958   0.08716   0.00000   0.11006   0.11006   1.97964
    R5        2.49323   0.07904   0.00000   0.08342   0.08356   2.57679
    R6        2.38988   0.12743   0.00000   0.11211   0.11227   2.50215
    R7        1.87388   0.08610   0.00000   0.10948   0.10948   1.98336
    R8        1.86977   0.08760   0.00000   0.11065   0.11065   1.98042
    R9        2.41548   0.10924   0.00000   0.09987   0.09982   2.51530
    A1        1.85787   0.00303   0.00000  -0.00591  -0.00623   1.85164
    A2        2.20999   0.01637   0.00000   0.03821   0.03807   2.24806
    A3        2.20602  -0.00044   0.00000  -0.00946  -0.00961   2.19641
    A4        1.86717  -0.01593   0.00000  -0.02875  -0.02845   1.83872
    A5        1.89521   0.01086   0.00000   0.02197   0.02205   1.91727
    A6        2.19177  -0.01031   0.00000  -0.02483  -0.02487   2.16690
    A7        2.19620  -0.00055   0.00000   0.00286   0.00282   2.19902
    A8        2.18150   0.00064   0.00000   0.00333   0.00343   2.18493
    A9        1.91767   0.00347   0.00000   0.00683   0.00664   1.92431
   A10        2.18402  -0.00411   0.00000  -0.01016  -0.01007   2.17395
   A11        2.20124   0.00041   0.00000  -0.00380  -0.00386   2.19738
   A12        2.19509   0.00102   0.00000  -0.00207  -0.00213   2.19296
   A13        1.88685  -0.00144   0.00000   0.00587   0.00599   1.89284
    D1        0.00000   0.00000   0.00000   0.00000   0.00000   0.00000
    D2        3.14159   0.00000   0.00000   0.00000   0.00000   3.14159
    D3        3.14159   0.00000   0.00000   0.00000   0.00000   3.14159
    D4        0.00000   0.00000   0.00000   0.00000   0.00000   0.00000
    D5        3.14159   0.00000   0.00000   0.00000   0.00000   3.14159
    D6        0.00000   0.00000   0.00000   0.00000   0.00000   0.00000
    D7        0.00000   0.00000   0.00000   0.00000   0.00000   0.00000
    D8        3.14159   0.00000   0.00000   0.00000   0.00000   3.14159
    D9        0.00000   0.00000   0.00000   0.00000   0.00000   0.00000
   D10        3.14159   0.00000   0.00000   0.00000   0.00000   3.14159
   D11        3.14159   0.00000   0.00000   0.00000   0.00000   3.14159
   D12        0.00000   0.00000   0.00000   0.00000   0.00000   0.00000
   D13        3.14159   0.00000   0.00000   0.00000   0.00000   3.14159
   D14        0.00000   0.00000   0.00000   0.00000   0.00000   0.00000
   D15        0.00000   0.00000   0.00000   0.00000   0.00000   0.00000
   D16        3.14159   0.00000   0.00000   0.00000   0.00000   3.14159
         Item               Value     Threshold  Converged?
 Maximum Force            0.127430     0.000450     NO 
 RMS     Force            0.046236     0.000300     NO 
 Maximum Displacement     0.185935     0.001800     NO 
 RMS     Displacement     0.065244     0.001200     NO 
 Predicted change in Energy=-5.671398D-02
 GradGradGradGradGradGradGradGradGradGradGradGradGradGradGradGradGradGrad

 Leave Link  103 at Mon Jun 20 07:11:35 2011, MaxMem=   24000000 cpu:       0.5
 (Enter /usr/local/gaussian03-rev-E01-64/g03/l202.exe)
                          Input orientation:                          
 ---------------------------------------------------------------------
 Center     Atomic     Atomic              Coordinates (Angstroms)
 Number     Number      Type              X           Y           Z
 ---------------------------------------------------------------------
    1          7             0        0.340389    0.000000    1.351846
    2          1             0        0.338931    0.000000   -1.757289
    3          6             0       -1.118428    0.000000   -0.299209
    4          1             0       -2.007892    0.000000   -0.852630
    5          6             0       -0.954269    0.000000    1.054454
    6          1             0       -1.723000    0.000000    1.769025
    7          1             0        2.017143    0.000000    0.095507
    8          6             0        0.975198    0.000000    0.207946
    9          7             0        0.106929    0.000000   -0.800899
 ---------------------------------------------------------------------
                    Distance matrix (angstroms):
                    1          2          3          4          5
     1  N    0.000000
     2  H    3.109135   0.000000
     3  C    2.203209   2.061527   0.000000
     4  H    3.220890   2.515152   1.047578   0.000000
     5  C    1.328376   3.094878   1.363580   2.178781   0.000000
     6  H    2.105139   4.084905   2.154785   2.637088   1.049552
     7  H    2.095206   2.499850   3.160317   4.135199   3.122318
     8  C    1.308239   2.065668   2.154176   3.166014   2.106993
     9  N    2.165367   0.984128   1.324082   2.115453   2.137400
                    6          7          8          9
     6  H    0.000000
     7  H    4.097478   0.000000
     8  C    3.117249   1.047994   0.000000
     9  N    3.154861   2.110086   1.331037   0.000000
 Stoichiometry    C3H4N2
 Framework group  CS[SG(C3H4N2)]
 Deg. of freedom    15
 Full point group                 CS
 Largest Abelian subgroup         CS      NOp   2
 Largest concise Abelian subgroup C1      NOp   1
                         Standard orientation:                         
 ---------------------------------------------------------------------
 Center     Atomic     Atomic              Coordinates (Angstroms)
 Number     Number      Type              X           Y           Z
 ---------------------------------------------------------------------
    1          7             0       -0.710145   -0.970383    0.000000
    2          1             0       -0.011682    2.059282    0.000000
    3          6             0        1.081691    0.311590    0.000000
    4          1             0        2.072586    0.651512    0.000000
    5          6             0        0.618231   -0.970813    0.000000
    6          1             0        1.207192   -1.839538    0.000000
    7          1             0       -2.062556    0.629890    0.000000
    8          6             0       -1.072342    0.286718    0.000000
    9          7             0        0.000000    1.075224    0.000000
 ---------------------------------------------------------------------
 Rotational constants (GHZ):     10.2331137      9.8167546      5.0103055
 Leave Link  202 at Mon Jun 20 07:11:35 2011, MaxMem=   24000000 cpu:       0.0
 (Enter /usr/local/gaussian03-rev-E01-64/g03/l301.exe)
 Standard basis: 6-31G(d) (6D, 7F)
 There are    63 symmetry adapted basis functions of A'  symmetry.
 There are    20 symmetry adapted basis functions of A"  symmetry.
 Integral buffers will be    131072 words long.
 Raffenetti 2 integral format.
 Two-electron integral symmetry is turned on.
    83 basis functions,   156 primitive gaussians,    83 cartesian basis functions
    18 alpha electrons       18 beta electrons
       nuclear repulsion energy       167.0058125262 Hartrees.
 IExCor=1009 DFT=T Ex=PBE+HF Corr=PBE ExCW=0 ScaHFX=  0.250000
 ScaDFX=  0.750000  0.750000  1.000000  1.000000
 IRadAn=      0 IRanWt=     -1 IRanGd=            0 ICorTp=0
 NAtoms=    9 NActive=    9 NUniq=    9 SFac= 7.50D-01 NAtFMM=   80 NAOKFM=F Big=F
 Leave Link  301 at Mon Jun 20 07:11:35 2011, MaxMem=   24000000 cpu:       0.0
 (Enter /usr/local/gaussian03-rev-E01-64/g03/l302.exe)
 NPDir=0 NMtPBC=     1 NCelOv=     1 NCel=       1 NClECP=     1 NCelD=      1
         NCelK=      1 NCelE2=     1 NClLst=     1 CellRange=     0.0.
 One-electron integrals computed using PRISM.
 NBasis=    83 RedAO= T  NBF=    63    20
 NBsUse=    83 1.00D-06 NBFU=    63    20
 Precomputing XC quadrature grid using
 IXCGrd= 2 IRadAn=           0 IRanWt=          -1 IRanGd=           0.
 NRdTot=     555 NPtTot=       69836 NUsed=       73758 NTot=       73790
 NSgBfM=    83    83    83    83.
 Leave Link  302 at Mon Jun 20 07:11:36 2011, MaxMem=   24000000 cpu:       0.2
 (Enter /usr/local/gaussian03-rev-E01-64/g03/l303.exe)
 DipDrv:  MaxL=1.
 Leave Link  303 at Mon Jun 20 07:11:36 2011, MaxMem=   24000000 cpu:       0.0
 (Enter /usr/local/gaussian03-rev-E01-64/g03/l401.exe)
 Initial guess read from the read-write file:
 Guess basis will be translated and rotated to current coordinates.
 Initial guess orbital symmetries:
       Occupied  (A') (A') (A') (A') (A') (A') (A') (A') (A') (A')
                 (A') (A") (A') (A') (A') (A") (A') (A")
       Virtual   (A") (A') (A") (A') (A') (A') (A') (A') (A') (A')
                 (A') (A') (A") (A") (A') (A") (A') (A') (A') (A')
                 (A") (A') (A') (A") (A') (A') (A') (A') (A') (A')
                 (A') (A") (A') (A') (A") (A") (A') (A") (A') (A")
                 (A') (A') (A') (A') (A') (A') (A") (A") (A') (A")
                 (A') (A") (A') (A') (A") (A') (A') (A') (A') (A')
                 (A') (A') (A') (A') (A')
 The electronic state of the initial guess is 1-A'.
 Generating alternative initial guess.
 Harris functional with IExCor= 1009 diagonalized for initial guess.
 ExpMin= 1.61D-01 ExpMax= 4.17D+03 ExpMxC= 6.27D+02 IAcc=1 IRadAn=         1 AccDes= 1.00D-06
 HarFok:  IExCor=1009 AccDes= 1.00D-06 IRadAn=         1 IDoV=1
 ScaDFX=  1.000000  1.000000  1.000000  1.000000
 Harris En= -226.083904053164    
 Leave Link  401 at Mon Jun 20 07:11:36 2011, MaxMem=   24000000 cpu:       0.2
 (Enter /usr/local/gaussian03-rev-E01-64/g03/l502.exe)
 Closed shell SCF:
 Requested convergence on RMS density matrix=1.00D-08 within 128 cycles.
 Requested convergence on MAX density matrix=1.00D-06.
 Requested convergence on             energy=1.00D-06.
 No special actions if energy rises.
 Using DIIS extrapolation, IDIIS=  1040.
 Integral symmetry usage will be decided dynamically.
        73757 words used for storage of precomputed grid.
 Keep R1 integrals in memory in canonical form, NReq=     7915306.
 IEnd=    116005 IEndB=    116005 NGot=  24000000 MDV=  17829753
 LenX=  17829753
 Symmetry not used in FoFDir.
 MinBra= 0 MaxBra= 2 Meth= 1.
 IRaf=       0 NMat=   1 IRICut=       1 DoRegI=T DoRafI=F ISym2E= 0 JSym2E=0.
 Integral accuracy reduced to 1.0D-05 until final iterations.

 Cycle   1  Pass 0  IDiag  1:
 E= -225.941882179874    
 DIIS: error= 6.05D-03 at cycle   1 NSaved=   1.
 NSaved= 1 IEnMin= 1 EnMin= -225.941882179874     IErMin= 1 ErrMin= 6.05D-03
 ErrMax= 6.05D-03 EMaxC= 1.00D-01 BMatC= 5.05D-03 BMatP= 5.05D-03
 IDIUse=3 WtCom= 9.39D-01 WtEn= 6.05D-02
 Coeff-Com:  0.100D+01
 Coeff-En:   0.100D+01
 Coeff:      0.100D+01
 Gap=     0.284 Goal=   None    Shift=    0.000
 GapD=    0.284 DampG=1.000 DampE=1.000 DampFc=1.0000 IDamp=-1.
 RMSDP=1.49D-03 MaxDP=2.25D-02              OVMax= 2.09D-02

 Cycle   2  Pass 0  IDiag  1:
 E= -225.946474791270     Delta-E=       -0.004592611397 Rises=F Damp=F
 DIIS: error= 4.16D-03 at cycle   2 NSaved=   2.
 NSaved= 2 IEnMin= 2 EnMin= -225.946474791270     IErMin= 2 ErrMin= 4.16D-03
 ErrMax= 4.16D-03 EMaxC= 1.00D-01 BMatC= 1.53D-03 BMatP= 5.05D-03
 IDIUse=3 WtCom= 9.58D-01 WtEn= 4.16D-02
 Coeff-Com:  0.316D+00 0.684D+00
 Coeff-En:   0.000D+00 0.100D+01
 Coeff:      0.303D+00 0.697D+00
 Gap=     0.281 Goal=   None    Shift=    0.000
 RMSDP=6.50D-04 MaxDP=1.24D-02 DE=-4.59D-03 OVMax= 1.47D-02

 Cycle   3  Pass 0  IDiag  1:
 E= -225.947460142443     Delta-E=       -0.000985351173 Rises=F Damp=F
 DIIS: error= 1.83D-03 at cycle   3 NSaved=   3.
 NSaved= 3 IEnMin= 3 EnMin= -225.947460142443     IErMin= 3 ErrMin= 1.83D-03
 ErrMax= 1.83D-03 EMaxC= 1.00D-01 BMatC= 5.10D-04 BMatP= 1.53D-03
 IDIUse=3 WtCom= 9.82D-01 WtEn= 1.83D-02
 Coeff-Com:  0.425D-01 0.367D+00 0.590D+00
 Coeff-En:   0.000D+00 0.217D+00 0.783D+00
 Coeff:      0.418D-01 0.364D+00 0.594D+00
 Gap=     0.282 Goal=   None    Shift=    0.000
 RMSDP=2.96D-04 MaxDP=5.76D-03 DE=-9.85D-04 OVMax= 9.27D-03

 Cycle   4  Pass 0  IDiag  1:
 E= -225.947829918519     Delta-E=       -0.000369776076 Rises=F Damp=F
 DIIS: error= 9.38D-04 at cycle   4 NSaved=   4.
 NSaved= 4 IEnMin= 4 EnMin= -225.947829918519     IErMin= 4 ErrMin= 9.38D-04
 ErrMax= 9.38D-04 EMaxC= 1.00D-01 BMatC= 8.11D-05 BMatP= 5.10D-04
 IDIUse=3 WtCom= 9.91D-01 WtEn= 9.38D-03
 Coeff-Com: -0.152D-02 0.161D+00 0.361D+00 0.480D+00
 Coeff-En:   0.000D+00 0.000D+00 0.995D-01 0.901D+00
 Coeff:     -0.150D-02 0.159D+00 0.358D+00 0.484D+00
 Gap=     0.281 Goal=   None    Shift=    0.000
 RMSDP=1.19D-04 MaxDP=1.98D-03 DE=-3.70D-04 OVMax= 3.73D-03

 Cycle   5  Pass 0  IDiag  1:
 E= -225.947904691286     Delta-E=       -0.000074772767 Rises=F Damp=F
 DIIS: error= 1.42D-04 at cycle   5 NSaved=   5.
 NSaved= 5 IEnMin= 5 EnMin= -225.947904691286     IErMin= 5 ErrMin= 1.42D-04
 ErrMax= 1.42D-04 EMaxC= 1.00D-01 BMatC= 2.31D-06 BMatP= 8.11D-05
 IDIUse=3 WtCom= 9.99D-01 WtEn= 1.42D-03
 Coeff-Com: -0.395D-02 0.318D-01 0.874D-01 0.200D+00 0.685D+00
 Coeff-En:   0.000D+00 0.000D+00 0.000D+00 0.000D+00 0.100D+01
 Coeff:     -0.394D-02 0.318D-01 0.873D-01 0.199D+00 0.686D+00
 Gap=     0.282 Goal=   None    Shift=    0.000
 RMSDP=2.17D-05 MaxDP=2.97D-04 DE=-7.48D-05 OVMax= 7.20D-04

 Cycle   6  Pass 0  IDiag  1:
 E= -225.947906714764     Delta-E=       -0.000002023477 Rises=F Damp=F
 DIIS: error= 4.40D-05 at cycle   6 NSaved=   6.
 NSaved= 6 IEnMin= 6 EnMin= -225.947906714764     IErMin= 6 ErrMin= 4.40D-05
 ErrMax= 4.40D-05 EMaxC= 1.00D-01 BMatC= 2.35D-07 BMatP= 2.31D-06
 IDIUse=1 WtCom= 1.00D+00 WtEn= 0.00D+00
 Coeff-Com: -0.209D-02 0.852D-02 0.279D-01 0.804D-01 0.354D+00 0.532D+00
 Coeff:     -0.209D-02 0.852D-02 0.279D-01 0.804D-01 0.354D+00 0.532D+00
 Gap=     0.282 Goal=   None    Shift=    0.000
 RMSDP=4.81D-06 MaxDP=1.06D-04 DE=-2.02D-06 OVMax= 1.41D-04

 Initial convergence to 1.0D-05 achieved.  Increase integral accuracy.
 Cycle   7  Pass 1  IDiag  1:
 E= -225.947906975832     Delta-E=       -0.000000261068 Rises=F Damp=F
 DIIS: error= 1.14D-05 at cycle   1 NSaved=   1.
 NSaved= 1 IEnMin= 1 EnMin= -225.947906975832     IErMin= 1 ErrMin= 1.14D-05
 ErrMax= 1.14D-05 EMaxC= 1.00D-01 BMatC= 1.65D-08 BMatP= 1.65D-08
 IDIUse=1 WtCom= 1.00D+00 WtEn= 0.00D+00
 Coeff-Com:  0.100D+01
 Coeff:      0.100D+01
 Gap=     0.282 Goal=   None    Shift=    0.000
 RMSDP=4.81D-06 MaxDP=1.06D-04 DE=-2.61D-07 OVMax= 1.02D-04

 Cycle   8  Pass 1  IDiag  1:
 E= -225.947906983623     Delta-E=       -0.000000007791 Rises=F Damp=F
 DIIS: error= 1.13D-05 at cycle   2 NSaved=   2.
 NSaved= 2 IEnMin= 2 EnMin= -225.947906983623     IErMin= 2 ErrMin= 1.13D-05
 ErrMax= 1.13D-05 EMaxC= 1.00D-01 BMatC= 1.17D-08 BMatP= 1.65D-08
 IDIUse=1 WtCom= 1.00D+00 WtEn= 0.00D+00
 Coeff-Com:  0.443D+00 0.557D+00
 Coeff:      0.443D+00 0.557D+00
 Gap=     0.282 Goal=   None    Shift=    0.000
 RMSDP=1.53D-06 MaxDP=3.87D-05 DE=-7.79D-09 OVMax= 5.82D-05

 Cycle   9  Pass 1  IDiag  1:
 E= -225.947906992445     Delta-E=       -0.000000008822 Rises=F Damp=F
 DIIS: error= 4.46D-06 at cycle   3 NSaved=   3.
 NSaved= 3 IEnMin= 3 EnMin= -225.947906992445     IErMin= 3 ErrMin= 4.46D-06
 ErrMax= 4.46D-06 EMaxC= 1.00D-01 BMatC= 1.76D-09 BMatP= 1.17D-08
 IDIUse=1 WtCom= 1.00D+00 WtEn= 0.00D+00
 Coeff-Com:  0.570D-02 0.274D+00 0.721D+00
 Coeff:      0.570D-02 0.274D+00 0.721D+00
 Gap=     0.282 Goal=   None    Shift=    0.000
 RMSDP=5.51D-07 MaxDP=1.40D-05 DE=-8.82D-09 OVMax= 2.56D-05

 Cycle  10  Pass 1  IDiag  1:
 E= -225.947906994092     Delta-E=       -0.000000001647 Rises=F Damp=F
 DIIS: error= 1.70D-06 at cycle   4 NSaved=   4.
 NSaved= 4 IEnMin= 4 EnMin= -225.947906994092     IErMin= 4 ErrMin= 1.70D-06
 ErrMax= 1.70D-06 EMaxC= 1.00D-01 BMatC= 1.49D-10 BMatP= 1.76D-09
 IDIUse=1 WtCom= 1.00D+00 WtEn= 0.00D+00
 Coeff-Com: -0.122D-01 0.117D+00 0.382D+00 0.513D+00
 Coeff:     -0.122D-01 0.117D+00 0.382D+00 0.513D+00
 Gap=     0.282 Goal=   None    Shift=    0.000
 RMSDP=1.52D-07 MaxDP=3.09D-06 DE=-1.65D-09 OVMax= 5.52D-06

 Cycle  11  Pass 1  IDiag  1:
 E= -225.947906994221     Delta-E=       -0.000000000129 Rises=F Damp=F
 DIIS: error= 2.81D-07 at cycle   5 NSaved=   5.
 NSaved= 5 IEnMin= 5 EnMin= -225.947906994221     IErMin= 5 ErrMin= 2.81D-07
 ErrMax= 2.81D-07 EMaxC= 1.00D-01 BMatC= 1.15D-11 BMatP= 1.49D-10
 IDIUse=1 WtCom= 1.00D+00 WtEn= 0.00D+00
 Coeff-Com: -0.708D-02 0.300D-01 0.130D+00 0.267D+00 0.579D+00
 Coeff:     -0.708D-02 0.300D-01 0.130D+00 0.267D+00 0.579D+00
 Gap=     0.282 Goal=   None    Shift=    0.000
 RMSDP=3.76D-08 MaxDP=7.86D-07 DE=-1.29D-10 OVMax= 1.06D-06

 Cycle  12  Pass 1  IDiag  1:
 E= -225.947906994228     Delta-E=       -0.000000000007 Rises=F Damp=F
 DIIS: error= 8.06D-08 at cycle   6 NSaved=   6.
 NSaved= 6 IEnMin= 6 EnMin= -225.947906994228     IErMin= 6 ErrMin= 8.06D-08
 ErrMax= 8.06D-08 EMaxC= 1.00D-01 BMatC= 1.10D-12 BMatP= 1.15D-11
 IDIUse=1 WtCom= 1.00D+00 WtEn= 0.00D+00
 Coeff-Com: -0.262D-02 0.343D-02 0.340D-01 0.967D-01 0.293D+00 0.575D+00
 Coeff:     -0.262D-02 0.343D-02 0.340D-01 0.967D-01 0.293D+00 0.575D+00
 Gap=     0.282 Goal=   None    Shift=    0.000
 RMSDP=1.59D-08 MaxDP=3.13D-07 DE=-7.11D-12 OVMax= 5.50D-07

 Cycle  13  Pass 1  IDiag  1:
 E= -225.947906994231     Delta-E=       -0.000000000002 Rises=F Damp=F
 DIIS: error= 4.88D-08 at cycle   7 NSaved=   7.
 NSaved= 7 IEnMin= 7 EnMin= -225.947906994231     IErMin= 7 ErrMin= 4.88D-08
 ErrMax= 4.88D-08 EMaxC= 1.00D-01 BMatC= 1.65D-13 BMatP= 1.10D-12
 IDIUse=1 WtCom= 1.00D+00 WtEn= 0.00D+00
 Coeff-Com:  0.147D-03-0.456D-02-0.748D-02-0.248D-02 0.189D-01 0.293D+00
 Coeff-Com:  0.703D+00
 Coeff:      0.147D-03-0.456D-02-0.748D-02-0.248D-02 0.189D-01 0.293D+00
 Coeff:      0.703D+00
 Gap=     0.282 Goal=   None    Shift=    0.000
 RMSDP=6.36D-09 MaxDP=1.03D-07 DE=-2.22D-12 OVMax= 2.25D-07

 SCF Done:  E(RPBE+HF-PBE) =  -225.947906994     A.U. after   13 cycles
             Convg  =    0.6357D-08             -V/T =  2.0062
             S**2   =   0.0000
 KE= 2.245481264519D+02 PE=-8.599586330284D+02 EE= 2.424567870561D+02
 Leave Link  502 at Mon Jun 20 07:11:43 2011, MaxMem=   24000000 cpu:       6.6
 (Enter /usr/local/gaussian03-rev-E01-64/g03/l701.exe)
 Compute integral first derivatives.
 ... and contract with generalized density number  0.
 Leave Link  701 at Mon Jun 20 07:11:44 2011, MaxMem=   24000000 cpu:       0.1
 (Enter /usr/local/gaussian03-rev-E01-64/g03/l702.exe)
 L702 exits ... SP integral derivatives will be done elsewhere.
 Leave Link  702 at Mon Jun 20 07:11:44 2011, MaxMem=   24000000 cpu:       0.0
 (Enter /usr/local/gaussian03-rev-E01-64/g03/l703.exe)
 Compute integral first derivatives, UseDBF=F.
 Integral derivatives from FoFDir, PRISM(SPDF).
 Petite list used in FoFDir.
 MinBra= 0 MaxBra= 2 Meth= 1.
 IRaf=       0 NMat=   1 IRICut=       1 DoRegI=T DoRafI=F ISym2E= 1 JSym2E=1.
 Leave Link  703 at Mon Jun 20 07:11:47 2011, MaxMem=   24000000 cpu:       3.1
 (Enter /usr/local/gaussian03-rev-E01-64/g03/l716.exe)
 Dipole        = 4.39105186D-01 1.43594997D+00-1.82450475D-31
 ***** Axes restored to original set *****
 -------------------------------------------------------------------
 Center     Atomic                   Forces (Hartrees/Bohr)
 Number     Number              X              Y              Z
 -------------------------------------------------------------------
    1          7           0.032028727    0.000000000    0.025612841
    2          1           0.005446534    0.000000000   -0.023712276
    3          6          -0.028821391    0.000000000    0.021472718
    4          1          -0.018689739    0.000000000   -0.019258941
    5          6          -0.011377870    0.000000000   -0.017564757
    6          1          -0.016522002    0.000000000    0.020714450
    7          1           0.026154772    0.000000000   -0.005297745
    8          6          -0.005809773    0.000000000    0.021670729
    9          7           0.017590741    0.000000000   -0.023637019
 -------------------------------------------------------------------
 Cartesian Forces:  Max     0.032028727 RMS     0.016677167
 Leave Link  716 at Mon Jun 20 07:11:47 2011, MaxMem=   24000000 cpu:       0.0
 (Enter /usr/local/gaussian03-rev-E01-64/g03/l103.exe)

 GradGradGradGradGradGradGradGradGradGradGradGradGradGradGradGradGradGrad
 Berny optimization.
 Internal  Forces:  Max     0.043546458 RMS     0.014291632
 Search for a local minimum.
 Step number   2 out of a maximum of  48
 All quantities printed in internal units (Hartrees-Bohrs-Radians)
 Update second derivatives using D2CorX and points  1  2
 Trust test= 9.40D-01 RLast= 3.00D-01 DXMaxT set to 4.24D-01
     Eigenvalues ---    0.03210   0.03262   0.03288   0.03314   0.03351
     Eigenvalues ---    0.03406   0.15911   0.16000   0.16000   0.16001
     Eigenvalues ---    0.22114   0.22839   0.49306   0.49602   0.51414
     Eigenvalues ---    0.55624   0.61098   0.63938   0.70407   0.73899
     Eigenvalues ---    0.757781000.000001000.000001000.000001000.00000
     Eigenvalues --- 1000.000001000.000001000.000001000.000001000.00000
     Eigenvalues --- 1000.000001000.000001000.000001000.000001000.00000
     Eigenvalues --- 1000.000001000.000001000.00000
 RFO step:  Lambda=-1.89863246D-03.
 Quartic linear search produced a step of  0.56607.
 Iteration  1 RMS(Cart)=  0.03932477 RMS(Int)=  0.00072634
 Iteration  2 RMS(Cart)=  0.00084870 RMS(Int)=  0.00007301
 Iteration  3 RMS(Cart)=  0.00000088 RMS(Int)=  0.00007301
 Variable       Old X    -DE/DX   Delta X   Delta X   Delta X     New X
                                 (Linear)    (Quad)   (Total)
    R1        2.51027   0.03812   0.05693   0.00449   0.06133   2.57159
    R2        2.47221   0.01263   0.02861  -0.01166   0.01684   2.48906
    R3        1.85973   0.02433   0.04974  -0.00088   0.04886   1.90860
    R4        1.97964   0.02604   0.06230   0.00232   0.06462   2.04425
    R5        2.57679   0.01740   0.04730  -0.01595   0.03140   2.60819
    R6        2.50215   0.04355   0.06355   0.00871   0.07239   2.57454
    R7        1.98336   0.02620   0.06198   0.00394   0.06592   2.04928
    R8        1.98042   0.02657   0.06263   0.00359   0.06622   2.04665
    R9        2.51530   0.03233   0.05650  -0.00254   0.05399   2.56929
    A1        1.85164  -0.00144  -0.00353  -0.02160  -0.02538   1.82626
    A2        2.24806   0.00841   0.02155   0.04336   0.06482   2.31288
    A3        2.19641  -0.00440  -0.00544  -0.04639  -0.05192   2.14449
    A4        1.83872  -0.00401  -0.01611   0.00302  -0.01290   1.82582
    A5        1.91727   0.00478   0.01248   0.01280   0.02526   1.94253
    A6        2.16690  -0.00628  -0.01408  -0.03416  -0.04822   2.11868
    A7        2.19902   0.00151   0.00160   0.02135   0.02296   2.22198
    A8        2.18493   0.00010   0.00194   0.00575   0.00772   2.19265
    A9        1.92431   0.00468   0.00376   0.02607   0.02978   1.95408
   A10        2.17395  -0.00478  -0.00570  -0.03182  -0.03749   2.13646
   A11        2.19738   0.00172  -0.00218   0.00806   0.00579   2.20318
   A12        2.19296   0.00228  -0.00120   0.01225   0.01096   2.20392
   A13        1.89284  -0.00401   0.00339  -0.02030  -0.01675   1.87609
    D1        0.00000   0.00000   0.00000   0.00000   0.00000   0.00000
    D2        3.14159   0.00000   0.00000   0.00000   0.00000   3.14159
    D3        3.14159   0.00000   0.00000   0.00000   0.00000   3.14159
    D4        0.00000   0.00000   0.00000   0.00000   0.00000   0.00000
    D5        3.14159   0.00000   0.00000   0.00000   0.00000   3.14159
    D6        0.00000   0.00000   0.00000   0.00000   0.00000   0.00000
    D7        0.00000   0.00000   0.00000   0.00000   0.00000   0.00000
    D8        3.14159   0.00000   0.00000   0.00000   0.00000   3.14159
    D9        0.00000   0.00000   0.00000   0.00000   0.00000   0.00000
   D10        3.14159   0.00000   0.00000   0.00000   0.00000   3.14159
   D11        3.14159   0.00000   0.00000   0.00000   0.00000   3.14159
   D12        0.00000   0.00000   0.00000   0.00000   0.00000   0.00000
   D13        3.14159   0.00000   0.00000   0.00000   0.00000   3.14159
   D14        0.00000   0.00000   0.00000   0.00000   0.00000   0.00000
   D15        0.00000   0.00000   0.00000   0.00000   0.00000   0.00000
   D16        3.14159   0.00000   0.00000   0.00000   0.00000   3.14159
         Item               Value     Threshold  Converged?
 Maximum Force            0.043546     0.000450     NO 
 RMS     Force            0.014292     0.000300     NO 
 Maximum Displacement     0.123973     0.001800     NO 
 RMS     Displacement     0.039244     0.001200     NO 
 Predicted change in Energy=-5.833153D-03
 GradGradGradGradGradGradGradGradGradGradGradGradGradGradGradGradGradGrad

 Leave Link  103 at Mon Jun 20 07:11:47 2011, MaxMem=   24000000 cpu:       0.0
 (Enter /usr/local/gaussian03-rev-E01-64/g03/l202.exe)
                          Input orientation:                          
 ---------------------------------------------------------------------
 Center     Atomic     Atomic              Coordinates (Angstroms)
 Number     Number      Type              X           Y           Z
 ---------------------------------------------------------------------
    1          7             0        0.357865    0.000000    1.387280
    2          1             0        0.353821    0.000000   -1.797974
    3          6             0       -1.149642    0.000000   -0.300518
    4          1             0       -2.037707    0.000000   -0.918233
    5          6             0       -0.964796    0.000000    1.067243
    6          1             0       -1.731518    0.000000    1.834142
    7          1             0        2.055120    0.000000    0.087584
    8          6             0        0.981079    0.000000    0.226894
    9          7             0        0.110777    0.000000   -0.817668
 ---------------------------------------------------------------------
                    Distance matrix (angstroms):
                    1          2          3          4          5
     1  N    0.000000
     2  H    3.185256   0.000000
     3  C    2.263016   2.121974   0.000000
     4  H    3.324779   2.548205   1.081772   0.000000
     5  C    1.360829   3.154080   1.380195   2.256824   0.000000
     6  H    2.136634   4.188186   2.212544   2.769354   1.084433
     7  H    2.137728   2.539636   3.228176   4.214606   3.174842
     8  C    1.317153   2.119797   2.195025   3.228681   2.119579
     9  N    2.218749   1.009985   1.362388   2.150836   2.170195
                    6          7          8          9
     6  H    0.000000
     7  H    4.170022   0.000000
     8  C    3.153003   1.083038   0.000000
     9  N    3.228954   2.144750   1.359608   0.000000
 Stoichiometry    C3H4N2
 Framework group  CS[SG(C3H4N2)]
 Deg. of freedom    15
 Full point group                 CS
 Largest Abelian subgroup         CS      NOp   2
 Largest concise Abelian subgroup C1      NOp   1
                         Standard orientation:                         
 ---------------------------------------------------------------------
 Center     Atomic     Atomic              Coordinates (Angstroms)
 Number     Number      Type              X           Y           Z
 ---------------------------------------------------------------------
    1          7             0       -0.734628   -0.993703    0.000000
    2          1             0       -0.017323    2.109735    0.000000
    3          6             0        1.112583    0.313604    0.000000
    4          1             0        2.116432    0.716739    0.000000
    5          6             0        0.626112   -0.978016    0.000000
    6          1             0        1.201604   -1.897149    0.000000
    7          1             0       -2.097693    0.653092    0.000000
    8          6             0       -1.082133    0.276781    0.000000
    9          7             0        0.000000    1.099899    0.000000
 ---------------------------------------------------------------------
 Rotational constants (GHZ):      9.9264749      9.3573229      4.8167499
 Leave Link  202 at Mon Jun 20 07:11:48 2011, MaxMem=   24000000 cpu:       0.0
 (Enter /usr/local/gaussian03-rev-E01-64/g03/l301.exe)
 Standard basis: 6-31G(d) (6D, 7F)
 There are    63 symmetry adapted basis functions of A'  symmetry.
 There are    20 symmetry adapted basis functions of A"  symmetry.
 Integral buffers will be    131072 words long.
 Raffenetti 2 integral format.
 Two-electron integral symmetry is turned on.
    83 basis functions,   156 primitive gaussians,    83 cartesian basis functions
    18 alpha electrons       18 beta electrons
       nuclear repulsion energy       163.6898717930 Hartrees.
 IExCor=1009 DFT=T Ex=PBE+HF Corr=PBE ExCW=0 ScaHFX=  0.250000
 ScaDFX=  0.750000  0.750000  1.000000  1.000000
 IRadAn=      0 IRanWt=     -1 IRanGd=            0 ICorTp=0
 NAtoms=    9 NActive=    9 NUniq=    9 SFac= 7.50D-01 NAtFMM=   80 NAOKFM=F Big=F
 Leave Link  301 at Mon Jun 20 07:11:48 2011, MaxMem=   24000000 cpu:       0.0
 (Enter /usr/local/gaussian03-rev-E01-64/g03/l302.exe)
 NPDir=0 NMtPBC=     1 NCelOv=     1 NCel=       1 NClECP=     1 NCelD=      1
         NCelK=      1 NCelE2=     1 NClLst=     1 CellRange=     0.0.
 One-electron integrals computed using PRISM.
 NBasis=    83 RedAO= T  NBF=    63    20
 NBsUse=    83 1.00D-06 NBFU=    63    20
 Precomputing XC quadrature grid using
 IXCGrd= 2 IRadAn=           0 IRanWt=          -1 IRanGd=           0.
 NRdTot=     555 NPtTot=       69836 NUsed=       73758 NTot=       73790
 NSgBfM=    83    83    83    83.
 Leave Link  302 at Mon Jun 20 07:11:48 2011, MaxMem=   24000000 cpu:       0.2
 (Enter /usr/local/gaussian03-rev-E01-64/g03/l303.exe)
 DipDrv:  MaxL=1.
 Leave Link  303 at Mon Jun 20 07:11:48 2011, MaxMem=   24000000 cpu:       0.0
 (Enter /usr/local/gaussian03-rev-E01-64/g03/l401.exe)
 Initial guess read from the read-write file:
 Guess basis will be translated and rotated to current coordinates.
 Initial guess orbital symmetries:
       Occupied  (A') (A') (A') (A') (A') (A') (A') (A') (A') (A')
                 (A') (A') (A") (A') (A') (A") (A') (A")
       Virtual   (A") (A') (A") (A') (A') (A') (A') (A') (A') (A')
                 (A') (A') (A") (A') (A") (A') (A") (A') (A') (A')
                 (A") (A') (A') (A') (A") (A') (A') (A') (A') (A')
                 (A') (A') (A") (A') (A") (A") (A') (A') (A") (A")
                 (A') (A') (A') (A') (A') (A') (A") (A") (A') (A')
                 (A") (A") (A') (A') (A") (A') (A') (A') (A') (A')
                 (A') (A') (A') (A') (A')
 The electronic state of the initial guess is 1-A'.
 Generating alternative initial guess.
 Harris functional with IExCor= 1009 diagonalized for initial guess.
 ExpMin= 1.61D-01 ExpMax= 4.17D+03 ExpMxC= 6.27D+02 IAcc=1 IRadAn=         1 AccDes= 1.00D-06
 HarFok:  IExCor=1009 AccDes= 1.00D-06 IRadAn=         1 IDoV=1
 ScaDFX=  1.000000  1.000000  1.000000  1.000000
 Harris En= -226.076732651372    
 Leave Link  401 at Mon Jun 20 07:11:49 2011, MaxMem=   24000000 cpu:       0.2
 (Enter /usr/local/gaussian03-rev-E01-64/g03/l502.exe)
 Closed shell SCF:
 Requested convergence on RMS density matrix=1.00D-08 within 128 cycles.
 Requested convergence on MAX density matrix=1.00D-06.
 Requested convergence on             energy=1.00D-06.
 No special actions if energy rises.
 Using DIIS extrapolation, IDIIS=  1040.
 Integral symmetry usage will be decided dynamically.
        73757 words used for storage of precomputed grid.
 Keep R1 integrals in memory in canonical form, NReq=     7915306.
 IEnd=    116005 IEndB=    116005 NGot=  24000000 MDV=  17829753
 LenX=  17829753
 Symmetry not used in FoFDir.
 MinBra= 0 MaxBra= 2 Meth= 1.
 IRaf=       0 NMat=   1 IRICut=       1 DoRegI=T DoRafI=F ISym2E= 0 JSym2E=0.
 Integral accuracy reduced to 1.0D-05 until final iterations.

 Cycle   1  Pass 0  IDiag  1:
 E= -225.953436487056    
 DIIS: error= 3.02D-03 at cycle   1 NSaved=   1.
 NSaved= 1 IEnMin= 1 EnMin= -225.953436487056     IErMin= 1 ErrMin= 3.02D-03
 ErrMax= 3.02D-03 EMaxC= 1.00D-01 BMatC= 1.70D-03 BMatP= 1.70D-03
 IDIUse=3 WtCom= 9.70D-01 WtEn= 3.02D-02
 Coeff-Com:  0.100D+01
 Coeff-En:   0.100D+01
 Coeff:      0.100D+01
 Gap=     0.275 Goal=   None    Shift=    0.000
 GapD=    0.275 DampG=1.000 DampE=1.000 DampFc=1.0000 IDamp=-1.
 RMSDP=8.80D-04 MaxDP=1.42D-02              OVMax= 1.35D-02

 Cycle   2  Pass 0  IDiag  1:
 E= -225.955306610410     Delta-E=       -0.001870123354 Rises=F Damp=F
 DIIS: error= 2.17D-03 at cycle   2 NSaved=   2.
 NSaved= 2 IEnMin= 2 EnMin= -225.955306610410     IErMin= 2 ErrMin= 2.17D-03
 ErrMax= 2.17D-03 EMaxC= 1.00D-01 BMatC= 4.55D-04 BMatP= 1.70D-03
 IDIUse=3 WtCom= 9.78D-01 WtEn= 2.17D-02
 Coeff-Com:  0.288D+00 0.712D+00
 Coeff-En:   0.000D+00 0.100D+01
 Coeff:      0.282D+00 0.718D+00
 Gap=     0.274 Goal=   None    Shift=    0.000
 RMSDP=3.72D-04 MaxDP=7.56D-03 DE=-1.87D-03 OVMax= 9.98D-03

 Cycle   3  Pass 0  IDiag  1:
 E= -225.955534899449     Delta-E=       -0.000228289038 Rises=F Damp=F
 DIIS: error= 1.26D-03 at cycle   3 NSaved=   3.
 NSaved= 3 IEnMin= 3 EnMin= -225.955534899449     IErMin= 3 ErrMin= 1.26D-03
 ErrMax= 1.26D-03 EMaxC= 1.00D-01 BMatC= 2.30D-04 BMatP= 4.55D-04
 IDIUse=3 WtCom= 9.87D-01 WtEn= 1.26D-02
 Coeff-Com:  0.313D-01 0.412D+00 0.557D+00
 Coeff-En:   0.000D+00 0.322D+00 0.678D+00
 Coeff:      0.309D-01 0.411D+00 0.558D+00
 Gap=     0.274 Goal=   None    Shift=    0.000
 RMSDP=1.98D-04 MaxDP=3.64D-03 DE=-2.28D-04 OVMax= 6.62D-03

 Cycle   4  Pass 0  IDiag  1:
 E= -225.955709391184     Delta-E=       -0.000174491735 Rises=F Damp=F
 DIIS: error= 5.39D-04 at cycle   4 NSaved=   4.
 NSaved= 4 IEnMin= 4 EnMin= -225.955709391184     IErMin= 4 ErrMin= 5.39D-04
 ErrMax= 5.39D-04 EMaxC= 1.00D-01 BMatC= 3.17D-05 BMatP= 2.30D-04
 IDIUse=3 WtCom= 9.95D-01 WtEn= 5.39D-03
 Coeff-Com: -0.819D-02 0.180D+00 0.341D+00 0.487D+00
 Coeff-En:   0.000D+00 0.000D+00 0.876D-01 0.912D+00
 Coeff:     -0.815D-02 0.179D+00 0.340D+00 0.490D+00
 Gap=     0.274 Goal=   None    Shift=    0.000
 RMSDP=7.37D-05 MaxDP=1.23D-03 DE=-1.74D-04 OVMax= 2.31D-03

 Cycle   5  Pass 0  IDiag  1:
 E= -225.955739495640     Delta-E=       -0.000030104456 Rises=F Damp=F
 DIIS: error= 9.79D-05 at cycle   5 NSaved=   5.
 NSaved= 5 IEnMin= 5 EnMin= -225.955739495640     IErMin= 5 ErrMin= 9.79D-05
 ErrMax= 9.79D-05 EMaxC= 1.00D-01 BMatC= 7.80D-07 BMatP= 3.17D-05
 IDIUse=1 WtCom= 1.00D+00 WtEn= 0.00D+00
 Coeff-Com: -0.546D-02 0.346D-01 0.819D-01 0.193D+00 0.696D+00
 Coeff:     -0.546D-02 0.346D-01 0.819D-01 0.193D+00 0.696D+00
 Gap=     0.274 Goal=   None    Shift=    0.000
 RMSDP=1.28D-05 MaxDP=1.90D-04 DE=-3.01D-05 OVMax= 4.85D-04

 Cycle   6  Pass 0  IDiag  1:
 E= -225.955740205309     Delta-E=       -0.000000709669 Rises=F Damp=F
 DIIS: error= 2.48D-05 at cycle   6 NSaved=   6.
 NSaved= 6 IEnMin= 6 EnMin= -225.955740205309     IErMin= 6 ErrMin= 2.48D-05
 ErrMax= 2.48D-05 EMaxC= 1.00D-01 BMatC= 9.22D-08 BMatP= 7.80D-07
 IDIUse=1 WtCom= 1.00D+00 WtEn= 0.00D+00
 Coeff-Com: -0.247D-02 0.749D-02 0.230D-01 0.713D-01 0.352D+00 0.548D+00
 Coeff:     -0.247D-02 0.749D-02 0.230D-01 0.713D-01 0.352D+00 0.548D+00
 Gap=     0.274 Goal=   None    Shift=    0.000
 RMSDP=3.22D-06 MaxDP=6.65D-05 DE=-7.10D-07 OVMax= 1.01D-04

 Initial convergence to 1.0D-05 achieved.  Increase integral accuracy.
 Cycle   7  Pass 1  IDiag  1:
 E= -225.955744280739     Delta-E=       -0.000004075429 Rises=F Damp=F
 DIIS: error= 8.37D-06 at cycle   1 NSaved=   1.
 NSaved= 1 IEnMin= 1 EnMin= -225.955744280739     IErMin= 1 ErrMin= 8.37D-06
 ErrMax= 8.37D-06 EMaxC= 1.00D-01 BMatC= 1.06D-08 BMatP= 1.06D-08
 IDIUse=1 WtCom= 1.00D+00 WtEn= 0.00D+00
 Coeff-Com:  0.100D+01
 Coeff:      0.100D+01
 Gap=     0.274 Goal=   None    Shift=    0.000
 RMSDP=3.22D-06 MaxDP=6.65D-05 DE=-4.08D-06 OVMax= 7.51D-05

 Cycle   8  Pass 1  IDiag  1:
 E= -225.955744288911     Delta-E=       -0.000000008172 Rises=F Damp=F
 DIIS: error= 5.68D-06 at cycle   2 NSaved=   2.
 NSaved= 2 IEnMin= 2 EnMin= -225.955744288911     IErMin= 2 ErrMin= 5.68D-06
 ErrMax= 5.68D-06 EMaxC= 1.00D-01 BMatC= 5.36D-09 BMatP= 1.06D-08
 IDIUse=1 WtCom= 1.00D+00 WtEn= 0.00D+00
 Coeff-Com:  0.382D+00 0.618D+00
 Coeff:      0.382D+00 0.618D+00
 Gap=     0.274 Goal=   None    Shift=    0.000
 RMSDP=1.03D-06 MaxDP=1.92D-05 DE=-8.17D-09 OVMax= 3.54D-05

 Cycle   9  Pass 1  IDiag  1:
 E= -225.955744292520     Delta-E=       -0.000000003609 Rises=F Damp=F
 DIIS: error= 3.22D-06 at cycle   3 NSaved=   3.
 NSaved= 3 IEnMin= 3 EnMin= -225.955744292520     IErMin= 3 ErrMin= 3.22D-06
 ErrMax= 3.22D-06 EMaxC= 1.00D-01 BMatC= 1.22D-09 BMatP= 5.36D-09
 IDIUse=1 WtCom= 1.00D+00 WtEn= 0.00D+00
 Coeff-Com: -0.576D-02 0.317D+00 0.689D+00
 Coeff:     -0.576D-02 0.317D+00 0.689D+00
 Gap=     0.274 Goal=   None    Shift=    0.000
 RMSDP=4.44D-07 MaxDP=8.76D-06 DE=-3.61D-09 OVMax= 2.05D-05

 Cycle  10  Pass 1  IDiag  1:
 E= -225.955744293640     Delta-E=       -0.000000001120 Rises=F Damp=F
 DIIS: error= 1.33D-06 at cycle   4 NSaved=   4.
 NSaved= 4 IEnMin= 4 EnMin= -225.955744293640     IErMin= 4 ErrMin= 1.33D-06
 ErrMax= 1.33D-06 EMaxC= 1.00D-01 BMatC= 1.14D-10 BMatP= 1.22D-09
 IDIUse=1 WtCom= 1.00D+00 WtEn= 0.00D+00
 Coeff-Com: -0.156D-01 0.156D+00 0.400D+00 0.460D+00
 Coeff:     -0.156D-01 0.156D+00 0.400D+00 0.460D+00
 Gap=     0.274 Goal=   None    Shift=    0.000
 RMSDP=1.43D-07 MaxDP=2.31D-06 DE=-1.12D-09 OVMax= 5.32D-06

 Cycle  11  Pass 1  IDiag  1:
 E= -225.955744293742     Delta-E=       -0.000000000101 Rises=F Damp=F
 DIIS: error= 2.81D-07 at cycle   5 NSaved=   5.
 NSaved= 5 IEnMin= 5 EnMin= -225.955744293742     IErMin= 5 ErrMin= 2.81D-07
 ErrMax= 2.81D-07 EMaxC= 1.00D-01 BMatC= 9.75D-12 BMatP= 1.14D-10
 IDIUse=1 WtCom= 1.00D+00 WtEn= 0.00D+00
 Coeff-Com: -0.791D-02 0.376D-01 0.128D+00 0.252D+00 0.590D+00
 Coeff:     -0.791D-02 0.376D-01 0.128D+00 0.252D+00 0.590D+00
 Gap=     0.274 Goal=   None    Shift=    0.000
 RMSDP=3.46D-08 MaxDP=6.20D-07 DE=-1.01D-10 OVMax= 1.11D-06

 Cycle  12  Pass 1  IDiag  1:
 E= -225.955744293750     Delta-E=       -0.000000000008 Rises=F Damp=F
 DIIS: error= 6.72D-08 at cycle   6 NSaved=   6.
 NSaved= 6 IEnMin= 6 EnMin= -225.955744293750     IErMin= 6 ErrMin= 6.72D-08
 ErrMax= 6.72D-08 EMaxC= 1.00D-01 BMatC= 5.76D-13 BMatP= 9.75D-12
 IDIUse=1 WtCom= 1.00D+00 WtEn= 0.00D+00
 Coeff-Com: -0.171D-02-0.157D-02 0.152D-01 0.601D-01 0.240D+00 0.688D+00
 Coeff:     -0.171D-02-0.157D-02 0.152D-01 0.601D-01 0.240D+00 0.688D+00
 Gap=     0.274 Goal=   None    Shift=    0.000
 RMSDP=1.24D-08 MaxDP=2.44D-07 DE=-8.13D-12 OVMax= 5.20D-07

 Cycle  13  Pass 1  IDiag  1:
 E= -225.955744293750     Delta-E=        0.000000000000 Rises=F Damp=F
 DIIS: error= 4.20D-08 at cycle   7 NSaved=   7.
 NSaved= 7 IEnMin= 6 EnMin= -225.955744293750     IErMin= 7 ErrMin= 4.20D-08
 ErrMax= 4.20D-08 EMaxC= 1.00D-01 BMatC= 1.14D-13 BMatP= 5.76D-13
 IDIUse=1 WtCom= 1.00D+00 WtEn= 0.00D+00
 Coeff-Com:  0.321D-03-0.683D-02-0.109D-01-0.711D-02 0.279D-01 0.353D+00
 Coeff-Com:  0.643D+00
 Coeff:      0.321D-03-0.683D-02-0.109D-01-0.711D-02 0.279D-01 0.353D+00
 Coeff:      0.643D+00
 Gap=     0.274 Goal=   None    Shift=    0.000
 RMSDP=5.34D-09 MaxDP=9.98D-08 DE= 0.00D+00 OVMax= 1.62D-07

 SCF Done:  E(RPBE+HF-PBE) =  -225.955744294     A.U. after   13 cycles
             Convg  =    0.5343D-08             -V/T =  2.0087
             S**2   =   0.0000
 KE= 2.240102593018D+02 PE=-8.529508092046D+02 EE= 2.392949338162D+02
 Leave Link  502 at Mon Jun 20 07:11:56 2011, MaxMem=   24000000 cpu:       6.7
 (Enter /usr/local/gaussian03-rev-E01-64/g03/l701.exe)
 Compute integral first derivatives.
 ... and contract with generalized density number  0.
 Leave Link  701 at Mon Jun 20 07:11:56 2011, MaxMem=   24000000 cpu:       0.1
 (Enter /usr/local/gaussian03-rev-E01-64/g03/l702.exe)
 L702 exits ... SP integral derivatives will be done elsewhere.
 Leave Link  702 at Mon Jun 20 07:11:56 2011, MaxMem=   24000000 cpu:       0.0
 (Enter /usr/local/gaussian03-rev-E01-64/g03/l703.exe)
 Compute integral first derivatives, UseDBF=F.
 Integral derivatives from FoFDir, PRISM(SPDF).
 Petite list used in FoFDir.
 MinBra= 0 MaxBra= 2 Meth= 1.
 IRaf=       0 NMat=   1 IRICut=       1 DoRegI=T DoRafI=F ISym2E= 1 JSym2E=1.
 Leave Link  703 at Mon Jun 20 07:11:59 2011, MaxMem=   24000000 cpu:       3.1
 (Enter /usr/local/gaussian03-rev-E01-64/g03/l716.exe)
 Dipole        = 4.36574109D-01 1.43474374D+00-1.02354377D-31
 ***** Axes restored to original set *****
 -------------------------------------------------------------------
 Center     Atomic                   Forces (Hartrees/Bohr)
 Number     Number              X              Y              Z
 -------------------------------------------------------------------
    1          7           0.006677813    0.000000000   -0.006605588
    2          1          -0.000270535    0.000000000    0.001939987
    3          6          -0.006816837    0.000000000    0.010946252
    4          1           0.001610238    0.000000000    0.000607036
    5          6          -0.011241760    0.000000000   -0.005672028
    6          1           0.001089914    0.000000000   -0.001049458
    7          1          -0.000799320    0.000000000   -0.000231549
    8          6           0.002221425    0.000000000    0.003823878
    9          7           0.007529062    0.000000000   -0.003758530
 -------------------------------------------------------------------
 Cartesian Forces:  Max     0.011241760 RMS     0.004359815
 Leave Link  716 at Mon Jun 20 07:11:59 2011, MaxMem=   24000000 cpu:       0.0
 (Enter /usr/local/gaussian03-rev-E01-64/g03/l103.exe)

 GradGradGradGradGradGradGradGradGradGradGradGradGradGradGradGradGradGrad
 Berny optimization.
 Internal  Forces:  Max     0.008639685 RMS     0.002597558
 Search for a local minimum.
 Step number   3 out of a maximum of  48
 All quantities printed in internal units (Hartrees-Bohrs-Radians)
 Update second derivatives using D2CorX and points  1  2  3
 Trust test= 1.34D+00 RLast= 2.06D-01 DXMaxT set to 6.00D-01
     Eigenvalues ---    0.03205   0.03261   0.03287   0.03304   0.03349
     Eigenvalues ---    0.03404   0.15355   0.16000   0.16001   0.16003
     Eigenvalues ---    0.22146   0.23471   0.45263   0.49331   0.49624
     Eigenvalues ---    0.55847   0.59204   0.63862   0.66301   0.73815
     Eigenvalues ---    0.749171000.000001000.000001000.000001000.00000
     Eigenvalues --- 1000.000001000.000001000.000001000.000001000.00000
     Eigenvalues --- 1000.000001000.000001000.000001000.000001000.00000
     Eigenvalues --- 1000.000001000.000001000.00000
 RFO step:  Lambda=-4.68737626D-04.
 Quartic linear search produced a step of  0.00396.
 Iteration  1 RMS(Cart)=  0.00558670 RMS(Int)=  0.00001796
 Iteration  2 RMS(Cart)=  0.00001727 RMS(Int)=  0.00000384
 Iteration  3 RMS(Cart)=  0.00000000 RMS(Int)=  0.00000384
 Variable       Old X    -DE/DX   Delta X   Delta X   Delta X     New X
                                 (Linear)    (Quad)   (Total)
    R1        2.57159   0.00700   0.00024   0.01088   0.01113   2.58272
    R2        2.48906  -0.00435   0.00007  -0.00562  -0.00556   2.48350
    R3        1.90860  -0.00195   0.00019  -0.00182  -0.00163   1.90696
    R4        2.04425  -0.00167   0.00026  -0.00155  -0.00129   2.04296
    R5        2.60819  -0.00823   0.00012  -0.01207  -0.01194   2.59625
    R6        2.57454   0.00864   0.00029   0.01328   0.01356   2.58810
    R7        2.04928  -0.00151   0.00026  -0.00124  -0.00098   2.04830
    R8        2.04665  -0.00076   0.00026   0.00031   0.00057   2.04722
    R9        2.56929  -0.00099   0.00021   0.00025   0.00046   2.56974
    A1        1.82626   0.00402  -0.00010   0.01448   0.01438   1.84064
    A2        2.31288   0.00015   0.00026   0.00193   0.00218   2.31506
    A3        2.14449  -0.00070  -0.00021  -0.00572  -0.00593   2.13856
    A4        1.82582   0.00055  -0.00005   0.00380   0.00375   1.82957
    A5        1.94253  -0.00242   0.00010  -0.01018  -0.01007   1.93246
    A6        2.11868   0.00118  -0.00019   0.00418   0.00398   2.12266
    A7        2.22198   0.00124   0.00009   0.00601   0.00609   2.22807
    A8        2.19265   0.00160   0.00003   0.00806   0.00809   2.20074
    A9        1.95408  -0.00251   0.00012  -0.01095  -0.01084   1.94324
   A10        2.13646   0.00091  -0.00015   0.00289   0.00275   2.13920
   A11        2.20318   0.00001   0.00002  -0.00028  -0.00026   2.20292
   A12        2.20392  -0.00037   0.00004  -0.00258  -0.00253   2.20140
   A13        1.87609   0.00035  -0.00007   0.00286   0.00278   1.87887
    D1        0.00000   0.00000   0.00000   0.00000   0.00000   0.00000
    D2        3.14159   0.00000   0.00000   0.00000   0.00000   3.14159
    D3        3.14159   0.00000   0.00000   0.00000   0.00000   3.14159
    D4        0.00000   0.00000   0.00000   0.00000   0.00000   0.00000
    D5        3.14159   0.00000   0.00000   0.00000   0.00000   3.14159
    D6        0.00000   0.00000   0.00000   0.00000   0.00000   0.00000
    D7        0.00000   0.00000   0.00000   0.00000   0.00000   0.00000
    D8        3.14159   0.00000   0.00000   0.00000   0.00000   3.14159
    D9        0.00000   0.00000   0.00000   0.00000   0.00000   0.00000
   D10        3.14159   0.00000   0.00000   0.00000   0.00000   3.14159
[...]
     15 -0.139007D-01 -0.137567D-01  0.276574D-01 -0.614313D-01  0.902752D-01
     16 -0.137638D-01 -0.113414D-01  0.251052D-01 -0.533622D-01 -0.288438D-01
     17 -0.304092D-02 -0.740648D-03  0.378157D-02 -0.105219D-01  0.947088D-02
     18  0.409255D-02 -0.683950D-02  0.274694D-02  0.106457D-01 -0.107425D-01
     19 -0.105163D-02  0.758015D-02 -0.652851D-02 -0.123832D-03  0.127158D-02
     20 -0.131865D-01 -0.174723D-01  0.306588D-01 -0.788406D-02 -0.459059D-03
     21 -0.123197D-01 -0.136875D-01  0.260072D-01  0.573991D-02 -0.430072D-02
     22  0.255062D-01  0.311598D-01 -0.566660D-01  0.214415D-02  0.475978D-02
     23  0.000000D+00  0.000000D+00  0.000000D+00  0.000000D+00  0.000000D+00
     24  0.000000D+00  0.000000D+00  0.000000D+00  0.000000D+00  0.000000D+00
     25  0.000000D+00  0.000000D+00  0.000000D+00  0.000000D+00  0.000000D+00
     26  0.000000D+00  0.000000D+00  0.000000D+00  0.000000D+00  0.000000D+00
     27  0.000000D+00  0.000000D+00  0.000000D+00  0.000000D+00  0.000000D+00
     28  0.000000D+00  0.000000D+00  0.000000D+00  0.000000D+00  0.000000D+00
     29  0.000000D+00  0.000000D+00  0.000000D+00  0.000000D+00  0.000000D+00
     30  0.000000D+00  0.000000D+00  0.000000D+00  0.000000D+00  0.000000D+00
     31  0.000000D+00  0.000000D+00  0.000000D+00  0.000000D+00  0.000000D+00
     32  0.000000D+00  0.000000D+00  0.000000D+00  0.000000D+00  0.000000D+00
     33  0.000000D+00  0.000000D+00  0.000000D+00  0.000000D+00  0.000000D+00
     34  0.000000D+00  0.000000D+00  0.000000D+00  0.000000D+00  0.000000D+00
     35  0.000000D+00  0.000000D+00  0.000000D+00  0.000000D+00  0.000000D+00
     36  0.000000D+00  0.000000D+00  0.000000D+00  0.000000D+00  0.000000D+00
     37  0.000000D+00  0.000000D+00  0.000000D+00  0.000000D+00  0.000000D+00
     38  0.000000D+00  0.000000D+00  0.000000D+00  0.000000D+00  0.000000D+00
               16            17            18            19            20
     16  0.822061D-01
     17  0.105101D-02  0.899130D-01
     18  0.967450D-04 -0.595970D-01  0.120159D+00
     19 -0.114775D-02 -0.303160D-01 -0.605621D-01  0.908781D-01
     20  0.834312D-02 -0.130570D-01  0.257063D-01 -0.126493D-01  0.793180D-01
     21 -0.143918D-02 -0.164646D-01  0.341574D-01 -0.176928D-01 -0.277677D-01
     22 -0.690393D-02  0.295216D-01 -0.598637D-01  0.303421D-01 -0.515503D-01
     23  0.000000D+00  0.000000D+00  0.000000D+00  0.000000D+00  0.000000D+00
     24  0.000000D+00  0.000000D+00  0.000000D+00  0.000000D+00  0.000000D+00
     25  0.000000D+00  0.000000D+00  0.000000D+00  0.000000D+00  0.000000D+00
     26  0.000000D+00  0.000000D+00  0.000000D+00  0.000000D+00  0.000000D+00
     27  0.000000D+00  0.000000D+00  0.000000D+00  0.000000D+00  0.000000D+00
     28  0.000000D+00  0.000000D+00  0.000000D+00  0.000000D+00  0.000000D+00
     29  0.000000D+00  0.000000D+00  0.000000D+00  0.000000D+00  0.000000D+00
     30  0.000000D+00  0.000000D+00  0.000000D+00  0.000000D+00  0.000000D+00
     31  0.000000D+00  0.000000D+00  0.000000D+00  0.000000D+00  0.000000D+00
     32  0.000000D+00  0.000000D+00  0.000000D+00  0.000000D+00  0.000000D+00
     33  0.000000D+00  0.000000D+00  0.000000D+00  0.000000D+00  0.000000D+00
     34  0.000000D+00  0.000000D+00  0.000000D+00  0.000000D+00  0.000000D+00
     35  0.000000D+00  0.000000D+00  0.000000D+00  0.000000D+00  0.000000D+00
     36  0.000000D+00  0.000000D+00  0.000000D+00  0.000000D+00  0.000000D+00
     37  0.000000D+00  0.000000D+00  0.000000D+00  0.000000D+00  0.000000D+00
     38  0.000000D+00  0.000000D+00  0.000000D+00  0.000000D+00  0.000000D+00
               21            22            23            24            25
     21  0.800758D-01
     22 -0.523081D-01  0.103858D+00
     23  0.000000D+00  0.000000D+00  0.192769D-01
     24  0.000000D+00  0.000000D+00  0.670817D-02  0.109534D-01
     25  0.000000D+00  0.000000D+00 -0.648915D-02 -0.344911D-02  0.108180D-01
     26  0.000000D+00  0.000000D+00 -0.154397D-01 -0.714911D-02  0.487403D-02
     27  0.000000D+00  0.000000D+00 -0.902247D-02  0.781972D-03  0.115732D-02
     28  0.000000D+00  0.000000D+00  0.458063D-02 -0.381260D-02 -0.213292D-02
     29  0.000000D+00  0.000000D+00 -0.155694D-01 -0.372783D-02  0.554887D-02
     30  0.000000D+00  0.000000D+00 -0.196630D-02 -0.832240D-02  0.225863D-02
     31  0.000000D+00  0.000000D+00 -0.501848D-03 -0.151368D-02 -0.995983D-03
     32  0.000000D+00  0.000000D+00  0.134661D-03 -0.455599D-02  0.136383D-02
     33  0.000000D+00  0.000000D+00  0.516999D-02  0.239332D-02 -0.480054D-02
     34  0.000000D+00  0.000000D+00  0.580650D-02 -0.648988D-03 -0.244073D-02
     35  0.000000D+00  0.000000D+00  0.688604D-02  0.200405D-02  0.790279D-03
     36  0.000000D+00  0.000000D+00  0.624725D-02  0.505727D-02 -0.157800D-02
     37  0.000000D+00  0.000000D+00 -0.169669D-02 -0.154390D-02 -0.490945D-02
     38  0.000000D+00  0.000000D+00 -0.233548D-02  0.150933D-02 -0.727773D-02
               26            27            28            29            30
     26  0.188780D-01
     27  0.664036D-02  0.965309D-02
     28 -0.233256D-02 -0.958252D-03  0.812575D-02
     29  0.627407D-02  0.784495D-02 -0.497118D-02  0.184710D-01
     30 -0.269885D-02 -0.276640D-02  0.411281D-02  0.565482D-02  0.125340D-01
     31 -0.646908D-03 -0.219013D-02 -0.109502D-02  0.140337D-02  0.249848D-02
     32  0.481868D-02 -0.516512D-02 -0.884282D-04 -0.479662D-02  0.280073D-03
     33 -0.329578D-03 -0.623667D-03  0.238153D-02 -0.780231D-02 -0.479712D-02
     34  0.513601D-02 -0.359866D-02  0.338812D-02 -0.140023D-01 -0.701553D-02
     35 -0.100886D-01 -0.495821D-02  0.325576D-03 -0.120999D-02  0.407380D-02
     36 -0.155738D-01 -0.197254D-02 -0.684630D-03  0.501226D-02  0.630017D-02
     37  0.333988D-02  0.299504D-03  0.134144D-03 -0.514586D-03 -0.679947D-03
     38 -0.214533D-02  0.328517D-02 -0.876062D-03  0.570766D-02  0.154642D-02
               31            32            33            34            35
     31  0.330045D-02
     32  0.138563D-02  0.776417D-02
     33  0.187267D-03  0.106638D-02  0.640639D-02
     34 -0.172756D-02  0.744493D-02  0.728550D-02  0.164580D-01
     35 -0.381759D-03 -0.155198D-02 -0.362898D-02 -0.479920D-02  0.848078D-02
     36  0.153994D-02 -0.795342D-02 -0.451125D-02 -0.140046D-01  0.965520D-02
     37 -0.470296D-04  0.176090D-02  0.658246D-03  0.246617D-02 -0.195101D-02
     38  0.187466D-02 -0.464054D-02 -0.224022D-03 -0.673923D-02 -0.776587D-03
               36            37            38
     36  0.191826D-01
     37 -0.376542D-02  0.595931D-02
     38  0.576200D-02  0.414489D-02  0.106835D-01
 Leave Link  716 at Mon Jun 20 07:14:09 2011, MaxMem=   24000000 cpu:       0.0
 (Enter /usr/local/gaussian03-rev-E01-64/g03/l103.exe)

 GradGradGradGradGradGradGradGradGradGradGradGradGradGradGradGradGradGrad
 Berny optimization.
 Internal  Forces:  Max     0.000169920 RMS     0.000051545
 Search for a local minimum.
 Step number   1 out of a maximum of   2
 All quantities printed in internal units (Hartrees-Bohrs-Radians)
 Second derivative matrix not updated -- analytic derivatives used.
     Eigenvalues ---    0.00531   0.01086   0.02009   0.02772   0.06030
     Eigenvalues ---    0.06266   0.09936   0.10607   0.11180   0.11986
     Eigenvalues ---    0.23638   0.25141   0.36592   0.38061   0.38464
     Eigenvalues ---    0.38736   0.42720   0.46755   0.48824   0.49642
     Eigenvalues ---    0.604511000.000001000.000001000.000001000.00000
     Eigenvalues --- 1000.000001000.000001000.000001000.000001000.00000
     Eigenvalues --- 1000.000001000.000001000.000001000.000001000.00000
     Eigenvalues --- 1000.000001000.000001000.00000
 Angle between quadratic step and forces=  28.39 degrees.
 Linear search not attempted -- first point.
 Iteration  1 RMS(Cart)=  0.00011599 RMS(Int)=  0.00000002
 Iteration  2 RMS(Cart)=  0.00000002 RMS(Int)=  0.00000000
 Variable       Old X    -DE/DX   Delta X   Delta X   Delta X     New X
                                 (Linear)    (Quad)   (Total)
    R1        2.59046   0.00017   0.00000   0.00053   0.00053   2.59099
    R2        2.47703   0.00008   0.00000   0.00017   0.00017   2.47720
    R3        1.90447  -0.00002   0.00000  -0.00005  -0.00005   1.90442
    R4        2.04037  -0.00002   0.00000  -0.00006  -0.00006   2.04031
    R5        2.58816   0.00005   0.00000   0.00009   0.00009   2.58825
    R6        2.59454  -0.00011   0.00000  -0.00030  -0.00030   2.59424
    R7        2.04450  -0.00004   0.00000  -0.00013  -0.00013   2.04437
    R8        2.04501  -0.00001   0.00000  -0.00003  -0.00003   2.04498
    R9        2.56982  -0.00015   0.00000  -0.00041  -0.00041   2.56941
    A1        1.83458  -0.00007   0.00000  -0.00021  -0.00021   1.83437
    A2        2.31895  -0.00004   0.00000  -0.00035  -0.00035   2.31860
    A3        2.13309   0.00001   0.00000   0.00024   0.00024   2.13333
    A4        1.83114   0.00003   0.00000   0.00011   0.00011   1.83125
    A5        1.93515  -0.00006   0.00000  -0.00019  -0.00019   1.93496
    A6        2.11671   0.00000   0.00000  -0.00028  -0.00028   2.11642
    A7        2.23133   0.00007   0.00000   0.00048   0.00048   2.23181
    A8        2.19673  -0.00003   0.00000  -0.00021  -0.00021   2.19652
    A9        1.95170   0.00004   0.00000   0.00014   0.00014   1.95185
   A10        2.13475  -0.00001   0.00000   0.00007   0.00007   2.13482
   A11        2.20306  -0.00004   0.00000  -0.00022  -0.00022   2.20284
   A12        2.20792  -0.00001   0.00000   0.00007   0.00007   2.20799
   A13        1.87221   0.00006   0.00000   0.00015   0.00015   1.87236
    D1        0.00000   0.00000   0.00000   0.00000   0.00000   0.00000
    D2        3.14159   0.00000   0.00000   0.00000   0.00000   3.14159
    D3        3.14159   0.00000   0.00000   0.00000   0.00000   3.14159
    D4        0.00000   0.00000   0.00000   0.00000   0.00000   0.00000
    D5        3.14159   0.00000   0.00000   0.00000   0.00000   3.14159
    D6        0.00000   0.00000   0.00000   0.00000   0.00000   0.00000
    D7        0.00000   0.00000   0.00000   0.00000   0.00000   0.00000
    D8        3.14159   0.00000   0.00000   0.00000   0.00000   3.14159
    D9        0.00000   0.00000   0.00000   0.00000   0.00000   0.00000
   D10        3.14159   0.00000   0.00000   0.00000   0.00000   3.14159
   D11        3.14159   0.00000   0.00000   0.00000   0.00000   3.14159
   D12        0.00000   0.00000   0.00000   0.00000   0.00000   0.00000
   D13        3.14159   0.00000   0.00000   0.00000   0.00000   3.14159
   D14        0.00000   0.00000   0.00000   0.00000   0.00000   0.00000
   D15        0.00000   0.00000   0.00000   0.00000   0.00000   0.00000
   D16        3.14159   0.00000   0.00000   0.00000   0.00000   3.14159
         Item               Value     Threshold  Converged?
 Maximum Force            0.000170     0.000450     YES
 RMS     Force            0.000052     0.000300     YES
 Maximum Displacement     0.000345     0.001800     YES
 RMS     Displacement     0.000116     0.001200     YES
 Predicted change in Energy=-1.607078D-07
 Optimization completed.
    -- Stationary point found.
                           ----------------------------
                           !   Optimized Parameters   !
                           ! (Angstroms and Degrees)  !
 --------------------------                            --------------------------
 ! Name  Definition              Value          Derivative Info.                !
 --------------------------------------------------------------------------------
 ! R1    R(1,5)                  1.3708         -DE/DX =    0.0002              !
 ! R2    R(1,8)                  1.3108         -DE/DX =    0.0001              !
 ! R3    R(2,9)                  1.0078         -DE/DX =    0.0                 !
 ! R4    R(3,4)                  1.0797         -DE/DX =    0.0                 !
 ! R5    R(3,5)                  1.3696         -DE/DX =    0.0001              !
 ! R6    R(3,9)                  1.373          -DE/DX =   -0.0001              !
 ! R7    R(5,6)                  1.0819         -DE/DX =    0.0                 !
 ! R8    R(7,8)                  1.0822         -DE/DX =    0.0                 !
 ! R9    R(8,9)                  1.3599         -DE/DX =   -0.0002              !
 ! A1    A(5,1,8)              105.1134         -DE/DX =   -0.0001              !
 ! A2    A(4,3,5)              132.8659         -DE/DX =    0.0                 !
 ! A3    A(4,3,9)              122.2173         -DE/DX =    0.0                 !
 ! A4    A(5,3,9)              104.9169         -DE/DX =    0.0                 !
 ! A5    A(1,5,3)              110.8757         -DE/DX =   -0.0001              !
 ! A6    A(1,5,6)              121.2785         -DE/DX =    0.0                 !
 ! A7    A(3,5,6)              127.8458         -DE/DX =    0.0001              !
 ! A8    A(1,8,7)              125.8634         -DE/DX =    0.0                 !
 ! A9    A(1,8,9)              111.8244         -DE/DX =    0.0                 !
 ! A10   A(7,8,9)              122.3122         -DE/DX =    0.0                 !
 ! A11   A(2,9,3)              126.2258         -DE/DX =    0.0                 !
 ! A12   A(2,9,8)              126.5045         -DE/DX =    0.0                 !
 ! A13   A(3,9,8)              107.2697         -DE/DX =    0.0001              !
 ! D1    D(8,1,5,3)              0.0            -DE/DX =    0.0                 !
 ! D2    D(8,1,5,6)            180.0            -DE/DX =    0.0                 !
 ! D3    D(5,1,8,7)            180.0            -DE/DX =    0.0                 !
 ! D4    D(5,1,8,9)              0.0            -DE/DX =    0.0                 !
 ! D5    D(4,3,5,1)            180.0            -DE/DX =    0.0                 !
 ! D6    D(4,3,5,6)              0.0            -DE/DX =    0.0                 !
 ! D7    D(9,3,5,1)              0.0            -DE/DX =    0.0                 !
 ! D8    D(9,3,5,6)            180.0            -DE/DX =    0.0                 !
 ! D9    D(4,3,9,2)              0.0            -DE/DX =    0.0                 !
 ! D10   D(4,3,9,8)            180.0            -DE/DX =    0.0                 !
 ! D11   D(5,3,9,2)            180.0            -DE/DX =    0.0                 !
 ! D12   D(5,3,9,8)              0.0            -DE/DX =    0.0                 !
 ! D13   D(1,8,9,2)            180.0            -DE/DX =    0.0                 !
 ! D14   D(1,8,9,3)              0.0            -DE/DX =    0.0                 !
 ! D15   D(7,8,9,2)              0.0            -DE/DX =    0.0                 !
 ! D16   D(7,8,9,3)            180.0            -DE/DX =    0.0                 !
 --------------------------------------------------------------------------------
 GradGradGradGradGradGradGradGradGradGradGradGradGradGradGradGradGradGrad

 Leave Link  103 at Mon Jun 20 07:14:09 2011, MaxMem=   24000000 cpu:       0.0
 (Enter /usr/local/gaussian03-rev-E01-64/g03/l9999.exe)
 1\1\GINC-P2212\Freq\RPBE1PBE\6-31G(d)\C3H4N2\RDJ3\20-Jun-2011\0\\#P Ge
 om=AllCheck Guess=Read SCRF=Check GenChk RPBE1PBE/6-31G(d) Freq\\1H im
 idazole C3H4N2 casno=288324 method=54 basis=1\\0,1\N,0.3603922265,0.,1
 .3801126603\H,0.3540814339,0.,-1.7971225692\C,-1.1539427403,0.,-0.2931
 281069\H,-2.0351458249,0.,-0.9170418767\C,-0.9736004485,0.,1.064542905
 6\H,-1.733098453,0.,1.8350502918\H,2.0573535112,0.,0.0871819008\C,0.98
 42910271,0.,0.2273254064\N,0.1146692679,0.,-0.8181706121\\Version=AM64
 L-G03RevE.01\State=1-A'\HF=-225.9560558\RMSD=5.180e-09\RMSF=1.027e-04\
 ZeroPoint=0.0721398\Thermal=0.0758743\Dipole=-0.1087153,0.,-1.4813516\
 DipoleDeriv=-0.3992793,0.,-0.0138427,0.,-0.3069428,0.,-0.0084063,0.,-0
 .5827611,0.1918418,0.,-0.0043343,0.,0.34638,0.,-0.0049157,0.,0.1993976
 ,-0.0028321,0.,-0.2315474,0.,-0.1239906,0.,-0.0245336,0.,0.1728904,0.0
 230523,0.,-0.042178,0.,0.1780112,0.,-0.0674601,0.,0.0389218,0.1940523,
 0.,-0.0465919,0.,-0.1111351,0.,-0.0816084,0.,0.1303756,-0.0061423,0.,0
 .0661043,0.,0.1405281,0.,0.080235,0.,0.0274494,-0.028332,0.,0.0349008,
 0.,0.1473315,0.,0.0358003,0.,0.0661648,0.1416837,0.,0.0850632,0.,0.014
 6588,0.,0.0036842,0.,0.5399933,-0.1140445,0.,0.1524261,0.,-0.2848411,0
 .,0.0672046,0.,-0.5924319\Polar=47.6572393,0.,17.6435692,-0.6970623,0.
 ,44.9147986\PG=CS [SG(C3H4N2)]\NImag=0\\0.52550213,0.,0.10601748,-0.06
 584161,0.,0.59818952,-0.00311182,0.,-0.00841783,0.08367748,0.,0.007218
 13,0.,0.,0.01169393,-0.00310365,0.,-0.00379424,-0.09912520,0.,0.462125
 15,-0.03312822,0.,-0.01208448,0.00694813,0.,-0.00288501,0.77242701,0.,
 0.01676873,0.,0.,-0.00788820,0.,0.,0.10824370,-0.08872738,0.,-0.019687
 74,0.02879594,0.,-0.00095652,0.15749213,0.,0.76693007,0.00150120,0.,0.
 00112588,0.00010689,0.,0.00010014,-0.26132548,0.,-0.14326857,0.2757739
 7,0.,0.00733689,0.,0.,-0.00114340,0.,0.,-0.02009783,0.,0.,0.01836613,-
 0.00422061,0.,-0.00568894,-0.00091606,0.,0.00018238,-0.15393838,0.,-0.
 16830555,0.15762092,0.,0.16134209,-0.28220589,0.,-0.04311362,-0.008839
 26,0.,-0.00108420,-0.10174061,0.,-0.02159778,0.00512163,0.,-0.02201763
 ,0.69025196,0.,-0.07096302,0.,0.,0.00246773,0.,0.,-0.06460538,0.,0.,-0
 .00213494,0.,0.,0.13356787,-0.05416886,0.,-0.11344736,0.00365542,0.,0.
 00023503,-0.03831657,0.,-0.40910790,0.00120928,0.,0.00257875,-0.149640
 75,0.,0.82170889,-0.02017145,0.,0.02079280,0.00087599,0.,-0.00000716,0
 .00888847,0.,-0.00548110,-0.00021754,0.,0.00066758,-0.19707469,0.,0.15
 011619,0.21386587,0.,-0.00555767,0.,0.,0.00210429,0.,0.,-0.00074300,0.
 ,0.,-0.00210205,0.,0.,-0.02880802,0.,0.,0.02330925,-0.00660179,0.,0.01
 264814,0.00127506,0.,0.00024563,0.02066593,0.,-0.00801151,-0.00045618,
 0.,-0.00019040,0.15266154,0.,-0.22194445,-0.16271258,0.,0.22181362,-0.
 00845504,0.,0.00438509,-0.00058205,0.,-0.00049005,0.00079033,0.,-0.003
 20040,-0.00031075,0.,0.00039795,0.00082438,0.,0.00247912,-0.00030585,0
 .,-0.00020891,0.37628743,0.,-0.00571329,0.,0.,-0.00127901,0.,0.,0.0026
 9668,0.,0.,0.00196835,0.,0.,0.00714999,0.,0.,0.00117727,0.,0.,0.020800
 50,0.02962108,0.,0.00059708,0.00047440,0.,0.00028127,-0.00108436,0.,-0
 .00585403,-0.00104976,0.,0.00103628,0.00313588,0.,-0.00451641,0.001403
 03,0.,0.00069500,-0.03972612,0.,0.06269117,-0.17375970,0.,0.12950599,0
 .01848551,0.,0.01401158,-0.09257414,0.,0.00595296,-0.00329842,0.,0.004
 12754,-0.08961544,0.,0.01410957,-0.00626655,0.,-0.00341303,-0.35513013
 ,0.,0.03705867,0.92054114,0.,-0.07727510,0.,0.,-0.00914443,0.,0.,0.017
 10493,0.,0.,0.00276928,0.,0.,0.01011932,0.,0.,0.00553338,0.,0.,-0.0242
 3695,0.,0.,0.13459315,0.15456660,0.,-0.36198371,-0.01701317,0.,-0.0109
 3187,-0.04760755,0.,-0.01212121,0.00389521,0.,-0.00539217,0.07649077,0
 .,-0.00221675,-0.00177404,0.,0.00035133,0.03206335,0.,-0.06234364,-0.0
 8603412,0.,0.68237614,-0.00617120,0.,-0.02635222,-0.09756086,0.,0.0925
 8356,-0.30028550,0.,0.07003419,-0.01735149,0.,0.01827869,-0.01672207,0
 .,0.07055661,0.00040575,0.,-0.00121004,-0.01311832,0.,-0.02983282,-0.2
 1838228,0.,-0.11458705,0.66918597,0.,0.02216786,0.,0.,-0.00402905,0.,0
 .,-0.05147962,0.,0.,-0.00496242,0.,0.,0.01320645,0.,0.,0.00508657,0.,0
 .,-0.00256353,0.,0.,-0.05946359,0.,0.,0.08203733,0.03847621,0.,-0.1068
 3275,0.09127144,0.,-0.44738682,0.07775830,0.,-0.14288560,-0.01917692,0
 .,0.01443757,0.00516580,0.,-0.07328981,-0.00300473,0.,-0.00560737,0.00
 429999,0.,0.00741327,-0.11531916,0.,-0.22773811,-0.07947093,0.,0.98188
 961\\-0.00017805,0.,-0.00014396,0.00002055,0.,-0.00002022,-0.00015424,
 0.,0.00016581,-0.00000478,0.,-0.00003375,0.00028914,0.,-0.00002147,-0.
 00005204,0.,0.00000597,0.00001309,0.,-0.00001203,0.00009378,0.,0.00023
 048,-0.00002745,0.,-0.00017084\\\@


 ERWIN WITH HIS PSI CAN DO
 CALCULATIONS QUITE A FEW.
 BUT ONE THING HAS NOT BEEN SEEN
 JUST WHAT DOES PSI REALLY MEAN.
 -- WALTER HUCKEL, TRANS. BY FELIX BLOCH
 Job cpu time:  0 days  0 hours  1 minutes 34.1 seconds.
 File lengths (MBytes):  RWF=     19 Int=      0 D2E=      0 Chk=      6 Scr=      1
 Normal termination of Gaussian 03 at Mon Jun 20 07:14:09 2011.
