 Entering Gaussian System, Link 0=g09
 Initial command:
 /usr/local/gaussian/g09.b01.em64t.linda/g09/l1.exe /tmp/rdj3/g09-2194/Gau-2244.inp -scrdir=/tmp/rdj3/g09-2194/
 Entering Link 1 = /usr/local/gaussian/g09.b01.em64t.linda/g09/l1.exe PID=      2245.
  
 Copyright (c) 1988,1990,1992,1993,1995,1998,2003,2009,2010,
            Gaussian, Inc.  All Rights Reserved.
  
 This is part of the Gaussian(R) 09 program.  It is based on
 the Gaussian(R) 03 system (copyright 2003, Gaussian, Inc.),
 the Gaussian(R) 98 system (copyright 1998, Gaussian, Inc.),
 the Gaussian(R) 94 system (copyright 1995, Gaussian, Inc.),
 the Gaussian 92(TM) system (copyright 1992, Gaussian, Inc.),
 the Gaussian 90(TM) system (copyright 1990, Gaussian, Inc.),
 the Gaussian 88(TM) system (copyright 1988, Gaussian, Inc.),
 the Gaussian 86(TM) system (copyright 1986, Carnegie Mellon
 University), and the Gaussian 82(TM) system (copyright 1983,
 Carnegie Mellon University). Gaussian is a federally registered
 trademark of Gaussian, Inc.
  
 This software contains proprietary and confidential information,
 including trade secrets, belonging to Gaussian, Inc.
  
 This software is provided under written license and may be
 used, copied, transmitted, or stored only in accord with that
 written license.
  
 The following legend is applicable only to US Government
 contracts under FAR:
  
                    RESTRICTED RIGHTS LEGEND
  
 Use, reproduction and disclosure by the US Government is
 subject to restrictions as set forth in subparagraphs (a)
 and (c) of the Commercial Computer Software - Restricted
 Rights clause in FAR 52.227-19.
  
 Gaussian, Inc.
 340 Quinnipiac St., Bldg. 40, Wallingford CT 06492
  
  
 ---------------------------------------------------------------
 Warning -- This program may not be used in any manner that
 competes with the business of Gaussian, Inc. or will provide
 assistance to any competitor of Gaussian, Inc.  The licensee
 of this program is prohibited from giving any competitor of
 Gaussian, Inc. access to this program.  By using this program,
 the user acknowledges that Gaussian, Inc. is engaged in the
 business of creating and licensing software in the field of
 computational chemistry and represents and warrants to the
 licensee that it is not a competitor of Gaussian, Inc. and that
 it will not use this program in any manner prohibited above.
 ---------------------------------------------------------------
  

 Cite this work as:
 Gaussian 09, Revision B.01,
 M. J. Frisch, G. W. Trucks, H. B. Schlegel, G. E. Scuseria, 
 M. A. Robb, J. R. Cheeseman, G. Scalmani, V. Barone, B. Mennucci, 
 G. A. Petersson, H. Nakatsuji, M. Caricato, X. Li, H. P. Hratchian, 
 A. F. Izmaylov, J. Bloino, G. Zheng, J. L. Sonnenberg, M. Hada, 
 M. Ehara, K. Toyota, R. Fukuda, J. Hasegawa, M. Ishida, T. Nakajima, 
 Y. Honda, O. Kitao, H. Nakai, T. Vreven, J. A. Montgomery, Jr., 
 J. E. Peralta, F. Ogliaro, M. Bearpark, J. J. Heyd, E. Brothers, 
 K. N. Kudin, V. N. Staroverov, T. Keith, R. Kobayashi, J. Normand, 
 K. Raghavachari, A. Rendell, J. C. Burant, S. S. Iyengar, J. Tomasi, 
 M. Cossi, N. Rega, J. M. Millam, M. Klene, J. E. Knox, J. B. Cross, 
 V. Bakken, C. Adamo, J. Jaramillo, R. Gomperts, R. E. Stratmann, 
 O. Yazyev, A. J. Austin, R. Cammi, C. Pomelli, J. W. Ochterski, 
 R. L. Martin, K. Morokuma, V. G. Zakrzewski, G. A. Voth, 
 P. Salvador, J. J. Dannenberg, S. Dapprich, A. D. Daniels, 
 O. Farkas, J. B. Foresman, J. V. Ortiz, J. Cioslowski, 
 and D. J. Fox, Gaussian, Inc., Wallingford CT, 2010.
 
 ******************************************
 Gaussian 09:  EM64L-G09RevB.01 12-Aug-2010
                10-Jan-2012 
 ******************************************
 %NProc=8
 Will use up to    8 processors via shared memory.
 %mem=424000000
 ----------------------------
 #B2PLYP=FULL/6-31G* opt freq
 ----------------------------
 1/18=20,19=15,38=1/1,3;
 2/9=110,12=2,17=6,18=5,40=1/2;
 3/5=1,6=6,7=1,11=9,16=1,25=1,30=1,71=1,74=-47/1,2,3;
 4//1;
 5/5=2,38=5/2;
 8/6=4,10=90/1;
 9/15=2,16=-3/6;
 10/5=1/2;
 6/7=2,8=2,9=2,10=2/1;
 7/12=2/1,2,3,16;
 1/18=20,19=15/3(2);
 2/9=110/2;
 99//99;
 2/9=110/2;
 3/5=1,6=6,7=1,11=9,16=1,25=1,30=1,71=1,74=-47/1,2,3;
 4/5=5,16=3/1;
 5/5=2,38=5/2;
 8/6=4,10=90/1;
 9/15=2,16=-3/6;
 10/5=1/2;
 7/12=2/1,2,3,16;
 1/18=20,19=15/3(-8);
 2/9=110/2;
 6/7=2,8=2,9=2,10=2/1;
 99//99;
 ---------------------------------------------------------------------
 1himidaz 1H-Imidazole casno=288324 state=1 config=1 method=59 basis=1
 ---------------------------------------------------------------------
 Symbolic Z-matrix:
 Charge =  0 Multiplicity = 1
 7                    -0.71353  -0.96317   0. 
 1                    -0.01382   2.05258   0. 
 6                     1.08556   0.3069    0. 
 1                     2.07597   0.65054   0. 
 6                     0.61768  -0.9679    0. 
 1                     1.19944  -1.84156   0. 
 1                    -2.06086   0.63011   0. 
 6                    -1.07091   0.28487   0. 
 7                     0.        1.07247   0. 
 

 GradGradGradGradGradGradGradGradGradGradGradGradGradGradGradGradGradGrad
 Berny optimization.
 Initialization pass.
                           ----------------------------
                           !    Initial Parameters    !
                           ! (Angstroms and Degrees)  !
 --------------------------                            --------------------------
 ! Name  Definition              Value          Derivative Info.                !
 --------------------------------------------------------------------------------
 ! R1    R(1,5)                  1.3312         estimate D2E/DX2                !
 ! R2    R(1,8)                  1.2982         estimate D2E/DX2                !
 ! R3    R(2,9)                  0.9802         estimate D2E/DX2                !
 ! R4    R(3,4)                  1.0483         estimate D2E/DX2                !
 ! R5    R(3,5)                  1.358          estimate D2E/DX2                !
 ! R6    R(3,9)                  1.3284         estimate D2E/DX2                !
 ! R7    R(5,6)                  1.0496         estimate D2E/DX2                !
 ! R8    R(7,8)                  1.0484         estimate D2E/DX2                !
 ! R9    R(8,9)                  1.3293         estimate D2E/DX2                !
 ! A1    A(5,1,8)              106.1825         estimate D2E/DX2                !
 ! A2    A(4,3,5)              129.2896         estimate D2E/DX2                !
 ! A3    A(4,3,9)              125.6725         estimate D2E/DX2                !
 ! A4    A(5,3,9)              105.0379         estimate D2E/DX2                !
 ! A5    A(1,5,3)              109.9509         estimate D2E/DX2                !
 ! A6    A(1,5,6)              123.8627         estimate D2E/DX2                !
 ! A7    A(3,5,6)              126.1864         estimate D2E/DX2                !
 ! A8    A(1,8,7)              125.2046         estimate D2E/DX2                !
 ! A9    A(1,8,9)              110.3537         estimate D2E/DX2                !
 ! A10   A(7,8,9)              124.4417         estimate D2E/DX2                !
 ! A11   A(2,9,3)              126.0004         estimate D2E/DX2                !
 ! A12   A(2,9,8)              125.5246         estimate D2E/DX2                !
 ! A13   A(3,9,8)              108.475          estimate D2E/DX2                !
 ! D1    D(8,1,5,3)              0.0            estimate D2E/DX2                !
 ! D2    D(8,1,5,6)            180.0            estimate D2E/DX2                !
 ! D3    D(5,1,8,7)            180.0            estimate D2E/DX2                !
 ! D4    D(5,1,8,9)              0.0            estimate D2E/DX2                !
 ! D5    D(4,3,5,1)            180.0            estimate D2E/DX2                !
 ! D6    D(4,3,5,6)              0.0            estimate D2E/DX2                !
 ! D7    D(9,3,5,1)              0.0            estimate D2E/DX2                !
 ! D8    D(9,3,5,6)            180.0            estimate D2E/DX2                !
 ! D9    D(4,3,9,2)              0.0            estimate D2E/DX2                !
 ! D10   D(4,3,9,8)            180.0            estimate D2E/DX2                !
 ! D11   D(5,3,9,2)            180.0            estimate D2E/DX2                !
 ! D12   D(5,3,9,8)              0.0            estimate D2E/DX2                !
 ! D13   D(1,8,9,2)            180.0            estimate D2E/DX2                !
 ! D14   D(1,8,9,3)              0.0            estimate D2E/DX2                !
 ! D15   D(7,8,9,2)              0.0            estimate D2E/DX2                !
 ! D16   D(7,8,9,3)            180.0            estimate D2E/DX2                !
 --------------------------------------------------------------------------------
 Trust Radius=3.00D-01 FncErr=1.00D-07 GrdErr=1.00D-07
 Number of steps in this run=     48 maximum allowed number of steps=    100.
 GradGradGradGradGradGradGradGradGradGradGradGradGradGradGradGradGradGrad

                          Input orientation:                          
 ---------------------------------------------------------------------
 Center     Atomic      Atomic             Coordinates (Angstroms)
 Number     Number       Type             X           Y           Z
 ---------------------------------------------------------------------
      1          7           0       -0.713534   -0.963168    0.000000
      2          1           0       -0.013824    2.052579    0.000000
      3          6           0        1.085563    0.306903    0.000000
      4          1           0        2.075965    0.650541    0.000000
      5          6           0        0.617679   -0.967897    0.000000
      6          1           0        1.199441   -1.841560    0.000000
      7          1           0       -2.060864    0.630105    0.000000
      8          6           0       -1.070906    0.284868    0.000000
      9          7           0        0.000000    1.072466    0.000000
 ---------------------------------------------------------------------
                    Distance matrix (angstroms):
                    1          2          3          4          5
     1  N    0.000000
     2  H    3.095856   0.000000
     3  C    2.202233   2.063016   0.000000
     4  H    3.222633   2.516531   1.048324   0.000000
     5  C    1.331221   3.085785   1.357951   2.178518   0.000000
     6  H    2.105005   4.078766   2.151479   2.641754   1.049635
     7  H    2.086580   2.492750   3.162983   4.136879   3.119007
     8  C    1.298194   2.059666   2.156582   3.168046   2.102555
     9  N    2.157067   0.980210   1.328358   2.118408   2.131809
                    6          7          8          9
     6  H    0.000000
     7  H    4.091298   0.000000
     8  C    3.110655   1.048430   0.000000
     9  N    3.151223   2.107805   1.329342   0.000000
 Stoichiometry    C3H4N2
 Framework group  CS[SG(C3H4N2)]
 Deg. of freedom    15
 Full point group                 CS      NOp   2
 Largest Abelian subgroup         CS      NOp   2
 Largest concise Abelian subgroup C1      NOp   1
                         Standard orientation:                         
 ---------------------------------------------------------------------
 Center     Atomic      Atomic             Coordinates (Angstroms)
 Number     Number       Type             X           Y           Z
 ---------------------------------------------------------------------
      1          7           0       -0.713534   -0.963168    0.000000
      2          1           0       -0.013824    2.052579    0.000000
      3          6           0        1.085563    0.306903    0.000000
      4          1           0        2.075965    0.650541    0.000000
      5          6           0        0.617679   -0.967897    0.000000
      6          1           0        1.199441   -1.841560    0.000000
      7          1           0       -2.060864    0.630105    0.000000
      8          6           0       -1.070906    0.284868    0.000000
      9          7           0        0.000000    1.072466    0.000000
 ---------------------------------------------------------------------
 Rotational constants (GHZ):     10.2201279      9.8869581      5.0253914
 Standard basis: 6-31G(d) (6D, 7F)
 There are    63 symmetry adapted basis functions of A'  symmetry.
 There are    20 symmetry adapted basis functions of A"  symmetry.
 Integral buffers will be    131072 words long.
 Raffenetti 1 integral format.
 Two-electron integral symmetry is turned on.
    83 basis functions,   156 primitive gaussians,    83 cartesian basis functions
    18 alpha electrons       18 beta electrons
       nuclear repulsion energy       167.2488661931 Hartrees.
 NAtoms=    9 NActive=    9 NUniq=    9 SFac= 1.00D+00 NAtFMM=   50 NAOKFM=F Big=F
 One-electron integrals computed using PRISM.
 NBasis=    83 RedAO= T  NBF=    63    20
 NBsUse=    83 1.00D-06 NBFU=    63    20
 Harris functional with IExCor=  419 diagonalized for initial guess.
 ExpMin= 1.61D-01 ExpMax= 4.17D+03 ExpMxC= 6.27D+02 IAcc=1 IRadAn=         1 AccDes= 0.00D+00
 HarFok:  IExCor=  419 AccDes= 0.00D+00 IRadAn=         1 IDoV= 1
 ScaDFX=  1.000000  1.000000  1.000000  1.000000
 FoFCou: FMM=F IPFlag=           0 FMFlag=      100000 FMFlg1=           0
         NFxFlg=           0 DoJE=T BraDBF=F KetDBF=T FulRan=T
         Omega=  0.000000  0.000000  1.000000  0.000000  0.000000 ICntrl=     500 IOpCl=  0
         NMat0=    1 NMatS0=    1 NMatT0=    0 NMatD0=    1 NMtDS0=    0 NMtDT0=    0
         I1Cent=           4 NGrid=           0.
 Petite list used in FoFCou.
 Initial guess orbital symmetries:
       Occupied  (A') (A') (A') (A') (A') (A') (A') (A') (A') (A')
                 (A') (A') (A') (A') (A") (A') (A") (A")
       Virtual   (A") (A") (A') (A') (A') (A') (A') (A') (A') (A')
                 (A') (A') (A") (A') (A') (A") (A') (A") (A') (A')
                 (A") (A') (A') (A') (A") (A') (A') (A') (A') (A')
                 (A') (A') (A") (A') (A") (A") (A') (A') (A") (A")
                 (A') (A') (A') (A') (A') (A') (A") (A") (A') (A')
                 (A") (A") (A') (A') (A") (A') (A') (A') (A') (A')
                 (A') (A') (A') (A') (A')
 The electronic state of the initial guess is 1-A'.
 Requested convergence on RMS density matrix=1.00D-08 within 128 cycles.
 Requested convergence on MAX density matrix=1.00D-06.
 Requested convergence on             energy=1.00D-06.
 No special actions if energy rises.
 Keep R1 ints in memory in canonical form, NReq=7092992.
 Integral accuracy reduced to 1.0D-05 until final iterations.
 Initial convergence to 1.0D-05 achieved.  Increase integral accuracy.
 SCF Done:  E(RB2PLYP) =  -225.735109485     A.U. after   14 cycles
             Convg  =    0.3778D-08             -V/T =  2.0040
 Range of M.O.s used for correlation:     1    83
 NBasis=    83 NAE=    18 NBE=    18 NFC=     0 NFV=     0
 NROrb=     83 NOA=    18 NOB=    18 NVA=    65 NVB=    65
 DoSCS=T DFT=T ScalE2(SS,OS)=  0.270000  0.270000
 Fully direct method using O(ONN) memory.
 JobTyp=1 Pass  1:  I=   1 to  18 NPSUse=  8 ParTrn=T ParDer=T DoDerP=T.
 Spin components of T(2) and E(2):
     alpha-alpha T2 =       0.5013447297D-01 E2=     -0.3234860767D-01
     alpha-beta  T2 =       0.2627810114D+00 E2=     -0.1732148334D+00
     beta-beta   T2 =       0.5013447297D-01 E2=     -0.3234860767D-01
 E2(B2PLYP) =    -0.2379120488D+00 E(B2PLYP) =    -0.22597302153427D+03
          IDoAtm=111111111
          Differentiating once with respect to electric field.
                with respect to dipole field.
          Differentiating once with respect to nuclear coordinates.
          Keep R1 ints in memory in canonical form, NReq=6902791.
          There are     1 degrees of freedom in the 1st order CPHF.  IDoFFX=0.
 LinEq1:  Iter=  0 NonCon=     1 RMS=2.45D-03 Max=3.24D-02
 AX will form     1 AO Fock derivatives at one time.
 LinEq1:  Iter=  1 NonCon=     1 RMS=7.66D-04 Max=7.02D-03
 LinEq1:  Iter=  2 NonCon=     1 RMS=2.36D-04 Max=3.44D-03
 LinEq1:  Iter=  3 NonCon=     1 RMS=1.36D-04 Max=2.85D-03
 LinEq1:  Iter=  4 NonCon=     1 RMS=5.51D-05 Max=1.09D-03
 LinEq1:  Iter=  5 NonCon=     1 RMS=2.81D-05 Max=3.27D-04
 LinEq1:  Iter=  6 NonCon=     1 RMS=1.12D-05 Max=1.23D-04
 LinEq1:  Iter=  7 NonCon=     1 RMS=1.97D-06 Max=2.66D-05
 LinEq1:  Iter=  8 NonCon=     1 RMS=1.26D-06 Max=1.77D-05
 LinEq1:  Iter=  9 NonCon=     1 RMS=2.16D-07 Max=2.27D-06
 LinEq1:  Iter= 10 NonCon=     1 RMS=7.43D-08 Max=9.43D-07
 LinEq1:  Iter= 11 NonCon=     1 RMS=2.86D-08 Max=1.97D-07
 LinEq1:  Iter= 12 NonCon=     1 RMS=5.75D-09 Max=3.77D-08
 LinEq1:  Iter= 13 NonCon=     1 RMS=1.06D-09 Max=8.59D-09
 LinEq1:  Iter= 14 NonCon=     1 RMS=1.96D-10 Max=2.27D-09
 LinEq1:  Iter= 15 NonCon=     0 RMS=2.75D-11 Max=2.30D-10
 Linear equations converged to 1.000D-10 1.000D-09 after    15 iterations.
 End of Minotr Frequency-dependent properties file   721 does not exist.
 End of Minotr Frequency-dependent properties file   722 does not exist.

 **********************************************************************

            Population analysis using the SCF density.

 **********************************************************************

 Orbital symmetries:
       Occupied  (A') (A') (A') (A') (A') (A') (A') (A') (A') (A')
                 (A') (A') (A") (A') (A') (A") (A') (A")
       Virtual   (A") (A') (A") (A') (A') (A') (A') (A') (A') (A')
                 (A') (A') (A") (A") (A') (A') (A") (A') (A') (A')
                 (A") (A') (A') (A') (A") (A') (A') (A') (A') (A')
                 (A') (A') (A") (A') (A") (A") (A') (A') (A") (A")
                 (A') (A') (A') (A') (A') (A') (A") (A") (A') (A')
                 (A") (A") (A') (A') (A") (A') (A') (A') (A') (A')
                 (A') (A') (A') (A') (A')
 The electronic state is 1-A'.
 Alpha  occ. eigenvalues --  -14.90533 -14.81254 -10.66421 -10.63627 -10.61581
 Alpha  occ. eigenvalues --   -1.17191  -1.00206  -0.85738  -0.71317  -0.68165
 Alpha  occ. eigenvalues --   -0.65492  -0.51928  -0.51053  -0.50355  -0.47766
 Alpha  occ. eigenvalues --   -0.33074  -0.32423  -0.26065
 Alpha virt. eigenvalues --    0.10832   0.13774   0.15748   0.20292   0.22319
 Alpha virt. eigenvalues --    0.24178   0.31578   0.32100   0.39092   0.41623
 Alpha virt. eigenvalues --    0.57080   0.60247   0.62890   0.67542   0.68746
 Alpha virt. eigenvalues --    0.71550   0.72906   0.75392   0.76530   0.80287
 Alpha virt. eigenvalues --    0.86489   0.91281   0.92421   0.94437   0.95749
 Alpha virt. eigenvalues --    0.99564   1.02193   1.03038   1.12035   1.12997
 Alpha virt. eigenvalues --    1.31140   1.36414   1.41965   1.42021   1.47846
 Alpha virt. eigenvalues --    1.50799   1.56507   1.65083   1.69453   1.70142
 Alpha virt. eigenvalues --    1.88846   2.04526   2.19915   2.21534   2.27800
 Alpha virt. eigenvalues --    2.30319   2.38531   2.38942   2.45212   2.49086
 Alpha virt. eigenvalues --    2.50468   2.58349   2.73050   2.76862   2.79488
 Alpha virt. eigenvalues --    2.86843   2.91856   3.17648   3.22071   3.30124
 Alpha virt. eigenvalues --    4.10128   4.21325   4.33975   4.41299   4.56006
          Condensed to atoms (all electrons):
              1          2          3          4          5          6
     1  N    6.645772   0.005934  -0.082353   0.005097   0.485927  -0.040313
     2  H    0.005934   0.362204  -0.026941  -0.001267   0.006259  -0.000094
     3  C   -0.082353  -0.026941   4.931331   0.374917   0.612955  -0.059400
     4  H    0.005097  -0.001267   0.374917   0.510468  -0.027655   0.000557
     5  C    0.485927   0.006259   0.612955  -0.027655   4.756586   0.397735
     6  H   -0.040313  -0.000094  -0.059400   0.000557   0.397735   0.534652
     7  H   -0.036159   0.000013   0.003701  -0.000087   0.006272  -0.000138
     8  C    0.568895  -0.023658  -0.123490   0.004947  -0.130536   0.007881
     9  N   -0.095905   0.319197   0.373339  -0.043526  -0.077491   0.003879
              7          8          9
     1  N   -0.036159   0.568895  -0.095905
     2  H    0.000013  -0.023658   0.319197
     3  C    0.003701  -0.123490   0.373339
     4  H   -0.000087   0.004947  -0.043526
     5  C    0.006272  -0.130536  -0.077491
     6  H   -0.000138   0.007881   0.003879
     7  H    0.506870   0.399663  -0.057031
     8  C    0.399663   4.696814   0.389388
     9  N   -0.057031   0.389388   6.774284
 Mulliken atomic charges:
              1
     1  N   -0.456895
     2  H    0.358355
     3  C   -0.004059
     4  H    0.176550
     5  C   -0.030052
     6  H    0.155242
     7  H    0.176896
     8  C    0.210096
     9  N   -0.586132
 Sum of Mulliken atomic charges =   0.00000
 Mulliken charges with hydrogens summed into heavy atoms:
              1
     1  N   -0.456895
     3  C    0.172490
     5  C    0.125190
     8  C    0.386992
     9  N   -0.227777
 Sum of Mulliken charges with hydrogens summed into heavy atoms =   0.00000
 Electronic spatial extent (au):  <R**2>=            273.5293
 Charge=              0.0000 electrons
 Dipole moment (field-independent basis, Debye):
    X=              1.1177    Y=              3.6726    Z=              0.0000  Tot=              3.8389
 Quadrupole moment (field-independent basis, Debye-Ang):
   XX=            -26.0699   YY=            -25.3487   ZZ=            -30.9697
   XY=             -3.2649   XZ=              0.0000   YZ=              0.0000
 Traceless Quadrupole moment (field-independent basis, Debye-Ang):
   XX=              1.3929   YY=              2.1141   ZZ=             -3.5070
   XY=             -3.2649   XZ=              0.0000   YZ=              0.0000
 Octapole moment (field-independent basis, Debye-Ang**2):
  XXX=              0.2746  YYY=             15.9089  ZZZ=              0.0000  XYY=              5.0595
  XXY=              5.7489  XXZ=              0.0000  XZZ=             -0.8846  YZZ=              1.1051
  YYZ=              0.0000  XYZ=              0.0000
 Hexadecapole moment (field-independent basis, Debye-Ang**3):
 XXXX=           -147.1036 YYYY=           -132.3886 ZZZZ=            -29.9376 XXXY=             -2.8118
 XXXZ=              0.0000 YYYX=             -7.8885 YYYZ=              0.0000 ZZZX=              0.0000
 ZZZY=              0.0000 XXYY=            -54.2606 XXZZ=            -35.8207 YYZZ=            -33.3178
 XXYZ=              0.0000 YYXZ=              0.0000 ZZXY=              0.6108
 N-N= 1.672488661931D+02 E-N=-8.605814210897D+02  KE= 2.248268675362D+02
 Symmetry A'   KE= 2.168157062246D+02
 Symmetry A"   KE= 8.011161311665D+00
 Calling FoFJK, ICntrl=      2127 FMM=F ISym2X=1 I1Cent= 0 IOpClX= 0 NMat=1 NMatS=1 NMatT=0.
 ***** Axes restored to original set *****
 -------------------------------------------------------------------
 Center     Atomic                   Forces (Hartrees/Bohr)
 Number     Number              X              Y              Z
 -------------------------------------------------------------------
      1        7          -0.036404649   -0.034875083    0.000000000
      2        1           0.000216973    0.029354457    0.000000000
      3        6           0.027453631   -0.020825784    0.000000000
      4        1           0.020620209    0.013644328    0.000000000
      5        6           0.018998280    0.003611585    0.000000000
      6        1           0.010630940   -0.022567720    0.000000000
      7        1          -0.022766991    0.010841567    0.000000000
      8        6          -0.011586760   -0.010312364    0.000000000
      9        7          -0.007161634    0.031129014    0.000000000
 -------------------------------------------------------------------
 Cartesian Forces:  Max     0.036404649 RMS     0.017315324

 GradGradGradGradGradGradGradGradGradGradGradGradGradGradGradGradGradGrad
 Berny optimization.
 Internal  Forces:  Max     0.046920615 RMS     0.016335208
 Search for a local minimum.
 Step number   1 out of a maximum of   48
 All quantities printed in internal units (Hartrees-Bohrs-Radians)
 Mixed Optimization -- RFO/linear search
 Second derivative matrix not updated -- first step.
 ITU=  0
     Eigenvalues ---    0.02629   0.02633   0.02635   0.02642   0.02735
     Eigenvalues ---    0.02807   0.16000   0.16000   0.16000   0.16000
     Eigenvalues ---    0.22000   0.22920   0.39927   0.40095   0.40110
     Eigenvalues ---    0.47672   0.51344   0.52337   0.57765   0.59471
     Eigenvalues ---    0.65217
 RFO step:  Lambda=-1.87263663D-02 EMin= 2.62894477D-02
 Linear search not attempted -- first point.
 Iteration  1 RMS(Cart)=  0.03998751 RMS(Int)=  0.00034922
 Iteration  2 RMS(Cart)=  0.00043287 RMS(Int)=  0.00003336
 Iteration  3 RMS(Cart)=  0.00000018 RMS(Int)=  0.00003336
 ClnCor:  largest displacement from symmetrization is 1.48D-10 for atom     2.
 Variable       Old X    -DE/DX   Delta X   Delta X   Delta X     New X
                                 (Linear)    (Quad)   (Total)
    R1        2.51564   0.04229   0.00000   0.06786   0.06780   2.58344
    R2        2.45323   0.03026   0.00000   0.04363   0.04363   2.49686
    R3        1.85233   0.02935   0.00000   0.05515   0.05515   1.90748
    R4        1.98105   0.02395   0.00000   0.05706   0.05706   2.03810
    R5        2.56616   0.02694   0.00000   0.04768   0.04765   2.61381
    R6        2.51023   0.04692   0.00000   0.07675   0.07680   2.58703
    R7        1.98352   0.02468   0.00000   0.05903   0.05903   2.04256
    R8        1.98125   0.02507   0.00000   0.05973   0.05973   2.04098
    R9        2.51209   0.04025   0.00000   0.06683   0.06689   2.57898
    A1        1.85323  -0.00300   0.00000  -0.01497  -0.01506   1.83818
    A2        2.25653   0.00617   0.00000   0.03462   0.03461   2.29114
    A3        2.19340  -0.00597   0.00000  -0.03334  -0.03335   2.16005
    A4        1.83326  -0.00020   0.00000  -0.00128  -0.00127   1.83199
    A5        1.91900   0.00436   0.00000   0.01305   0.01297   1.93198
    A6        2.16181  -0.00581   0.00000  -0.02683  -0.02679   2.13502
    A7        2.20237   0.00145   0.00000   0.01379   0.01382   2.21619
    A8        2.18523   0.00075   0.00000   0.00531   0.00528   2.19051
    A9        1.92604   0.00394   0.00000   0.01976   0.01981   1.94585
   A10        2.17192  -0.00468   0.00000  -0.02507  -0.02509   2.14682
   A11        2.19912   0.00197   0.00000   0.00501   0.00496   2.20408
   A12        2.19082   0.00314   0.00000   0.01155   0.01150   2.20232
   A13        1.89325  -0.00511   0.00000  -0.01655  -0.01646   1.87679
    D1        0.00000   0.00000   0.00000   0.00000   0.00000   0.00000
    D2        3.14159   0.00000   0.00000   0.00000   0.00000   3.14159
    D3        3.14159   0.00000   0.00000   0.00000   0.00000   3.14159
    D4        0.00000   0.00000   0.00000   0.00000   0.00000   0.00000
    D5        3.14159   0.00000   0.00000   0.00000   0.00000   3.14159
    D6        0.00000   0.00000   0.00000   0.00000   0.00000   0.00000
    D7        0.00000   0.00000   0.00000   0.00000   0.00000   0.00000
    D8        3.14159   0.00000   0.00000   0.00000   0.00000   3.14159
    D9        0.00000   0.00000   0.00000   0.00000   0.00000   0.00000
   D10        3.14159   0.00000   0.00000   0.00000   0.00000   3.14159
   D11        3.14159   0.00000   0.00000   0.00000   0.00000   3.14159
   D12        0.00000   0.00000   0.00000   0.00000   0.00000   0.00000
   D13        3.14159   0.00000   0.00000   0.00000   0.00000   3.14159
   D14        0.00000   0.00000   0.00000   0.00000   0.00000   0.00000
   D15        0.00000   0.00000   0.00000   0.00000   0.00000   0.00000
   D16        3.14159   0.00000   0.00000   0.00000   0.00000   3.14159
         Item               Value     Threshold  Converged?
 Maximum Force            0.046921     0.000450     NO 
 RMS     Force            0.016335     0.000300     NO 
 Maximum Displacement     0.116078     0.001800     NO 
 RMS     Displacement     0.039928     0.001200     NO 
 Predicted change in Energy=-9.714513D-03
 GradGradGradGradGradGradGradGradGradGradGradGradGradGradGradGradGradGrad

                          Input orientation:                          
 ---------------------------------------------------------------------
 Center     Atomic      Atomic             Coordinates (Angstroms)
 Number     Number       Type             X           Y           Z
 ---------------------------------------------------------------------
      1          7           0       -0.737783   -0.996976    0.000000
      2          1           0       -0.016910    2.107100    0.000000
      3          6           0        1.113209    0.303932    0.000000
      4          1           0        2.121471    0.686824    0.000000
      5          6           0        0.629307   -0.991826    0.000000
      6          1           0        1.210751   -1.902986    0.000000
      7          1           0       -2.106758    0.644923    0.000000
      8          6           0       -1.091672    0.276031    0.000000
      9          7           0       -0.002095    1.097815    0.000000
 ---------------------------------------------------------------------
                    Distance matrix (angstroms):
                    1          2          3          4          5
     1  N    0.000000
     2  H    3.186683   0.000000
     3  C    2.262418   2.128047   0.000000
     4  H    3.318210   2.567072   1.078517   0.000000
     5  C    1.367100   3.165586   1.383166   2.245978   0.000000
     6  H    2.148870   4.193798   2.209073   2.745273   1.080875
     7  H    2.137738   2.550575   3.237972   4.228437   3.188260
     8  C    1.321281   2.123189   2.205057   3.239296   2.137575
     9  N    2.220222   1.009394   1.368997   2.162971   2.182949
                    6          7          8          9
     6  H    0.000000
     7  H    4.183026   0.000000
     8  C    3.170058   1.080038   0.000000
     9  N    3.236634   2.152840   1.364737   0.000000
 Stoichiometry    C3H4N2
 Framework group  CS[SG(C3H4N2)]
 Deg. of freedom    15
 Full point group                 CS      NOp   2
 Largest Abelian subgroup         CS      NOp   2
 Largest concise Abelian subgroup C1      NOp   1
                         Standard orientation:                         
 ---------------------------------------------------------------------
 Center     Atomic      Atomic             Coordinates (Angstroms)
 Number     Number       Type             X           Y           Z
 ---------------------------------------------------------------------
      1          7           0       -0.736209   -0.990419    0.000000
      2          1           0       -0.014564    2.113477    0.000000
      3          6           0        1.115106    0.310028    0.000000
      4          1           0        2.123463    0.692669    0.000000
      5          6           0        0.630882   -0.985609    0.000000
      6          1           0        1.212100   -1.896914    0.000000
      7          1           0       -2.104776    0.651819    0.000000
      8          6           0       -1.089782    0.282675    0.000000
      9          7           0        0.000000    1.104188    0.000000
 ---------------------------------------------------------------------
 Rotational constants (GHZ):      9.7978655      9.3571365      4.7862154
 Standard basis: 6-31G(d) (6D, 7F)
 There are    63 symmetry adapted basis functions of A'  symmetry.
 There are    20 symmetry adapted basis functions of A"  symmetry.
 Integral buffers will be    131072 words long.
 Raffenetti 1 integral format.
 Two-electron integral symmetry is turned on.
    83 basis functions,   156 primitive gaussians,    83 cartesian basis functions
    18 alpha electrons       18 beta electrons
       nuclear repulsion energy       163.1951608198 Hartrees.
 NAtoms=    9 NActive=    9 NUniq=    9 SFac= 1.00D+00 NAtFMM=   50 NAOKFM=F Big=F
 One-electron integrals computed using PRISM.
 NBasis=    83 RedAO= T  NBF=    63    20
 NBsUse=    83 1.00D-06 NBFU=    63    20
 Initial guess read from the read-write file.
 B after Tr=     0.000000    0.000000    0.000000
         Rot=    1.000000    0.000000    0.000000    0.000000 Ang=   0.00 deg.
 Initial guess orbital symmetries:
       Occupied  (A') (A') (A') (A') (A') (A') (A') (A') (A') (A')
                 (A') (A') (A") (A') (A') (A") (A') (A")
       Virtual   (A") (A') (A") (A') (A') (A') (A') (A') (A') (A')
                 (A') (A') (A") (A") (A') (A') (A") (A') (A') (A')
                 (A") (A') (A') (A') (A") (A') (A') (A') (A') (A')
                 (A') (A') (A") (A') (A") (A") (A') (A') (A") (A")
                 (A') (A') (A') (A') (A') (A') (A") (A") (A') (A')
                 (A") (A") (A') (A') (A") (A') (A') (A') (A') (A')
                 (A') (A') (A') (A') (A')
 Harris functional with IExCor=  419 diagonalized for initial guess.
 ExpMin= 1.61D-01 ExpMax= 4.17D+03 ExpMxC= 6.27D+02 IAcc=1 IRadAn=         1 AccDes= 0.00D+00
 HarFok:  IExCor=  419 AccDes= 0.00D+00 IRadAn=         1 IDoV= 1
 ScaDFX=  1.000000  1.000000  1.000000  1.000000
 FoFCou: FMM=F IPFlag=           0 FMFlag=      100000 FMFlg1=           0
         NFxFlg=           0 DoJE=T BraDBF=F KetDBF=T FulRan=T
         Omega=  0.000000  0.000000  1.000000  0.000000  0.000000 ICntrl=     500 IOpCl=  0
         NMat0=    1 NMatS0=    1 NMatT0=    0 NMatD0=    1 NMtDS0=    0 NMtDT0=    0
         I1Cent=           4 NGrid=           0.
 Petite list used in FoFCou.
 Requested convergence on RMS density matrix=1.00D-08 within 128 cycles.
 Requested convergence on MAX density matrix=1.00D-06.
 Requested convergence on             energy=1.00D-06.
 No special actions if energy rises.
 Keep R1 ints in memory in canonical form, NReq=7093138.
 Integral accuracy reduced to 1.0D-05 until final iterations.
 Initial convergence to 1.0D-05 achieved.  Increase integral accuracy.
 SCF Done:  E(RB2PLYP) =  -225.740638705     A.U. after   13 cycles
             Convg  =    0.3900D-08             -V/T =  2.0070
 Range of M.O.s used for correlation:     1    83
 NBasis=    83 NAE=    18 NBE=    18 NFC=     0 NFV=     0
 NROrb=     83 NOA=    18 NOB=    18 NVA=    65 NVB=    65
 DoSCS=T DFT=T ScalE2(SS,OS)=  0.270000  0.270000
 Fully direct method using O(ONN) memory.
 JobTyp=1 Pass  1:  I=   1 to  18 NPSUse=  8 ParTrn=T ParDer=T DoDerP=T.
 Spin components of T(2) and E(2):
     alpha-alpha T2 =       0.5243652602D-01 E2=     -0.3268624237D-01
     alpha-beta  T2 =       0.2783523279D+00 E2=     -0.1764757905D+00
     beta-beta   T2 =       0.5243652602D-01 E2=     -0.3268624237D-01
 E2(B2PLYP) =    -0.2418482753D+00 E(B2PLYP) =    -0.22598248698050D+03
          IDoAtm=111111111
          Differentiating once with respect to electric field.
                with respect to dipole field.
          Differentiating once with respect to nuclear coordinates.
          Keep R1 ints in memory in canonical form, NReq=6902791.
          There are     1 degrees of freedom in the 1st order CPHF.  IDoFFX=0.
 LinEq1:  Iter=  0 NonCon=     1 RMS=2.66D-03 Max=3.43D-02
 AX will form     1 AO Fock derivatives at one time.
 LinEq1:  Iter=  1 NonCon=     1 RMS=8.78D-04 Max=8.58D-03
 LinEq1:  Iter=  2 NonCon=     1 RMS=2.97D-04 Max=4.64D-03
 LinEq1:  Iter=  3 NonCon=     1 RMS=1.71D-04 Max=3.33D-03
 LinEq1:  Iter=  4 NonCon=     1 RMS=6.50D-05 Max=1.23D-03
 LinEq1:  Iter=  5 NonCon=     1 RMS=3.59D-05 Max=4.85D-04
 LinEq1:  Iter=  6 NonCon=     1 RMS=1.48D-05 Max=1.68D-04
 LinEq1:  Iter=  7 NonCon=     1 RMS=3.24D-06 Max=5.07D-05
 LinEq1:  Iter=  8 NonCon=     1 RMS=1.89D-06 Max=2.36D-05
 LinEq1:  Iter=  9 NonCon=     1 RMS=3.37D-07 Max=3.99D-06
 LinEq1:  Iter= 10 NonCon=     1 RMS=1.52D-07 Max=2.27D-06
 LinEq1:  Iter= 11 NonCon=     1 RMS=4.83D-08 Max=3.48D-07
 LinEq1:  Iter= 12 NonCon=     1 RMS=9.49D-09 Max=7.57D-08
 LinEq1:  Iter= 13 NonCon=     1 RMS=1.72D-09 Max=1.45D-08
 LinEq1:  Iter= 14 NonCon=     1 RMS=3.17D-10 Max=3.56D-09
 LinEq1:  Iter= 15 NonCon=     0 RMS=4.36D-11 Max=3.28D-10
 Linear equations converged to 1.000D-10 1.000D-09 after    15 iterations.
 End of Minotr Frequency-dependent properties file   721 does not exist.
 End of Minotr Frequency-dependent properties file   722 does not exist.
 Calling FoFJK, ICntrl=      2127 FMM=F ISym2X=1 I1Cent= 0 IOpClX= 0 NMat=1 NMatS=1 NMatT=0.
 ***** Axes restored to original set *****
 -------------------------------------------------------------------
 Center     Atomic                   Forces (Hartrees/Bohr)
 Number     Number              X              Y              Z
 -------------------------------------------------------------------
      1        7          -0.007540945    0.001293290    0.000000000
      2        1           0.000202496   -0.000325443    0.000000000
      3        6           0.004504838   -0.013961114    0.000000000
      4        1          -0.001286311    0.002338470    0.000000000
      5        6           0.009641475    0.009239561    0.000000000
      6        1          -0.001584979   -0.000363367    0.000000000
      7        1           0.000497736    0.000923020    0.000000000
      8        6          -0.000163805   -0.005113737    0.000000000
      9        7          -0.004270505    0.005969321    0.000000000
 -------------------------------------------------------------------
 Cartesian Forces:  Max     0.013961114 RMS     0.004485092

 GradGradGradGradGradGradGradGradGradGradGradGradGradGradGradGradGradGrad
 Berny optimization.
 Using GEDIIS/GDIIS optimizer.
 Internal  Forces:  Max     0.007256199 RMS     0.002131073
 Search for a local minimum.
 Step number   2 out of a maximum of   48
 All quantities printed in internal units (Hartrees-Bohrs-Radians)
 Mixed Optimization -- RFO/linear search
 Update second derivatives using D2CorX and points    1    2
 DE= -9.47D-03 DEPred=-9.71D-03 R= 9.74D-01
 SS=  1.41D+00  RLast= 1.94D-01 DXNew= 5.0454D-01 5.8161D-01
 Trust test= 9.74D-01 RLast= 1.94D-01 DXMaxT set to 5.05D-01
 ITU=  1  0
 Use linear search instead of GDIIS.
     Eigenvalues ---    0.02629   0.02633   0.02635   0.02643   0.02737
     Eigenvalues ---    0.02808   0.15589   0.16000   0.16000   0.16000
     Eigenvalues ---    0.22023   0.22838   0.39984   0.40100   0.40752
     Eigenvalues ---    0.48062   0.51480   0.53155   0.54562   0.60098
     Eigenvalues ---    0.67778
 RFO step:  Lambda=-4.11533860D-04 EMin= 2.62938901D-02
 Quartic linear search produced a step of  0.04829.
 Iteration  1 RMS(Cart)=  0.00540695 RMS(Int)=  0.00005326
 Iteration  2 RMS(Cart)=  0.00005252 RMS(Int)=  0.00000247
 Iteration  3 RMS(Cart)=  0.00000000 RMS(Int)=  0.00000247
 ClnCor:  largest displacement from symmetrization is 8.54D-11 for atom     2.
 Variable       Old X    -DE/DX   Delta X   Delta X   Delta X     New X
                                 (Linear)    (Quad)   (Total)
    R1        2.58344   0.00685   0.00327   0.01010   0.01338   2.59682
    R2        2.49686  -0.00296   0.00211  -0.00572  -0.00361   2.49325
    R3        1.90748  -0.00033   0.00266  -0.00204   0.00062   1.90810
    R4        2.03810  -0.00037   0.00276  -0.00235   0.00041   2.03851
    R5        2.61381  -0.00726   0.00230  -0.01560  -0.01330   2.60050
    R6        2.58703   0.00612   0.00371   0.00898   0.01269   2.59972
    R7        2.04256  -0.00055   0.00285  -0.00286   0.00000   2.04255
    R8        2.04098  -0.00015   0.00288  -0.00184   0.00105   2.04202
    R9        2.57898   0.00108   0.00323   0.00048   0.00371   2.58269
    A1        1.83818  -0.00057  -0.00073  -0.00314  -0.00386   1.83431
    A2        2.29114   0.00291   0.00167   0.01791   0.01959   2.31073
    A3        2.16005  -0.00247  -0.00161  -0.01600  -0.01761   2.14244
    A4        1.83199  -0.00044  -0.00006  -0.00191  -0.00197   1.83002
    A5        1.93198   0.00126   0.00063   0.00469   0.00531   1.93729
    A6        2.13502  -0.00220  -0.00129  -0.01218  -0.01347   2.12154
    A7        2.21619   0.00093   0.00067   0.00749   0.00816   2.22435
    A8        2.19051   0.00097   0.00026   0.00619   0.00644   2.19696
    A9        1.94585   0.00017   0.00096   0.00088   0.00184   1.94769
   A10        2.14682  -0.00114  -0.00121  -0.00707  -0.00828   2.13854
   A11        2.20408   0.00002   0.00024  -0.00091  -0.00067   2.20341
   A12        2.20232   0.00040   0.00056   0.00143   0.00199   2.20430
   A13        1.87679  -0.00042  -0.00079  -0.00052  -0.00132   1.87547
    D1        0.00000   0.00000   0.00000   0.00000   0.00000   0.00000
    D2        3.14159   0.00000   0.00000   0.00000   0.00000   3.14159
    D3        3.14159   0.00000   0.00000   0.00000   0.00000   3.14159
    D4        0.00000   0.00000   0.00000   0.00000   0.00000   0.00000
    D5        3.14159   0.00000   0.00000   0.00000   0.00000   3.14159
    D6        0.00000   0.00000   0.00000   0.00000   0.00000   0.00000
    D7        0.00000   0.00000   0.00000   0.00000   0.00000   0.00000
    D8        3.14159   0.00000   0.00000   0.00000   0.00000   3.14159
    D9        0.00000   0.00000   0.00000   0.00000   0.00000   0.00000
   D10        3.14159   0.00000   0.00000   0.00000   0.00000   3.14159
   D11        3.14159   0.00000   0.00000   0.00000   0.00000   3.14159
   D12        0.00000   0.00000   0.00000   0.00000   0.00000   0.00000
   D13        3.14159   0.00000   0.00000   0.00000   0.00000   3.14159
   D14        0.00000   0.00000   0.00000   0.00000   0.00000   0.00000
   D15        0.00000   0.00000   0.00000   0.00000   0.00000   0.00000
   D16        3.14159   0.00000   0.00000   0.00000   0.00000   3.14159
         Item               Value     Threshold  Converged?
 Maximum Force            0.007256     0.000450     NO 
 RMS     Force            0.002131     0.000300     NO 
 Maximum Displacement     0.021938     0.001800     NO 
 RMS     Displacement     0.005399     0.001200     NO 
 Predicted change in Energy=-2.186411D-04
 GradGradGradGradGradGradGradGradGradGradGradGradGradGradGradGradGradGrad

                          Input orientation:                          
 ---------------------------------------------------------------------
 Center     Atomic      Atomic             Coordinates (Angstroms)
 Number     Number       Type             X           Y           Z
 ---------------------------------------------------------------------
      1          7           0       -0.740580   -0.998997    0.000000
      2          1           0       -0.016055    2.106071    0.000000
      3          6           0        1.118096    0.298189    0.000000
      4          1           0        2.119829    0.698433    0.000000
      5          6           0        0.633567   -0.989817    0.000000
      6          1           0        1.205356   -1.907064    0.000000
      7          1           0       -2.105601    0.649081    0.000000
      8          6           0       -1.092751    0.272501    0.000000
      9          7           0       -0.002340    1.096441    0.000000
 ---------------------------------------------------------------------
                    Distance matrix (angstroms):
                    1          2          3          4          5
     1  N    0.000000
     2  H    3.188477   0.000000
     3  C    2.266577   2.134183   0.000000
     4  H    3.326141   2.558017   1.078732   0.000000
     5  C    1.374178   3.163310   1.376127   2.249258   0.000000
     6  H    2.147383   4.194890   2.206979   2.761318   1.080873
     7  H    2.139964   2.547356   3.242739   4.225719   3.192026
     8  C    1.319369   2.126323   2.210997   3.240693   2.138603
     9  N    2.221680   1.009723   1.375712   2.159170   2.181020
                    6          7          8          9
     6  H    0.000000
     7  H    4.182860   0.000000
     8  C    3.167302   1.080591   0.000000
     9  N    3.237217   2.150311   1.366701   0.000000
 Stoichiometry    C3H4N2
 Framework group  CS[SG(C3H4N2)]
 Deg. of freedom    15
 Full point group                 CS      NOp   2
 Largest Abelian subgroup         CS      NOp   2
 Largest concise Abelian subgroup C1      NOp   1
                         Standard orientation:                         
 ---------------------------------------------------------------------
 Center     Atomic      Atomic             Coordinates (Angstroms)
 Number     Number       Type             X           Y           Z
 ---------------------------------------------------------------------
      1          7           0       -0.740390   -0.990290    0.000000
      2          1           0       -0.012679    2.114033    0.000000
      3          6           0        1.119617    0.304988    0.000000
      4          1           0        2.121760    0.704204    0.000000
      5          6           0        0.633766   -0.982519    0.000000
      6          1           0        1.204613   -1.900354    0.000000
      7          1           0       -2.103719    0.659188    0.000000
      8          6           0       -1.091256    0.281570    0.000000
      9          7           0        0.000000    1.104390    0.000000
 ---------------------------------------------------------------------
 Rotational constants (GHZ):      9.7654355      9.3546432      4.7778132
 Standard basis: 6-31G(d) (6D, 7F)
 There are    63 symmetry adapted basis functions of A'  symmetry.
 There are    20 symmetry adapted basis functions of A"  symmetry.
 Integral buffers will be    131072 words long.
 Raffenetti 1 integral format.
 Two-electron integral symmetry is turned on.
    83 basis functions,   156 primitive gaussians,    83 cartesian basis functions
    18 alpha electrons       18 beta electrons
       nuclear repulsion energy       163.0483242140 Hartrees.
 NAtoms=    9 NActive=    9 NUniq=    9 SFac= 1.00D+00 NAtFMM=   50 NAOKFM=F Big=F
 One-electron integrals computed using PRISM.
 NBasis=    83 RedAO= T  NBF=    63    20
 NBsUse=    83 1.00D-06 NBFU=    63    20
 Initial guess read from the read-write file.
 B after Tr=     0.000000    0.000000    0.000000
         Rot=    1.000000    0.000000    0.000000    0.000000 Ang=   0.00 deg.
 Initial guess orbital symmetries:
       Occupied  (A') (A') (A') (A') (A') (A') (A') (A') (A') (A')
                 (A') (A') (A') (A") (A') (A') (A") (A")
       Virtual   (A") (A') (A") (A') (A') (A') (A') (A') (A') (A')
                 (A') (A') (A") (A') (A") (A') (A") (A') (A') (A')
                 (A") (A') (A') (A') (A") (A') (A') (A') (A') (A')
                 (A') (A') (A') (A") (A") (A") (A') (A') (A") (A")
                 (A') (A') (A') (A') (A') (A') (A") (A") (A') (A')
                 (A") (A") (A') (A") (A') (A') (A') (A') (A') (A')
                 (A') (A') (A') (A') (A')
 Harris functional with IExCor=  419 diagonalized for initial guess.
 ExpMin= 1.61D-01 ExpMax= 4.17D+03 ExpMxC= 6.27D+02 IAcc=1 IRadAn=         1 AccDes= 0.00D+00
 HarFok:  IExCor=  419 AccDes= 0.00D+00 IRadAn=         1 IDoV= 1
 ScaDFX=  1.000000  1.000000  1.000000  1.000000
 FoFCou: FMM=F IPFlag=           0 FMFlag=      100000 FMFlg1=           0
         NFxFlg=           0 DoJE=T BraDBF=F KetDBF=T FulRan=T
         Omega=  0.000000  0.000000  1.000000  0.000000  0.000000 ICntrl=     500 IOpCl=  0
         NMat0=    1 NMatS0=    1 NMatT0=    0 NMatD0=    1 NMtDS0=    0 NMtDT0=    0
         I1Cent=           4 NGrid=           0.
 Petite list used in FoFCou.
 Requested convergence on RMS density matrix=1.00D-08 within 128 cycles.
 Requested convergence on MAX density matrix=1.00D-06.
 Requested convergence on             energy=1.00D-06.
 No special actions if energy rises.
 Keep R1 ints in memory in canonical form, NReq=7093138.
 Integral accuracy reduced to 1.0D-05 until final iterations.
 Initial convergence to 1.0D-05 achieved.  Increase integral accuracy.
 SCF Done:  E(RB2PLYP) =  -225.740902635     A.U. after   11 cycles
             Convg  =    0.3274D-08             -V/T =  2.0070
 Range of M.O.s used for correlation:     1    83
 NBasis=    83 NAE=    18 NBE=    18 NFC=     0 NFV=     0
 NROrb=     83 NOA=    18 NOB=    18 NVA=    65 NVB=    65
 DoSCS=T DFT=T ScalE2(SS,OS)=  0.270000  0.270000
 Fully direct method using O(ONN) memory.
 JobTyp=1 Pass  1:  I=   1 to  18 NPSUse=  8 ParTrn=T ParDer=T DoDerP=T.
 Spin components of T(2) and E(2):
     alpha-alpha T2 =       0.5243238228D-01 E2=     -0.3267238732D-01
     alpha-beta  T2 =       0.2785477688D+00 E2=     -0.1765329304D+00
     beta-beta   T2 =       0.5243238228D-01 E2=     -0.3267238732D-01
 E2(B2PLYP) =    -0.2418777050D+00 E(B2PLYP) =    -0.22598278033984D+03
          IDoAtm=111111111
          Differentiating once with respect to electric field.
                with respect to dipole field.
          Differentiating once with respect to nuclear coordinates.
          Keep R1 ints in memory in canonical form, NReq=6902791.
          There are     1 degrees of freedom in the 1st order CPHF.  IDoFFX=0.
 LinEq1:  Iter=  0 NonCon=     1 RMS=2.69D-03 Max=3.40D-02
 AX will form     1 AO Fock derivatives at one time.
 LinEq1:  Iter=  1 NonCon=     1 RMS=8.89D-04 Max=8.51D-03
 LinEq1:  Iter=  2 NonCon=     1 RMS=3.07D-04 Max=4.84D-03
 LinEq1:  Iter=  3 NonCon=     1 RMS=1.74D-04 Max=3.30D-03
 LinEq1:  Iter=  4 NonCon=     1 RMS=6.52D-05 Max=1.21D-03
 LinEq1:  Iter=  5 NonCon=     1 RMS=3.60D-05 Max=4.92D-04
 LinEq1:  Iter=  6 NonCon=     1 RMS=1.49D-05 Max=1.67D-04
 LinEq1:  Iter=  7 NonCon=     1 RMS=3.12D-06 Max=4.70D-05
 LinEq1:  Iter=  8 NonCon=     1 RMS=1.88D-06 Max=2.32D-05
 LinEq1:  Iter=  9 NonCon=     1 RMS=3.36D-07 Max=3.94D-06
 LinEq1:  Iter= 10 NonCon=     1 RMS=1.44D-07 Max=2.13D-06
 LinEq1:  Iter= 11 NonCon=     1 RMS=4.92D-08 Max=3.60D-07
 LinEq1:  Iter= 12 NonCon=     1 RMS=9.60D-09 Max=8.39D-08
 LinEq1:  Iter= 13 NonCon=     1 RMS=1.66D-09 Max=1.29D-08
 LinEq1:  Iter= 14 NonCon=     1 RMS=3.00D-10 Max=3.51D-09
 LinEq1:  Iter= 15 NonCon=     0 RMS=4.30D-11 Max=2.95D-10
 Linear equations converged to 1.000D-10 1.000D-09 after    15 iterations.
 End of Minotr Frequency-dependent properties file   721 does not exist.
 End of Minotr Frequency-dependent properties file   722 does not exist.
 Calling FoFJK, ICntrl=      2127 FMM=F ISym2X=1 I1Cent= 0 IOpClX= 0 NMat=1 NMatS=1 NMatT=0.
 ***** Axes restored to original set *****
 -------------------------------------------------------------------
 Center     Atomic                   Forces (Hartrees/Bohr)
 Number     Number              X              Y              Z
 -------------------------------------------------------------------
      1        7          -0.002826589    0.001571983    0.000000000
      2        1           0.000137661   -0.000661987    0.000000000
      3        6           0.000612246   -0.004922896    0.000000000
      4        1          -0.000852899    0.000602608    0.000000000
      5        6           0.004379015    0.002192939    0.000000000
      6        1          -0.000862633    0.000151747    0.000000000
      7        1           0.000466148    0.000095441    0.000000000
      8        6           0.001334519   -0.001896069    0.000000000
      9        7          -0.002387468    0.002866234    0.000000000
 -------------------------------------------------------------------
 Cartesian Forces:  Max     0.004922896 RMS     0.001730852

 GradGradGradGradGradGradGradGradGradGradGradGradGradGradGradGradGradGrad
 Berny optimization.
 Using GEDIIS/GDIIS optimizer.
 Internal  Forces:  Max     0.002669134 RMS     0.000814207
 Search for a local minimum.
 Step number   3 out of a maximum of   48
 All quantities printed in internal units (Hartrees-Bohrs-Radians)
 Mixed Optimization -- En-DIIS/RFO-DIIS
 Update second derivatives using D2CorX and points    1    2    3
 DE= -2.93D-04 DEPred=-2.19D-04 R= 1.34D+00
 SS=  1.41D+00  RLast= 4.07D-02 DXNew= 8.4853D-01 1.2201D-01
 Trust test= 1.34D+00 RLast= 4.07D-02 DXMaxT set to 5.05D-01
 ITU=  1  1  0
 Use linear search instead of GDIIS.
     Eigenvalues ---    0.02630   0.02633   0.02635   0.02643   0.02738
     Eigenvalues ---    0.02808   0.12067   0.16000   0.16000   0.16036
     Eigenvalues ---    0.22227   0.23584   0.39965   0.40072   0.41194
     Eigenvalues ---    0.44022   0.49551   0.51773   0.53207   0.60768
     Eigenvalues ---    0.67302
 RFO step:  Lambda=-3.47024901D-05 EMin= 2.62960628D-02
 Quartic linear search produced a step of  0.47353.
 Iteration  1 RMS(Cart)=  0.00336508 RMS(Int)=  0.00001816
 Iteration  2 RMS(Cart)=  0.00001829 RMS(Int)=  0.00000181
 Iteration  3 RMS(Cart)=  0.00000000 RMS(Int)=  0.00000181
 ClnCor:  largest displacement from symmetrization is 2.07D-12 for atom     4.
 Variable       Old X    -DE/DX   Delta X   Delta X   Delta X     New X
                                 (Linear)    (Quad)   (Total)
    R1        2.59682   0.00218   0.00633   0.00103   0.00736   2.60418
    R2        2.49325  -0.00168  -0.00171  -0.00181  -0.00352   2.48973
    R3        1.90810  -0.00066   0.00029  -0.00139  -0.00109   1.90701
    R4        2.03851  -0.00057   0.00019  -0.00143  -0.00124   2.03727
    R5        2.60050  -0.00267  -0.00630  -0.00131  -0.00761   2.59289
    R6        2.59972   0.00204   0.00601   0.00115   0.00716   2.60688
    R7        2.04255  -0.00059   0.00000  -0.00131  -0.00131   2.04124
    R8        2.04202  -0.00040   0.00050  -0.00104  -0.00055   2.04147
    R9        2.58269  -0.00078   0.00176  -0.00255  -0.00079   2.58190
    A1        1.83431   0.00008  -0.00183   0.00112  -0.00070   1.83361
    A2        2.31073   0.00066   0.00927  -0.00076   0.00851   2.31924
    A3        2.14244  -0.00113  -0.00834  -0.00384  -0.01218   2.13027
    A4        1.83002   0.00047  -0.00093   0.00460   0.00366   1.83368
    A5        1.93729  -0.00042   0.00252  -0.00429  -0.00178   1.93551
    A6        2.12154  -0.00045  -0.00638  -0.00009  -0.00646   2.11508
    A7        2.22435   0.00088   0.00387   0.00438   0.00825   2.23260
    A8        2.19696  -0.00003   0.00305  -0.00164   0.00141   2.19837
    A9        1.94769   0.00057   0.00087   0.00279   0.00366   1.95135
   A10        2.13854  -0.00054  -0.00392  -0.00115  -0.00508   2.13346
   A11        2.20341   0.00023  -0.00032   0.00145   0.00113   2.20454
   A12        2.20430   0.00047   0.00094   0.00277   0.00371   2.20801
   A13        1.87547  -0.00070  -0.00062  -0.00422  -0.00484   1.87063
    D1        0.00000   0.00000   0.00000   0.00000   0.00000   0.00000
    D2        3.14159   0.00000   0.00000   0.00000   0.00000   3.14159
    D3        3.14159   0.00000   0.00000   0.00000   0.00000   3.14159
    D4        0.00000   0.00000   0.00000   0.00000   0.00000   0.00000
    D5        3.14159   0.00000   0.00000   0.00000   0.00000   3.14159
    D6        0.00000   0.00000   0.00000   0.00000   0.00000   0.00000
    D7        0.00000   0.00000   0.00000   0.00000   0.00000   0.00000
    D8        3.14159   0.00000   0.00000   0.00000   0.00000   3.14159
    D9        0.00000   0.00000   0.00000   0.00000   0.00000   0.00000
   D10        3.14159   0.00000   0.00000   0.00000   0.00000   3.14159
   D11        3.14159   0.00000   0.00000   0.00000   0.00000   3.14159
   D12        0.00000   0.00000   0.00000   0.00000   0.00000   0.00000
   D13        3.14159   0.00000   0.00000   0.00000   0.00000   3.14159
   D14        0.00000   0.00000   0.00000   0.00000   0.00000   0.00000
   D15        0.00000   0.00000   0.00000   0.00000   0.00000   0.00000
   D16        3.14159   0.00000   0.00000   0.00000   0.00000   3.14159
         Item               Value     Threshold  Converged?
 Maximum Force            0.002669     0.000450     NO 
 RMS     Force            0.000814     0.000300     NO 
 Maximum Displacement     0.011293     0.001800     NO 
 RMS     Displacement     0.003366     0.001200     NO 
 Predicted change in Energy=-5.069585D-05
 GradGradGradGradGradGradGradGradGradGradGradGradGradGradGradGradGradGrad

                          Input orientation:                          
 ---------------------------------------------------------------------
 Center     Atomic      Atomic             Coordinates (Angstroms)
 Number     Number       Type             X           Y           Z
 ---------------------------------------------------------------------
      1          7           0       -0.740976   -0.998878    0.000000
      2          1           0       -0.015665    2.106717    0.000000
      3          6           0        1.118478    0.294576    0.000000
      4          1           0        2.115618    0.704409    0.000000
      5          6           0        0.637071   -0.990298    0.000000
      6          1           0        1.202135   -1.910887    0.000000
      7          1           0       -2.102788    0.650313    0.000000
      8          6           0       -1.091180    0.271234    0.000000
      9          7           0       -0.003172    1.097650    0.000000
 ---------------------------------------------------------------------
                    Distance matrix (angstroms):
                    1          2          3          4          5
     1  N    0.000000
     2  H    3.189169   0.000000
     3  C    2.265081   2.137788   0.000000
     4  H    3.325856   2.551243   1.078078   0.000000
     5  C    1.378074   3.165054   1.372098   2.249029   0.000000
     6  H    2.146496   4.198117   2.207050   2.770239   1.080177
     7  H    2.138776   2.545033   3.240849   4.218753   3.193498
     8  C    1.317507   2.127377   2.209781   3.235923   2.139699
     9  N    2.222562   1.009145   1.379502   2.154974   2.183904
                    6          7          8          9
     6  H    0.000000
     7  H    4.181180   0.000000
     8  C    3.165588   1.080302   0.000000
     9  N    3.240997   2.146741   1.366282   0.000000
 Stoichiometry    C3H4N2
 Framework group  CS[SG(C3H4N2)]
 Deg. of freedom    15
 Full point group                 CS      NOp   2
 Largest Abelian subgroup         CS      NOp   2
 Largest concise Abelian subgroup C1      NOp   1
                         Standard orientation:                         
 ---------------------------------------------------------------------
 Center     Atomic      Atomic             Coordinates (Angstroms)
 Number     Number       Type             X           Y           Z
 ---------------------------------------------------------------------
      1          7           0       -0.742576   -0.988718    0.000000
      2          1           0       -0.010196    2.115217    0.000000
      3          6           0        1.119819    0.300499    0.000000
      4          1           0        2.117889    0.708060    0.000000
      5          6           0        0.635487   -0.983276    0.000000
      6          1           0        1.198454   -1.905149    0.000000
      7          1           0       -2.100629    0.663569    0.000000
      8          6           0       -1.089887    0.282187    0.000000
      9          7           0        0.000000    1.106124    0.000000
 ---------------------------------------------------------------------
 Rotational constants (GHZ):      9.7543287      9.3595094      4.7764207
 Standard basis: 6-31G(d) (6D, 7F)
 There are    63 symmetry adapted basis functions of A'  symmetry.
 There are    20 symmetry adapted basis functions of A"  symmetry.
 Integral buffers will be    131072 words long.
 Raffenetti 1 integral format.
 Two-electron integral symmetry is turned on.
    83 basis functions,   156 primitive gaussians,    83 cartesian basis functions
    18 alpha electrons       18 beta electrons
       nuclear repulsion energy       163.0278588506 Hartrees.
 NAtoms=    9 NActive=    9 NUniq=    9 SFac= 1.00D+00 NAtFMM=   50 NAOKFM=F Big=F
 One-electron integrals computed using PRISM.
 NBasis=    83 RedAO= T  NBF=    63    20
 NBsUse=    83 1.00D-06 NBFU=    63    20
 Initial guess read from the read-write file.
 B after Tr=     0.000000    0.000000    0.000000
         Rot=    1.000000    0.000000    0.000000    0.000000 Ang=   0.00 deg.
 Initial guess orbital symmetries:
       Occupied  (A') (A') (A') (A') (A') (A') (A') (A') (A') (A')
                 (A') (A') (A') (A") (A') (A') (A") (A")
       Virtual   (A") (A') (A") (A') (A') (A') (A') (A') (A') (A')
                 (A') (A') (A") (A') (A") (A') (A") (A') (A') (A')
                 (A") (A') (A') (A') (A") (A') (A') (A') (A') (A')
                 (A') (A') (A') (A") (A") (A") (A') (A') (A") (A")
                 (A') (A') (A') (A') (A') (A') (A") (A") (A') (A')
                 (A") (A") (A') (A") (A') (A') (A') (A') (A') (A')
                 (A') (A') (A') (A') (A')
 Requested convergence on RMS density matrix=1.00D-08 within 128 cycles.
 Requested convergence on MAX density matrix=1.00D-06.
 Requested convergence on             energy=1.00D-06.
 No special actions if energy rises.
 Keep R1 ints in memory in canonical form, NReq=7093138.
 SCF Done:  E(RB2PLYP) =  -225.741026898     A.U. after    9 cycles
             Convg  =    0.9630D-08             -V/T =  2.0070
 Range of M.O.s used for correlation:     1    83
 NBasis=    83 NAE=    18 NBE=    18 NFC=     0 NFV=     0
 NROrb=     83 NOA=    18 NOB=    18 NVA=    65 NVB=    65
 DoSCS=T DFT=T ScalE2(SS,OS)=  0.270000  0.270000
 Fully direct method using O(ONN) memory.
 JobTyp=1 Pass  1:  I=   1 to  18 NPSUse=  8 ParTrn=T ParDer=T DoDerP=T.
 Spin components of T(2) and E(2):
     alpha-alpha T2 =       0.5237549551D-01 E2=     -0.3265353075D-01
     alpha-beta  T2 =       0.2783429783D+00 E2=     -0.1764955727D+00
     beta-beta   T2 =       0.5237549551D-01 E2=     -0.3265353075D-01
 E2(B2PLYP) =    -0.2418026342D+00 E(B2PLYP) =    -0.22598282953223D+03
          IDoAtm=111111111
          Differentiating once with respect to electric field.
                with respect to dipole field.
          Differentiating once with respect to nuclear coordinates.
          Keep R1 ints in memory in canonical form, NReq=6902791.
          There are     1 degrees of freedom in the 1st order CPHF.  IDoFFX=0.
 LinEq1:  Iter=  0 NonCon=     1 RMS=2.71D-03 Max=3.38D-02
 AX will form     1 AO Fock derivatives at one time.
 LinEq1:  Iter=  1 NonCon=     1 RMS=8.93D-04 Max=8.43D-03
 LinEq1:  Iter=  2 NonCon=     1 RMS=3.11D-04 Max=4.84D-03
 LinEq1:  Iter=  3 NonCon=     1 RMS=1.76D-04 Max=3.27D-03
 LinEq1:  Iter=  4 NonCon=     1 RMS=6.53D-05 Max=1.21D-03
 LinEq1:  Iter=  5 NonCon=     1 RMS=3.62D-05 Max=4.97D-04
 LinEq1:  Iter=  6 NonCon=     1 RMS=1.49D-05 Max=1.66D-04
 LinEq1:  Iter=  7 NonCon=     1 RMS=2.94D-06 Max=4.27D-05
 LinEq1:  Iter=  8 NonCon=     1 RMS=1.82D-06 Max=2.27D-05
 LinEq1:  Iter=  9 NonCon=     1 RMS=3.36D-07 Max=3.97D-06
 LinEq1:  Iter= 10 NonCon=     1 RMS=1.44D-07 Max=2.18D-06
 LinEq1:  Iter= 11 NonCon=     1 RMS=4.97D-08 Max=3.23D-07
 LinEq1:  Iter= 12 NonCon=     1 RMS=9.54D-09 Max=8.78D-08
 LinEq1:  Iter= 13 NonCon=     1 RMS=1.58D-09 Max=1.15D-08
 LinEq1:  Iter= 14 NonCon=     1 RMS=2.78D-10 Max=3.36D-09
 LinEq1:  Iter= 15 NonCon=     0 RMS=4.21D-11 Max=2.49D-10
 Linear equations converged to 1.000D-10 1.000D-09 after    15 iterations.
 End of Minotr Frequency-dependent properties file   721 does not exist.
 End of Minotr Frequency-dependent properties file   722 does not exist.
 Calling FoFJK, ICntrl=      2127 FMM=F ISym2X=1 I1Cent= 0 IOpClX= 0 NMat=1 NMatS=1 NMatT=0.
 ***** Axes restored to original set *****
 -------------------------------------------------------------------
 Center     Atomic                   Forces (Hartrees/Bohr)
 Number     Number              X              Y              Z
 -------------------------------------------------------------------
      1        7          -0.000660371    0.000635470    0.000000000
      2        1           0.000114298   -0.000263889    0.000000000
      3        6           0.000235687    0.000500320    0.000000000
      4        1           0.000059717   -0.000115808    0.000000000
      5        6           0.000328003    0.000074397    0.000000000
      6        1          -0.000104838    0.000176981    0.000000000
      7        1          -0.000025518   -0.000185749    0.000000000
      8        6           0.000253806   -0.000193390    0.000000000
      9        7          -0.000200785   -0.000628331    0.000000000
 -------------------------------------------------------------------
 Cartesian Forces:  Max     0.000660371 RMS     0.000270321

 GradGradGradGradGradGradGradGradGradGradGradGradGradGradGradGradGradGrad
 Berny optimization.
 Using GEDIIS/GDIIS optimizer.
 Internal  Forces:  Max     0.000746759 RMS     0.000199614
 Search for a local minimum.
 Step number   4 out of a maximum of   48
 All quantities printed in internal units (Hartrees-Bohrs-Radians)
 Mixed Optimization -- En-DIIS/RFO-DIIS
 Swaping is turned off.
 Update second derivatives using D2CorX and points    1    2    3    4
 DE= -4.92D-05 DEPred=-5.07D-05 R= 9.70D-01
 SS=  1.41D+00  RLast= 2.47D-02 DXNew= 8.4853D-01 7.4003D-02
 Trust test= 9.70D-01 RLast= 2.47D-02 DXMaxT set to 5.05D-01
 ITU=  1  1  1  0
     Eigenvalues ---    0.02630   0.02633   0.02635   0.02643   0.02738
     Eigenvalues ---    0.02808   0.12473   0.16000   0.16005   0.16248
     Eigenvalues ---    0.22598   0.24518   0.39450   0.40109   0.40446
     Eigenvalues ---    0.41420   0.49695   0.51507   0.53221   0.58812
     Eigenvalues ---    0.65742
 En-DIIS/RFO-DIIS IScMMF=        0 using points:     4    3
 RFO step:  Lambda=-2.37194036D-06.
 DidBck=F Rises=F RFO-DIIS coefs:    0.96566    0.03434
 Iteration  1 RMS(Cart)=  0.00071159 RMS(Int)=  0.00000021
 Iteration  2 RMS(Cart)=  0.00000027 RMS(Int)=  0.00000004
 ClnCor:  largest displacement from symmetrization is 4.94D-12 for atom     4.
 Variable       Old X    -DE/DX   Delta X   Delta X   Delta X     New X
                                  (DIIS)     (GDIIS)  (Total)
    R1        2.60418   0.00040  -0.00025   0.00110   0.00085   2.60503
    R2        2.48973  -0.00075   0.00012  -0.00128  -0.00116   2.48857
    R3        1.90701  -0.00027   0.00004  -0.00054  -0.00050   1.90651
    R4        2.03727   0.00001   0.00004  -0.00001   0.00003   2.03730
    R5        2.59289  -0.00011   0.00026  -0.00043  -0.00017   2.59272
    R6        2.60688  -0.00023  -0.00025   0.00002  -0.00022   2.60666
    R7        2.04124  -0.00021   0.00005  -0.00053  -0.00049   2.04075
    R8        2.04147  -0.00004   0.00002  -0.00010  -0.00008   2.04140
    R9        2.58190  -0.00017   0.00003  -0.00040  -0.00037   2.58153
    A1        1.83361  -0.00004   0.00002  -0.00020  -0.00018   1.83343
    A2        2.31924   0.00006  -0.00029   0.00034   0.00005   2.31929
    A3        2.13027   0.00033   0.00042   0.00088   0.00130   2.13156
    A4        1.83368  -0.00039  -0.00013  -0.00122  -0.00135   1.83233
    A5        1.93551   0.00009   0.00006   0.00055   0.00061   1.93612
    A6        2.11508  -0.00004   0.00022  -0.00065  -0.00043   2.11465
    A7        2.23260  -0.00005  -0.00028   0.00010  -0.00019   2.23241
    A8        2.19837  -0.00017  -0.00005  -0.00084  -0.00089   2.19748
    A9        1.95135  -0.00004  -0.00013  -0.00027  -0.00039   1.95096
   A10        2.13346   0.00021   0.00017   0.00111   0.00129   2.13475
   A11        2.20454  -0.00030  -0.00004  -0.00129  -0.00132   2.20322
   A12        2.20801  -0.00009  -0.00013   0.00014   0.00001   2.20802
   A13        1.87063   0.00038   0.00017   0.00115   0.00131   1.87194
    D1        0.00000   0.00000   0.00000   0.00000   0.00000   0.00000
    D2        3.14159   0.00000   0.00000   0.00000   0.00000   3.14159
    D3        3.14159   0.00000   0.00000   0.00000   0.00000   3.14159
    D4        0.00000   0.00000   0.00000   0.00000   0.00000   0.00000
    D5        3.14159   0.00000   0.00000   0.00000   0.00000   3.14159
    D6        0.00000   0.00000   0.00000   0.00000   0.00000   0.00000
    D7        0.00000   0.00000   0.00000   0.00000   0.00000   0.00000
    D8        3.14159   0.00000   0.00000   0.00000   0.00000   3.14159
    D9        0.00000   0.00000   0.00000   0.00000   0.00000   0.00000
   D10        3.14159   0.00000   0.00000   0.00000   0.00000   3.14159
   D11        3.14159   0.00000   0.00000   0.00000   0.00000   3.14159
   D12        0.00000   0.00000   0.00000   0.00000   0.00000   0.00000
   D13        3.14159   0.00000   0.00000   0.00000   0.00000   3.14159
   D14        0.00000   0.00000   0.00000   0.00000   0.00000   0.00000
   D15        0.00000   0.00000   0.00000   0.00000   0.00000   0.00000
   D16        3.14159   0.00000   0.00000   0.00000   0.00000   3.14159
         Item               Value     Threshold  Converged?
 Maximum Force            0.000747     0.000450     NO 
 RMS     Force            0.000200     0.000300     YES
 Maximum Displacement     0.001672     0.001800     YES
 RMS     Displacement     0.000712     0.001200     YES
 Predicted change in Energy=-1.968483D-06
 GradGradGradGradGradGradGradGradGradGradGradGradGradGradGradGradGradGrad

                          Input orientation:                          
 ---------------------------------------------------------------------
 Center     Atomic      Atomic             Coordinates (Angstroms)
 Number     Number       Type             X           Y           Z
 ---------------------------------------------------------------------
      1          7           0       -0.741488   -0.998303    0.000000
      2          1           0       -0.015171    2.105833    0.000000
      3          6           0        1.119047    0.294952    0.000000
      4          1           0        2.116394    0.704328    0.000000
      5          6           0        0.637007   -0.989590    0.000000
      6          1           0        1.201630   -1.910146    0.000000
      7          1           0       -2.103299    0.649493    0.000000
      8          6           0       -1.091423    0.271246    0.000000
      9          7           0       -0.003176    1.097023    0.000000
 ---------------------------------------------------------------------
                    Distance matrix (angstroms):
                    1          2          3          4          5
     1  N    0.000000
     2  H    3.187977   0.000000
     3  C    2.265855   2.136759   0.000000
     4  H    3.326626   2.551036   1.078095   0.000000
     5  C    1.378523   3.163381   1.372010   2.248987   0.000000
     6  H    2.146431   4.196271   2.206644   2.769885   1.079918
     7  H    2.137700   2.545820   3.241791   4.220049   3.193097
     8  C    1.316894   2.126976   2.210597   3.236919   2.139433
     9  N    2.221597   1.008882   1.379385   2.155640   2.182610
                    6          7          8          9
     6  H    0.000000
     7  H    4.180228   0.000000
     8  C    3.164895   1.080261   0.000000
     9  N    3.239540   2.147277   1.366085   0.000000
 Stoichiometry    C3H4N2
 Framework group  CS[SG(C3H4N2)]
 Deg. of freedom    15
 Full point group                 CS      NOp   2
 Largest Abelian subgroup         CS      NOp   2
 Largest concise Abelian subgroup C1      NOp   1
                         Standard orientation:                         
 ---------------------------------------------------------------------
 Center     Atomic      Atomic             Coordinates (Angstroms)
 Number     Number       Type             X           Y           Z
 ---------------------------------------------------------------------
      1          7           0       -0.742998   -0.988315    0.000000
      2          1           0       -0.009738    2.114188    0.000000
      3          6           0        1.120426    0.300774    0.000000
      4          1           0        2.118686    0.707917    0.000000
      5          6           0        0.635513   -0.982686    0.000000
      6          1           0        1.198075   -1.904504    0.000000
      7          1           0       -2.101118    0.662524    0.000000
      8          6           0       -1.090091    0.282014    0.000000
      9          7           0        0.000000    1.105353    0.000000
 ---------------------------------------------------------------------
 Rotational constants (GHZ):      9.7541998      9.3632944      4.7773753
 Standard basis: 6-31G(d) (6D, 7F)
 There are    63 symmetry adapted basis functions of A'  symmetry.
 There are    20 symmetry adapted basis functions of A"  symmetry.
 Integral buffers will be    131072 words long.
 Raffenetti 1 integral format.
 Two-electron integral symmetry is turned on.
    83 basis functions,   156 primitive gaussians,    83 cartesian basis functions
    18 alpha electrons       18 beta electrons
       nuclear repulsion energy       163.0447391716 Hartrees.
 NAtoms=    9 NActive=    9 NUniq=    9 SFac= 1.00D+00 NAtFMM=   50 NAOKFM=F Big=F
 One-electron integrals computed using PRISM.
 NBasis=    83 RedAO= T  NBF=    63    20
 NBsUse=    83 1.00D-06 NBFU=    63    20
 Initial guess read from the read-write file.
 B after Tr=     0.000000    0.000000    0.000000
         Rot=    1.000000    0.000000    0.000000    0.000000 Ang=   0.00 deg.
 Initial guess orbital symmetries:
       Occupied  (A') (A') (A') (A') (A') (A') (A') (A') (A') (A')
                 (A') (A') (A') (A") (A') (A') (A") (A")
       Virtual   (A") (A') (A") (A') (A') (A') (A') (A') (A') (A')
                 (A') (A') (A") (A') (A") (A') (A") (A') (A') (A')
                 (A") (A') (A') (A') (A") (A') (A') (A') (A') (A')
                 (A') (A') (A') (A") (A") (A") (A') (A') (A") (A")
                 (A') (A') (A') (A') (A') (A') (A") (A") (A') (A')
                 (A") (A") (A') (A") (A') (A') (A') (A') (A') (A')
                 (A') (A') (A') (A') (A')
 Requested convergence on RMS density matrix=1.00D-08 within 128 cycles.
 Requested convergence on MAX density matrix=1.00D-06.
 Requested convergence on             energy=1.00D-06.
 No special actions if energy rises.
 Keep R1 ints in memory in canonical form, NReq=7093138.
 SCF Done:  E(RB2PLYP) =  -225.741054404     A.U. after    8 cycles
             Convg  =    0.7999D-08             -V/T =  2.0070
 Range of M.O.s used for correlation:     1    83
 NBasis=    83 NAE=    18 NBE=    18 NFC=     0 NFV=     0
 NROrb=     83 NOA=    18 NOB=    18 NVA=    65 NVB=    65
 DoSCS=T DFT=T ScalE2(SS,OS)=  0.270000  0.270000
 Fully direct method using O(ONN) memory.
 JobTyp=1 Pass  1:  I=   1 to  18 NPSUse=  8 ParTrn=T ParDer=T DoDerP=T.
 Spin components of T(2) and E(2):
     alpha-alpha T2 =       0.5235969920D-01 E2=     -0.3265025343D-01
     alpha-beta  T2 =       0.2782519619D+00 E2=     -0.1764763906D+00
     beta-beta   T2 =       0.5235969920D-01 E2=     -0.3265025343D-01
 E2(B2PLYP) =    -0.2417768974D+00 E(B2PLYP) =    -0.22598283130152D+03
          IDoAtm=111111111
          Differentiating once with respect to electric field.
                with respect to dipole field.
          Differentiating once with respect to nuclear coordinates.
          Keep R1 ints in memory in canonical form, NReq=6902791.
          There are     1 degrees of freedom in the 1st order CPHF.  IDoFFX=0.
 LinEq1:  Iter=  0 NonCon=     1 RMS=2.71D-03 Max=3.37D-02
 AX will form     1 AO Fock derivatives at one time.
 LinEq1:  Iter=  1 NonCon=     1 RMS=8.92D-04 Max=8.42D-03
 LinEq1:  Iter=  2 NonCon=     1 RMS=3.10D-04 Max=4.83D-03
 LinEq1:  Iter=  3 NonCon=     1 RMS=1.75D-04 Max=3.26D-03
 LinEq1:  Iter=  4 NonCon=     1 RMS=6.52D-05 Max=1.20D-03
 LinEq1:  Iter=  5 NonCon=     1 RMS=3.61D-05 Max=4.94D-04
 LinEq1:  Iter=  6 NonCon=     1 RMS=1.48D-05 Max=1.66D-04
 LinEq1:  Iter=  7 NonCon=     1 RMS=2.91D-06 Max=4.19D-05
 LinEq1:  Iter=  8 NonCon=     1 RMS=1.81D-06 Max=2.27D-05
 LinEq1:  Iter=  9 NonCon=     1 RMS=3.35D-07 Max=3.96D-06
 LinEq1:  Iter= 10 NonCon=     1 RMS=1.44D-07 Max=2.17D-06
 LinEq1:  Iter= 11 NonCon=     1 RMS=4.96D-08 Max=3.22D-07
 LinEq1:  Iter= 12 NonCon=     1 RMS=9.48D-09 Max=8.76D-08
 LinEq1:  Iter= 13 NonCon=     1 RMS=1.56D-09 Max=1.13D-08
 LinEq1:  Iter= 14 NonCon=     1 RMS=2.73D-10 Max=3.31D-09
 LinEq1:  Iter= 15 NonCon=     0 RMS=4.19D-11 Max=2.46D-10
 Linear equations converged to 1.000D-10 1.000D-09 after    15 iterations.
 End of Minotr Frequency-dependent properties file   721 does not exist.
 End of Minotr Frequency-dependent properties file   722 does not exist.
 Calling FoFJK, ICntrl=      2127 FMM=F ISym2X=1 I1Cent= 0 IOpClX= 0 NMat=1 NMatS=1 NMatT=0.
 ***** Axes restored to original set *****
 -------------------------------------------------------------------
 Center     Atomic                   Forces (Hartrees/Bohr)
 Number     Number              X              Y              Z
 -------------------------------------------------------------------
      1        7          -0.000064174    0.000020625    0.000000000
      2        1           0.000025737    0.000007092    0.000000000
      3        6          -0.000206076    0.000172512    0.000000000
      4        1          -0.000014045   -0.000056015    0.000000000
      5        6           0.000130933   -0.000217220    0.000000000
      6        1          -0.000011329    0.000003698    0.000000000
      7        1           0.000003063   -0.000022258    0.000000000
      8        6           0.000222688    0.000067011    0.000000000
      9        7          -0.000086797    0.000024557    0.000000000
 -------------------------------------------------------------------
 Cartesian Forces:  Max     0.000222688 RMS     0.000087773

 GradGradGradGradGradGradGradGradGradGradGradGradGradGradGradGradGradGrad
 Berny optimization.
 Using GEDIIS/GDIIS optimizer.
 Internal  Forces:  Max     0.000130096 RMS     0.000052934
 Search for a local minimum.
 Step number   5 out of a maximum of   48
 All quantities printed in internal units (Hartrees-Bohrs-Radians)
 Mixed Optimization -- En-DIIS/RFO-DIIS
 Swaping is turned off.
 Update second derivatives using D2CorX and points    1    2    3    4    5
 DE= -1.77D-06 DEPred=-1.97D-06 R= 8.99D-01
 SS=  1.41D+00  RLast= 3.60D-03 DXNew= 8.4853D-01 1.0814D-02
 Trust test= 8.99D-01 RLast= 3.60D-03 DXMaxT set to 5.05D-01
 ITU=  1  1  1  1  0
     Eigenvalues ---    0.02630   0.02633   0.02635   0.02643   0.02738
     Eigenvalues ---    0.02808   0.12592   0.15055   0.16005   0.16038
     Eigenvalues ---    0.22617   0.29306   0.39675   0.40122   0.40602
     Eigenvalues ---    0.43167   0.46978   0.52015   0.53161   0.59478
     Eigenvalues ---    0.67200
 En-DIIS/RFO-DIIS IScMMF=        0 using points:     5    4    3
 RFO step:  Lambda=-1.75845007D-07.
 DidBck=F Rises=F RFO-DIIS coefs:    0.90492    0.09220    0.00288
 Iteration  1 RMS(Cart)=  0.00015977 RMS(Int)=  0.00000002
 Iteration  2 RMS(Cart)=  0.00000002 RMS(Int)=  0.00000001
 ClnCor:  largest displacement from symmetrization is 3.69D-15 for atom     5.
 Variable       Old X    -DE/DX   Delta X   Delta X   Delta X     New X
                                  (DIIS)     (GDIIS)  (Total)
    R1        2.60503   0.00000  -0.00010   0.00014   0.00004   2.60507
    R2        2.48857   0.00003   0.00012  -0.00015  -0.00003   2.48854
    R3        1.90651   0.00001   0.00005  -0.00008  -0.00003   1.90648
    R4        2.03730  -0.00003   0.00000  -0.00008  -0.00008   2.03722
    R5        2.59272   0.00010   0.00004   0.00013   0.00017   2.59289
    R6        2.60666  -0.00007   0.00000  -0.00017  -0.00017   2.60649
    R7        2.04075  -0.00001   0.00005  -0.00011  -0.00006   2.04069
    R8        2.04140  -0.00001   0.00001  -0.00005  -0.00004   2.04136
    R9        2.58153  -0.00013   0.00004  -0.00028  -0.00024   2.58129
    A1        1.83343  -0.00001   0.00002  -0.00002   0.00000   1.83344
    A2        2.31929  -0.00010  -0.00003  -0.00048  -0.00051   2.31878
    A3        2.13156  -0.00001  -0.00009   0.00025   0.00017   2.13173
    A4        1.83233   0.00011   0.00012   0.00023   0.00034   1.83267
    A5        1.93612  -0.00013  -0.00005  -0.00029  -0.00035   1.93577
    A6        2.11465   0.00006   0.00006   0.00010   0.00016   2.11482
[...]
     9   7    -0.02   0.04   0.00    -0.01   0.06   0.00    -0.29   0.00   0.00
                    16                     17                     18
                    A'                     A'                     A'
 Frequencies --  1529.6458              1578.4904              3294.3294
 Red. masses --     3.1631                 3.1651                 1.0920
 Frc consts  --     4.3605                 4.6464                 6.9823
 IR Inten    --    17.7988                11.8897                 6.4898
  Atom  AN      X      Y      Z        X      Y      Z        X      Y      Z
     1   7    -0.01  -0.13   0.00    -0.01   0.15   0.00     0.00   0.00   0.00
     2   1     0.07  -0.14   0.00     0.57   0.01   0.00     0.00  -0.01   0.00
     3   6    -0.03   0.24   0.00     0.10   0.20   0.00    -0.03  -0.01   0.00
     4   1     0.29  -0.51   0.00     0.31  -0.17   0.00     0.32   0.12   0.00
     5   6     0.02  -0.12   0.00    -0.13  -0.21   0.00     0.04  -0.07   0.00
     6   1    -0.03  -0.19   0.00     0.49   0.12   0.00    -0.47   0.79   0.00
     7   1    -0.27  -0.57   0.00     0.24   0.24   0.00    -0.17   0.06   0.00
     8   6     0.05   0.29   0.00     0.05  -0.18   0.00     0.02   0.00   0.00
     9   7    -0.03  -0.12   0.00    -0.12   0.00   0.00     0.00   0.00   0.00
                    19                     20                     21
                    A'                     A'                     A'
 Frequencies --  3299.1323              3324.0761              3675.7392
 Red. masses --     1.0967                 1.1041                 1.0817
 Frc consts  --     7.0328                 7.1881                 8.6111
 IR Inten    --     1.7588                 2.0209                53.0348
  Atom  AN      X      Y      Z        X      Y      Z        X      Y      Z
     1   7     0.00   0.00   0.00     0.00   0.00   0.00     0.00   0.00   0.00
     2   1    -0.01   0.02   0.00    -0.01  -0.02   0.00    -0.01   1.00   0.00
     3   6    -0.01   0.00   0.00    -0.08  -0.03   0.00     0.00   0.00   0.00
     4   1     0.12   0.05   0.00     0.86   0.35   0.00     0.01   0.00   0.00
     5   6     0.01  -0.01   0.00    -0.01   0.03   0.00     0.00   0.00   0.00
     6   1    -0.08   0.13   0.00     0.18  -0.30   0.00     0.00   0.00   0.00
     7   1     0.92  -0.34   0.00    -0.06   0.02   0.00    -0.01   0.00   0.00
     8   6    -0.08   0.03   0.00     0.01   0.00   0.00     0.00   0.00   0.00
     9   7     0.00   0.00   0.00     0.00   0.00   0.00     0.00  -0.08   0.00

 -------------------
 - Thermochemistry -
 -------------------
 Temperature   298.150 Kelvin.  Pressure   1.00000 Atm.
 Atom     1 has atomic number  7 and mass  14.00307
 Atom     2 has atomic number  1 and mass   1.00783
 Atom     3 has atomic number  6 and mass  12.00000
 Atom     4 has atomic number  1 and mass   1.00783
 Atom     5 has atomic number  6 and mass  12.00000
 Atom     6 has atomic number  1 and mass   1.00783
 Atom     7 has atomic number  1 and mass   1.00783
 Atom     8 has atomic number  6 and mass  12.00000
 Atom     9 has atomic number  7 and mass  14.00307
 Molecular mass:    68.03745 amu.
 Principal axes and moments of inertia in atomic units:
                           1         2         3
     Eigenvalues --   185.02196 192.74639 377.76836
           X            0.47501   0.87998   0.00000
           Y            0.87998  -0.47501   0.00000
           Z            0.00000   0.00000   1.00000
 This molecule is an asymmetric top.
 Rotational symmetry number  1.
 Rotational temperatures (Kelvin)      0.46813     0.44937     0.22928
 Rotational constants (GHZ):           9.75420     9.36329     4.77738
 Zero-point vibrational energy     188194.9 (Joules/Mol)
                                   44.97966 (Kcal/Mol)
 Warning -- explicit consideration of   1 degrees of freedom as
           vibrations may cause significant error
 Vibrational temperatures:    725.89   927.99   985.24  1027.61  1148.69
          (Kelvin)           1219.42  1305.99  1362.16  1571.50  1606.87
                             1681.57  1694.81  1872.06  2001.50  2108.34
                             2200.82  2271.09  4739.80  4746.71  4782.60
                             5288.56
 
 Zero-point correction=                           0.071680 (Hartree/Particle)
 Thermal correction to Energy=                    0.075457
 Thermal correction to Enthalpy=                  0.076401
 Thermal correction to Gibbs Free Energy=         0.045399
 Sum of electronic and zero-point Energies=           -225.911152
 Sum of electronic and thermal Energies=              -225.907374
 Sum of electronic and thermal Enthalpies=            -225.906430
 Sum of electronic and thermal Free Energies=         -225.937432
 
                     E (Thermal)             CV                S
                      KCal/Mol        Cal/Mol-Kelvin    Cal/Mol-Kelvin
 Total                   47.350             13.422             65.249
 Electronic               0.000              0.000              0.000
 Translational            0.889              2.981             38.570
 Rotational               0.889              2.981             24.114
 Vibrational             45.572              7.461              2.565
 Vibration     1          0.860              1.240              0.647
                       Q            Log10(Q)             Ln(Q)
 Total Bot       0.131176D-20        -20.882146        -48.082917
 Total V=0       0.122499D+13         12.088132         27.833953
 Vib (Bot)       0.143124D-32        -32.844287        -75.626765
 Vib (Bot)    1  0.324455D+00         -0.488846         -1.125609
 Vib (V=0)       0.133657D+01          0.125991          0.290105
 Vib (V=0)    1  0.109605D+01          0.039829          0.091709
 Electronic      0.100000D+01          0.000000          0.000000
 Translational   0.220586D+08          7.343577         16.909211
 Rotational      0.415493D+05          4.618564         10.634637
 ***** Axes restored to original set *****
 -------------------------------------------------------------------
 Center     Atomic                   Forces (Hartrees/Bohr)
 Number     Number              X              Y              Z
 -------------------------------------------------------------------
      1        7          -0.000064158    0.000020658    0.000000000
      2        1           0.000025744    0.000007099    0.000000000
      3        6          -0.000206062    0.000172475    0.000000000
      4        1          -0.000014031   -0.000056007    0.000000000
      5        6           0.000130930   -0.000217245    0.000000000
      6        1          -0.000011332    0.000003711    0.000000000
      7        1           0.000003078   -0.000022262    0.000000000
      8        6           0.000222682    0.000067000    0.000000000
      9        7          -0.000086852    0.000024570    0.000000000
 -------------------------------------------------------------------
 Cartesian Forces:  Max     0.000222682 RMS     0.000087772

 GradGradGradGradGradGradGradGradGradGradGradGradGradGradGradGradGradGrad
 Berny optimization.
 Internal  Forces:  Max     0.000130109 RMS     0.000052934
 Search for a local minimum.
 Step number   1 out of a maximum of    2
 All quantities printed in internal units (Hartrees-Bohrs-Radians)
 Second derivative matrix not updated -- analytic derivatives used.
 ITU=  0
     Eigenvalues ---    0.00482   0.01022   0.01942   0.02714   0.05883
     Eigenvalues ---    0.06180   0.10040   0.10700   0.11297   0.12139
     Eigenvalues ---    0.23440   0.25053   0.35201   0.38073   0.38353
     Eigenvalues ---    0.38711   0.41521   0.45579   0.47978   0.48665
     Eigenvalues ---    0.58024
 Angle between quadratic step and forces=  30.73 degrees.
 Linear search not attempted -- first point.
 Iteration  1 RMS(Cart)=  0.00019293 RMS(Int)=  0.00000004
 Iteration  2 RMS(Cart)=  0.00000004 RMS(Int)=  0.00000001
 ClnCor:  largest displacement from symmetrization is 1.58D-11 for atom     8.
 Variable       Old X    -DE/DX   Delta X   Delta X   Delta X     New X
                                 (Linear)    (Quad)   (Total)
    R1        2.60503   0.00000   0.00000   0.00017   0.00017   2.60520
    R2        2.48857   0.00003   0.00000  -0.00002  -0.00002   2.48855
    R3        1.90651   0.00001   0.00000   0.00000   0.00000   1.90651
    R4        2.03730  -0.00003   0.00000  -0.00006  -0.00006   2.03724
    R5        2.59272   0.00010   0.00000   0.00017   0.00017   2.59289
    R6        2.60666  -0.00007   0.00000  -0.00023  -0.00023   2.60643
    R7        2.04075  -0.00001   0.00000  -0.00005  -0.00005   2.04070
    R8        2.04140  -0.00001   0.00000  -0.00002  -0.00002   2.04138
    R9        2.58153  -0.00013   0.00000  -0.00027  -0.00027   2.58125
    A1        1.83343  -0.00001   0.00000  -0.00001  -0.00001   1.83343
    A2        2.31929  -0.00010   0.00000  -0.00071  -0.00071   2.31858
    A3        2.13156  -0.00001   0.00000   0.00029   0.00029   2.13185
    A4        1.83233   0.00011   0.00000   0.00042   0.00042   1.83275
    A5        1.93612  -0.00013   0.00000  -0.00043  -0.00043   1.93569
    A6        2.11465   0.00006   0.00000   0.00016   0.00016   2.11481
    A7        2.23241   0.00007   0.00000   0.00027   0.00027   2.23268
    A8        2.19748  -0.00007   0.00000  -0.00038  -0.00038   2.19710
    A9        1.95096   0.00010   0.00000   0.00029   0.00029   1.95124
   A10        2.13475  -0.00003   0.00000   0.00009   0.00009   2.13484
   A11        2.20322   0.00001   0.00000  -0.00011  -0.00011   2.20311
   A12        2.20802   0.00006   0.00000   0.00039   0.00039   2.20841
   A13        1.87194  -0.00008   0.00000  -0.00028  -0.00028   1.87167
    D1        0.00000   0.00000   0.00000   0.00000   0.00000   0.00000
    D2        3.14159   0.00000   0.00000   0.00000   0.00000   3.14159
    D3        3.14159   0.00000   0.00000   0.00000   0.00000   3.14159
    D4        0.00000   0.00000   0.00000   0.00000   0.00000   0.00000
    D5        3.14159   0.00000   0.00000   0.00000   0.00000   3.14159
    D6        0.00000   0.00000   0.00000   0.00000   0.00000   0.00000
    D7        0.00000   0.00000   0.00000   0.00000   0.00000   0.00000
    D8        3.14159   0.00000   0.00000   0.00000   0.00000   3.14159
    D9        0.00000   0.00000   0.00000   0.00000   0.00000   0.00000
   D10        3.14159   0.00000   0.00000   0.00000   0.00000   3.14159
   D11        3.14159   0.00000   0.00000   0.00000   0.00000   3.14159
   D12        0.00000   0.00000   0.00000   0.00000   0.00000   0.00000
   D13        3.14159   0.00000   0.00000   0.00000   0.00000   3.14159
   D14        0.00000   0.00000   0.00000   0.00000   0.00000   0.00000
   D15        0.00000   0.00000   0.00000   0.00000   0.00000   0.00000
   D16        3.14159   0.00000   0.00000   0.00000   0.00000   3.14159
         Item               Value     Threshold  Converged?
 Maximum Force            0.000130     0.000450     YES
 RMS     Force            0.000053     0.000300     YES
 Maximum Displacement     0.000538     0.001800     YES
 RMS     Displacement     0.000193     0.001200     YES
 Predicted change in Energy=-1.838236D-07
 Optimization completed.
    -- Stationary point found.
                           ----------------------------
                           !   Optimized Parameters   !
                           ! (Angstroms and Degrees)  !
 --------------------------                            --------------------------
 ! Name  Definition              Value          Derivative Info.                !
 --------------------------------------------------------------------------------
 ! R1    R(1,5)                  1.3785         -DE/DX =    0.0                 !
 ! R2    R(1,8)                  1.3169         -DE/DX =    0.0                 !
 ! R3    R(2,9)                  1.0089         -DE/DX =    0.0                 !
 ! R4    R(3,4)                  1.0781         -DE/DX =    0.0                 !
 ! R5    R(3,5)                  1.372          -DE/DX =    0.0001              !
 ! R6    R(3,9)                  1.3794         -DE/DX =   -0.0001              !
 ! R7    R(5,6)                  1.0799         -DE/DX =    0.0                 !
 ! R8    R(7,8)                  1.0803         -DE/DX =    0.0                 !
 ! R9    R(8,9)                  1.3661         -DE/DX =   -0.0001              !
 ! A1    A(5,1,8)              105.048          -DE/DX =    0.0                 !
 ! A2    A(4,3,5)              132.8856         -DE/DX =   -0.0001              !
 ! A3    A(4,3,9)              122.1296         -DE/DX =    0.0                 !
 ! A4    A(5,3,9)              104.9847         -DE/DX =    0.0001              !
 ! A5    A(1,5,3)              110.9314         -DE/DX =   -0.0001              !
 ! A6    A(1,5,6)              121.1607         -DE/DX =    0.0001              !
 ! A7    A(3,5,6)              127.9079         -DE/DX =    0.0001              !
 ! A8    A(1,8,7)              125.9063         -DE/DX =   -0.0001              !
 ! A9    A(1,8,9)              111.7816         -DE/DX =    0.0001              !
 ! A10   A(7,8,9)              122.3121         -DE/DX =    0.0                 !
 ! A11   A(2,9,3)              126.2352         -DE/DX =    0.0                 !
 ! A12   A(2,9,8)              126.5105         -DE/DX =    0.0001              !
 ! A13   A(3,9,8)              107.2543         -DE/DX =   -0.0001              !
 ! D1    D(8,1,5,3)              0.0            -DE/DX =    0.0                 !
 ! D2    D(8,1,5,6)            180.0            -DE/DX =    0.0                 !
 ! D3    D(5,1,8,7)            180.0            -DE/DX =    0.0                 !
 ! D4    D(5,1,8,9)              0.0            -DE/DX =    0.0                 !
 ! D5    D(4,3,5,1)            180.0            -DE/DX =    0.0                 !
 ! D6    D(4,3,5,6)              0.0            -DE/DX =    0.0                 !
 ! D7    D(9,3,5,1)              0.0            -DE/DX =    0.0                 !
 ! D8    D(9,3,5,6)            180.0            -DE/DX =    0.0                 !
 ! D9    D(4,3,9,2)              0.0            -DE/DX =    0.0                 !
 ! D10   D(4,3,9,8)            180.0            -DE/DX =    0.0                 !
 ! D11   D(5,3,9,2)            180.0            -DE/DX =    0.0                 !
 ! D12   D(5,3,9,8)              0.0            -DE/DX =    0.0                 !
 ! D13   D(1,8,9,2)            180.0            -DE/DX =    0.0                 !
 ! D14   D(1,8,9,3)              0.0            -DE/DX =    0.0                 !
 ! D15   D(7,8,9,2)              0.0            -DE/DX =    0.0                 !
 ! D16   D(7,8,9,3)            180.0            -DE/DX =    0.0                 !
 --------------------------------------------------------------------------------
 GradGradGradGradGradGradGradGradGradGradGradGradGradGradGradGradGradGrad

 1\1\GINC-N235\Freq\RB2PLYP-Full\6-31G(d)\C3H4N2\RDJ3\10-Jan-2012\0\\#N
  Geom=AllCheck Guess=TCheck SCRF=Check GenChk RB2PLYP-Full/6-31G(d) Fr
 eq\\1himidaz 1H-Imidazole casno=288324 state=1 config=1 method=59 basi
 s=1\\0,1\N,-0.7414883191,-0.9983028687,0.\H,-0.0151713357,2.1058329057
 ,0.\C,1.1190470148,0.2949524278,0.\H,2.1163936097,0.7043278506,0.\C,0.
 6370066801,-0.9895896071,0.\H,1.2016300727,-1.9101458882,0.\H,-2.10329
 86421,0.64949322,0.\C,-1.0914227824,0.2712462974,0.\N,-0.0031762981,1.
 0970226625,0.\\Version=EM64L-G09RevB.01\State=1-A'\HF=-225.7410544\MP2
 =-225.9828313\RMSD=2.126e-09\RMSF=8.777e-05\ZeroPoint=0.0716796\Therma
 l=0.0754568\Dipole=0.4478403,1.4184472,0.\DipoleDeriv=-0.4019078,-0.04
 20175,0.,-0.0584073,-0.5611468,0.,0.,0.,-0.3109436,0.1867993,-0.00304,
 0.,-0.0024661,0.1964701,0.,0.,0.,0.3459256,-0.0246469,-0.1726989,0.,0.
 0071268,0.2251709,0.,0.,0.,-0.1146435,-0.0044752,-0.0318148,0.,-0.0579
 004,0.0583155,0.,0.,0.,0.1723937,0.1551631,-0.0710855,0.,-0.0784928,0.
 1641978,0.,0.,0.,-0.1032465,0.0239956,0.0657268,0.,0.077648,-0.0084792
 ,0.,0.,0.,0.1359306,-0.0103225,0.0500163,0.,0.0530211,0.0425256,0.,0.,
 0.,0.1433492,0.1958026,0.1785817,0.,0.1028294,0.4961909,0.,0.,0.,0.019
 9799,-0.1204081,0.026332,0.,-0.0433586,-0.6132448,0.,0.,0.,-0.2887456\
 Polar=47.0900592,-1.3119574,45.3976913,0.,0.,17.3298375\PG=CS [SG(C3H4
 N2)]\NImag=0\\0.47856960,-0.03882776,0.59868995,0.,0.,0.10365297,-0.00
 573616,-0.00788300,0.,0.05932565,-0.00268587,-0.00108244,0.,-0.0056094
 2,0.48010212,0.,0.,0.00723824,0.,0.,0.01104441,-0.05484510,-0.00598626
 ,0.,0.01243994,-0.00643759,0.,0.82800077,-0.07663575,0.00014722,0.,0.0
 2567287,-0.00570890,0.,0.14289611,0.68509565,0.,0.,0.01555192,0.,0.,-0
 .00837762,0.,0.,0.10108993,0.00045593,-0.00009204,0.,-0.00008513,0.000
 11114,0.,-0.32215812,-0.10815630,0.,0.33939666,-0.00549554,-0.00450480
 ,0.,-0.00086965,0.00029468,0.,-0.11881202,-0.10915327,0.,0.11654037,0.
 09925544,0.,0.,0.00751422,0.,0.,-0.00105500,0.,0.,-0.01823260,0.,0.,0.
 01765025,-0.27494673,0.00271895,0.,-0.00795621,0.00078485,0.,-0.128985
 50,-0.08369004,0.,0.00070441,-0.02192217,0.,0.60997292,-0.01455867,-0.
 10054672,0.,0.00554519,-0.00076944,0.,-0.09612918,-0.37070646,0.,0.001
 70870,0.00703649,0.,-0.10928396,0.87218315,0.,0.,-0.06859990,0.,0.,0.0
 0245768,0.,0.,-0.05939245,0.,0.,-0.00323950,0.,0.,0.12706747,-0.015246
 67,0.02754276,0.,0.00114937,-0.00022224,0.,0.01155733,-0.01039425,0.,-
 0.00019615,0.00064704,0.,-0.13292902,0.12962320,0.,0.14367861,-0.00086
 397,0.00806947,0.,0.00111090,0.00002710,0.,0.01625778,-0.01060470,0.,-
 0.00039744,-0.00020678,0.,0.13249410,-0.28887188,0.,-0.14445857,0.2945
 2014,0.,0.,-0.00586467,0.,0.,0.00213177,0.,0.,-0.00179430,0.,0.,-0.001
 83716,0.,0.,-0.02716549,0.,0.,0.02272172,-0.00007530,0.00381538,0.,-0.
 00055351,-0.00023222,0.,-0.00048240,-0.00429420,0.,-0.00037424,0.00076
 513,0.,0.00166795,0.00088872,0.,0.00002932,-0.00007213,0.,0.34401882,0
 .03014372,-0.00720334,0.,0.00069364,0.00018156,0.,-0.00231478,-0.00469
 133,0.,-0.00075287,0.00114990,0.,0.00153687,-0.00553660,0.,0.00161431,
 0.00041479,0.,-0.10482573,0.09727637,0.,0.,-0.00603348,0.,0.,-0.001179
 08,0.,0.,0.00268177,0.,0.,0.00198120,0.,0.,0.00703226,0.,0.,0.00122055
 ,0.,0.,0.02026704,-0.11911812,0.06392418,0.,0.01640197,0.00820297,0.,-
 0.09524194,0.02340583,0.,-0.00160186,0.00330283,0.,-0.06484644,0.03032
 259,0.,-0.00719939,-0.00185207,0.,-0.32663111,0.09859341,0.,0.85797979
 ,0.09599107,-0.39202052,0.,-0.02339314,-0.00829060,0.,-0.02518622,-0.0
 0518076,0.,0.00298217,-0.00724067,0.,0.08552741,-0.02745759,0.,-0.0002
 1471,0.00109121,0.,0.09398922,-0.09370116,0.,-0.13033450,0.70476454,0.
 ,0.,-0.07500005,0.,0.,-0.00963301,0.,0.,0.01607289,0.,0.,0.00271243,0.
 ,0.,0.01019625,0.,0.,0.00534660,0.,0.,-0.02289176,0.,0.,0.12898363,-0.
 00905744,-0.04521221,0.,-0.07498593,0.00608839,0.,-0.25028499,0.091195
 72,0.,-0.01614150,0.02584402,0.,-0.00268138,0.05188341,0.,-0.00084341,
 -0.00221862,0.,-0.01759954,-0.02468857,0.,-0.25974289,-0.09936130,0.,0
 .63133708,0.01293278,-0.10154883,0.,0.00473261,-0.46475408,0.,0.095712
 15,-0.17919745,0.,-0.01194372,0.01336901,0.,-0.00816600,-0.08533095,0.
 ,-0.00413755,-0.00443934,0.,0.00996583,0.01210982,0.,-0.09556525,-0.17
 196444,0.,-0.00353086,0.98175625,0.,0.,0.02154075,0.,0.,-0.00262739,0.
 ,0.,-0.04759954,0.,0.,-0.00549385,0.,0.,0.01164367,0.,0.,0.00524098,0.
 ,0.,-0.00307850,0.,0.,-0.05578698,0.,0.,0.07616086\\0.00006416,-0.0000
 2066,0.,-0.00002574,-0.00000710,0.,0.00020606,-0.00017248,0.,0.0000140
 3,0.00005601,0.,-0.00013093,0.00021724,0.,0.00001133,-0.00000371,0.,-0
 .00000308,0.00002226,0.,-0.00022268,-0.00006700,0.,0.00008685,-0.00002
 457,0.\\\@


 ROSE IS A RED
 TY COBB IS BLUE
 'CAUSE PETE JUST HIT
 NO. 4592.
 Job cpu time:  0 days  0 hours  8 minutes 40.7 seconds.
 File lengths (MBytes):  RWF=    381 Int=      0 D2E=      0 Chk=      2 Scr=      1
 Normal termination of Gaussian 09 at Tue Jan 10 13:16:47 2012.
