 Entering Link 1 = C:\G03W\l1.exe PID=      2500.
  
 Copyright (c) 1988,1990,1992,1993,1995,1998,2003, Gaussian, Inc.
                  All Rights Reserved.
  
 This is the Gaussian(R) 03 program.  It is based on the
 the Gaussian(R) 98 system (copyright 1998, Gaussian, Inc.),
 the Gaussian(R) 94 system (copyright 1995, Gaussian, Inc.),
 the Gaussian 92(TM) system (copyright 1992, Gaussian, Inc.),
 the Gaussian 90(TM) system (copyright 1990, Gaussian, Inc.),
 the Gaussian 88(TM) system (copyright 1988, Gaussian, Inc.),
 the Gaussian 86(TM) system (copyright 1986, Carnegie Mellon
 University), and the Gaussian 82(TM) system (copyright 1983,
 Carnegie Mellon University). Gaussian is a federally registered
 trademark of Gaussian, Inc.
  
 This software contains proprietary and confidential information,
 including trade secrets, belonging to Gaussian, Inc.
  
 This software is provided under written license and may be
 used, copied, transmitted, or stored only in accord with that
 written license.
  
 The following legend is applicable only to US Government
 contracts under DFARS:
  
                    RESTRICTED RIGHTS LEGEND
  
 Use, duplication or disclosure by the US Government is subject
 to restrictions as set forth in subparagraph (c)(1)(ii) of the
 Rights in Technical Data and Computer Software clause at DFARS
 252.227-7013.
  
 Gaussian, Inc.
 Carnegie Office Park, Building 6, Pittsburgh, PA 15106 USA
  
 The following legend is applicable only to US Government
 contracts under FAR:
  
                    RESTRICTED RIGHTS LEGEND
  
 Use, reproduction and disclosure by the US Government is subject
 to restrictions as set forth in subparagraph (c) of the
 Commercial Computer Software - Restricted Rights clause at FAR
 52.227-19.
  
 Gaussian, Inc.
 Carnegie Office Park, Building 6, Pittsburgh, PA 15106 USA
  
  
 ---------------------------------------------------------------
 Warning -- This program may not be used in any manner that
 competes with the business of Gaussian, Inc. or will provide
 assistance to any competitor of Gaussian, Inc.  The licensee
 of this program is prohibited from giving any competitor of
 Gaussian, Inc. access to this program.  By using this program,
 the user acknowledges that Gaussian, Inc. is engaged in the
 business of creating and licensing software in the field of
 computational chemistry and represents and warrants to the
 licensee that it is not a competitor of Gaussian, Inc. and that
 it will not use this program in any manner prohibited above.
 ---------------------------------------------------------------
  

 Cite this work as:
 Gaussian 03, Revision B.05,
 M. J. Frisch, G. W. Trucks, H. B. Schlegel, G. E. Scuseria, 
 M. A. Robb, J. R. Cheeseman, J. A. Montgomery, Jr., T. Vreven, 
 K. N. Kudin, J. C. Burant, J. M. Millam, S. S. Iyengar, J. Tomasi, 
 V. Barone, B. Mennucci, M. Cossi, G. Scalmani, N. Rega, 
 G. A. Petersson, H. Nakatsuji, M. Hada, M. Ehara, K. Toyota, 
 R. Fukuda, J. Hasegawa, M. Ishida, T. Nakajima, Y. Honda, O. Kitao, 
 H. Nakai, M. Klene, X. Li, J. E. Knox, H. P. Hratchian, J. B. Cross, 
 C. Adamo, J. Jaramillo, R. Gomperts, R. E. Stratmann, O. Yazyev, 
 A. J. Austin, R. Cammi, C. Pomelli, J. W. Ochterski, P. Y. Ayala, 
 K. Morokuma, G. A. Voth, P. Salvador, J. J. Dannenberg, 
 V. G. Zakrzewski, S. Dapprich, A. D. Daniels, M. C. Strain, 
 O. Farkas, D. K. Malick, A. D. Rabuck, K. Raghavachari, 
 J. B. Foresman, J. V. Ortiz, Q. Cui, A. G. Baboul, S. Clifford, 
 J. Cioslowski, B. B. Stefanov, G. Liu, A. Liashenko, P. Piskorz, 
 I. Komaromi, R. L. Martin, D. J. Fox, T. Keith, M. A. Al-Laham, 
 C. Y. Peng, A. Nanayakkara, M. Challacombe, P. M. W. Gill, 
 B. Johnson, W. Chen, M. W. Wong, C. Gonzalez, and J. A. Pople, 
 Gaussian, Inc., Pittsburgh PA, 2003.
 
 **********************************************
 Gaussian 03:  x86-Win32-G03RevB.05  8-Nov-2003
                  30-Aug-2004 
 **********************************************
 %mem=56000000
 Default route:  MaxDisk=60000MB
 -----------------------
 #PBEPBE/STO-3G opt freq
 -----------------------
 1/14=-1,18=20,26=3,38=1/1,3;
 2/9=110,17=6,18=5,40=1/2;
 3/6=3,11=2,16=1,25=1,30=1,74=1009/1,2,3;
 4//1;
 5/5=2,38=5/2;
 6/7=2,8=2,9=2,10=2,28=1/1;
 7//1,2,3,16;
 1/14=-1,18=20/3(1);
 99//99;
 2/9=110/2;
 3/6=3,11=2,16=1,25=1,30=1,74=1009/1,2,3;
 4/5=5,16=3/1;
 5/5=2,38=5/2;
 7//1,2,3,16;
 1/14=-1,18=20/3(-5);
 2/9=110/2;
 6/7=2,8=2,9=2,10=2,19=2,28=1/1;
 99/9=1/99;
 Leave Link    1 at Mon Aug 30 17:14:53 2004, MaxMem=   56000000 cpu:       0.0
 (Enter C:\G03W\l101.exe)
 -----------------------------------------------------
 1himidaz 1H-Imidazole casno=288324 method=61 basis=20
 -----------------------------------------------------
 Symbolic Z-matrix:
 Charge =  0 Multiplicity = 1
 N                    -0.74624  -0.96754   0. 
 H                    -0.00102   2.09728   0. 
 C                     1.11782   0.28524   0. 
 H                     2.10821   0.67107   0. 
 C                     0.6474   -0.98273   0. 
 H                     1.19398  -1.89369   0. 
 H                    -2.09203   0.65661   0. 
 C                    -1.09612   0.28423   0. 
 N                     0.        1.10301   0. 
 
                    Isotopes and Nuclear Properties:

  Atom         1           2           3           4           5           6           7           8           9
 IAtWgt=          14           1          12           1          12           1           1          12          14
 AtmWgt=  14.0030740   1.0078250  12.0000000   1.0078250  12.0000000   1.0078250   1.0078250  12.0000000  14.0030740
 IAtSpn=           2           1           0           1           0           1           1           0           2
 AtZEff=   0.0000000   0.0000000   0.0000000   0.0000000   0.0000000   0.0000000   0.0000000   0.0000000   0.0000000
 AtQMom=   1.5600000   0.0000000   0.0000000   0.0000000   0.0000000   0.0000000   0.0000000   0.0000000   1.5600000
 AtGFac=   0.4037610   2.7928460   0.0000000   2.7928460   0.0000000   2.7928460   2.7928460   0.0000000   0.4037610
 Leave Link  101 at Mon Aug 30 17:14:54 2004, MaxMem=   56000000 cpu:       0.0
 (Enter C:\G03W\l103.exe)

 GradGradGradGradGradGradGradGradGradGradGradGradGradGradGradGradGradGrad
 Berny optimization.
 Initialization pass.
                           ----------------------------
                           !    Initial Parameters    !
                           ! (Angstroms and Degrees)  !
 --------------------------                            --------------------------
 ! Name  Definition              Value          Derivative Info.                !
 --------------------------------------------------------------------------------
 ! R1    R(1,5)                  1.3937         estimate D2E/DX2                !
 ! R2    R(1,8)                  1.2998         estimate D2E/DX2                !
 ! R3    R(2,9)                  0.9943         estimate D2E/DX2                !
 ! R4    R(3,4)                  1.0629         estimate D2E/DX2                !
 ! R5    R(3,5)                  1.3524         estimate D2E/DX2                !
 ! R6    R(3,9)                  1.385          estimate D2E/DX2                !
 ! R7    R(5,6)                  1.0624         estimate D2E/DX2                !
 ! R8    R(7,8)                  1.0632         estimate D2E/DX2                !
 ! R9    R(8,9)                  1.3682         estimate D2E/DX2                !
 ! A1    A(5,1,8)              106.2404         estimate D2E/DX2                !
 ! A2    A(4,3,5)              131.6391         estimate D2E/DX2                !
 ! A3    A(4,3,9)              122.5274         estimate D2E/DX2                !
 ! A4    A(5,3,9)              105.8335         estimate D2E/DX2                !
 ! A5    A(1,5,3)              109.7304         estimate D2E/DX2                !
 ! A6    A(1,5,6)              121.5885         estimate D2E/DX2                !
 ! A7    A(3,5,6)              128.6811         estimate D2E/DX2                !
 ! A8    A(1,8,7)              126.1173         estimate D2E/DX2                !
 ! A9    A(1,8,9)              111.1428         estimate D2E/DX2                !
 ! A10   A(7,8,9)              122.7399         estimate D2E/DX2                !
 ! A11   A(2,9,3)              126.2473         estimate D2E/DX2                !
 ! A12   A(2,9,8)              126.6998         estimate D2E/DX2                !
 ! A13   A(3,9,8)              107.0529         estimate D2E/DX2                !
 ! D1    D(8,1,5,3)              0.0            estimate D2E/DX2                !
 ! D2    D(8,1,5,6)            180.0            estimate D2E/DX2                !
 ! D3    D(5,1,8,7)            180.0            estimate D2E/DX2                !
 ! D4    D(5,1,8,9)              0.0            estimate D2E/DX2                !
 ! D5    D(4,3,5,1)            180.0            estimate D2E/DX2                !
 ! D6    D(4,3,5,6)              0.0            estimate D2E/DX2                !
 ! D7    D(9,3,5,1)              0.0            estimate D2E/DX2                !
 ! D8    D(9,3,5,6)            180.0            estimate D2E/DX2                !
 ! D9    D(4,3,9,2)              0.0            estimate D2E/DX2                !
 ! D10   D(4,3,9,8)            180.0            estimate D2E/DX2                !
 ! D11   D(5,3,9,2)            180.0            estimate D2E/DX2                !
 ! D12   D(5,3,9,8)              0.0            estimate D2E/DX2                !
 ! D13   D(1,8,9,2)            180.0            estimate D2E/DX2                !
 ! D14   D(1,8,9,3)              0.0            estimate D2E/DX2                !
 ! D15   D(7,8,9,2)              0.0            estimate D2E/DX2                !
 ! D16   D(7,8,9,3)            180.0            estimate D2E/DX2                !
 --------------------------------------------------------------------------------
 Trust Radius=3.00D-01 FncErr=1.00D-07 GrdErr=1.00D-06
 Number of steps in this run=  48 maximum allowed number of steps= 100.
 GradGradGradGradGradGradGradGradGradGradGradGradGradGradGradGradGradGrad

 Leave Link  103 at Mon Aug 30 17:14:55 2004, MaxMem=   56000000 cpu:       0.0
 (Enter C:\G03W\l202.exe)
                          Input orientation:                          
 ---------------------------------------------------------------------
 Center     Atomic     Atomic              Coordinates (Angstroms)
 Number     Number      Type              X           Y           Z
 ---------------------------------------------------------------------
    1          7             0       -0.746242   -0.967544    0.000000
    2          1             0       -0.001024    2.097278    0.000000
    3          6             0        1.117815    0.285244    0.000000
    4          1             0        2.108213    0.671072    0.000000
    5          6             0        0.647399   -0.982731    0.000000
    6          1             0        1.193984   -1.893692    0.000000
    7          1             0       -2.092028    0.656612    0.000000
    8          6             0       -1.096122    0.284233    0.000000
    9          7             0        0.000000    1.103009    0.000000
 ---------------------------------------------------------------------
                    Distance matrix (angstroms):
                    1          2          3          4          5
     1  N    0.000000
     2  H    3.154122   0.000000
     3  C    2.245927   2.129617   0.000000
     4  H    3.291349   2.546163   1.062898   0.000000
     5  C    1.393724   3.147524   1.352424   2.206591   0.000000
     6  H    2.149937   4.166040   2.180267   2.722835   1.062358
     7  H    2.109271   2.539255   3.231255   4.200266   3.192476
     8  C    1.299754   2.118106   2.213937   3.227601   2.155241
     9  N    2.200924   0.994270   1.385009   2.152006   2.183904
                    6          7          8          9
     6  H    0.000000
     7  H    4.159558   0.000000
     8  C    3.160371   1.063247   0.000000
     9  N    3.225805   2.139124   1.368166   0.000000
 Stoichiometry    C3H4N2
 Framework group  CS[SG(C3H4N2)]
 Deg. of freedom    15
 Full point group                 CS      NOp   2
 Largest Abelian subgroup         CS      NOp   2
 Largest concise Abelian subgroup C1      NOp   1
                         Standard orientation:                         
 ---------------------------------------------------------------------
 Center     Atomic     Atomic              Coordinates (Angstroms)
 Number     Number      Type              X           Y           Z
 ---------------------------------------------------------------------
    1          7             0       -0.746242   -0.967544    0.000000
    2          1             0       -0.001024    2.097278    0.000000
    3          6             0        1.117815    0.285244    0.000000
    4          1             0        2.108213    0.671072    0.000000
    5          6             0        0.647399   -0.982731    0.000000
    6          1             0        1.193984   -1.893692    0.000000
    7          1             0       -2.092028    0.656612    0.000000
    8          6             0       -1.096122    0.284233    0.000000
    9          7             0        0.000000    1.103009    0.000000
 ---------------------------------------------------------------------
 Rotational constants (GHZ):      9.6694010      9.5604807      4.8073162
 Leave Link  202 at Mon Aug 30 17:14:56 2004, MaxMem=   56000000 cpu:       0.0
 (Enter C:\G03W\l301.exe)
 Standard basis: STO-3G (5D, 7F)
 There are    24 symmetry adapted basis functions of A'  symmetry.
 There are     5 symmetry adapted basis functions of A"  symmetry.
 Integral buffers will be    262144 words long.
 Raffenetti 2 integral format.
 Two-electron integral symmetry is turned on.
    29 basis functions,    87 primitive gaussians,    29 cartesian basis functions
    18 alpha electrons       18 beta electrons
       nuclear repulsion energy       163.6405015755 Hartrees.
 IExCor=1009 DFT=T Ex=PBE Corr=PBE ExCW=0 ScaHFX=  0.000000
 ScaDFX=  1.000000  1.000000  1.000000  1.000000
 IRadAn=      0 IRanWt=     -1 IRanGd=            0 ICorTp=0
 NAtoms=    9 NActive=    9 NUniq=    9 SFac= 1.00D+00 NAtFMM=   60 Big=F
 Leave Link  301 at Mon Aug 30 17:14:57 2004, MaxMem=   56000000 cpu:       0.0
 (Enter C:\G03W\l302.exe)
 NPDir=0 NMtPBC=     1 NCelOv=     1 NCel=       1 NClECP=     1 NCelD=      1
         NCelK=      1 NCelE2=     1 NClLst=     1 CellRange=     0.0.
 One-electron integrals computed using PRISM.
 NBasis=    29 RedAO= T  NBF=    24     5
 NBsUse=    29 1.00D-06 NBFU=    24     5
 Precomputing XC quadrature grid using
 IXCGrd= 2 IRadAn=           0 IRanWt=          -1 IRanGd=           0.
 NRdTot=     555 NPtTot=       69836 NUsed=       72353 NTot=       72369
 NSgBfM=    29    29    29    29.
 Leave Link  302 at Mon Aug 30 17:14:58 2004, MaxMem=   56000000 cpu:       0.0
 (Enter C:\G03W\l303.exe)
 DipDrv:  MaxL=1.
 Leave Link  303 at Mon Aug 30 17:14:59 2004, MaxMem=   56000000 cpu:       0.0
 (Enter C:\G03W\l401.exe)
 Harris functional with IExCor= 1009 diagonalized for initial guess.
 ExpMin= 1.69D-01 ExpMax= 9.91D+01 ExpMxC= 9.91D+01 IAcc=1 IRadAn=         1 AccDes= 1.00D-06
 HarFok:  IExCor=1009 AccDes= 1.00D-06 IRadAn=         1 IDoV=1
 ScaDFX=  1.000000  1.000000  1.000000  1.000000
 Harris En= -223.179630445500    
 Initial guess orbital symmetries:
       Occupied  (A') (A') (A') (A') (A') (A') (A') (A') (A') (A')
                 (A') (A') (A') (A') (A") (A') (A") (A")
       Virtual   (A") (A") (A') (A') (A') (A') (A') (A') (A') (A')
                 (A')
 The electronic state of the initial guess is 1-A'.
 Leave Link  401 at Mon Aug 30 17:15:01 2004, MaxMem=   56000000 cpu:       1.0
 (Enter C:\G03W\l502.exe)
 Closed shell SCF:
 Requested convergence on RMS density matrix=1.00D-08 within 128 cycles.
 Requested convergence on MAX density matrix=1.00D-06.
 Requested convergence on             energy=1.00D-06.
 No special actions if energy rises.
 Using DIIS extrapolation, IDIIS=  1040.
 Integral symmetry usage will be decided dynamically.
        72352 words used for storage of precomputed grid.
 Keep R1 integrals in memory in canonical form, NReq=      600413.
 IEnd=     92518 IEndB=     92518 NGot=  56000000 MDV=  55830149
 LenX=  55830149
 Symmetry not used in FoFDir.
 MinBra= 0 MaxBra= 1 Meth= 1.
 IRaf=       0 NMat=   1 IRICut=       1 DoRegI=T DoRafI=F ISym2E= 0 JSym2E=0.
 Integral accuracy reduced to 1.0D-05 until final iterations.

 Cycle   1  Pass 0  IDiag  1:
 E= -223.011884997537    
 DIIS: error= 3.17D-02 at cycle   1 NSaved=   1.
 NSaved= 1 IEnMin= 1 EnMin= -223.011884997537     IErMin= 1 ErrMin= 3.17D-02
 ErrMax= 3.17D-02 EMaxC= 1.00D-01 BMatC= 3.48D-02 BMatP= 3.48D-02
 IDIUse=3 WtCom= 6.83D-01 WtEn= 3.17D-01
 Coeff-Com:  0.100D+01
 Coeff-En:   0.100D+01
 Coeff:      0.100D+01
 Gap=     0.115 Goal=   None    Shift=    0.000
 GapD=    0.115 DampG=1.000 DampE=0.500 DampFc=0.5000 IDamp=-1.
 Damping current iteration by 5.00D-01
 RMSDP=2.77D-02 MaxDP=2.36D-01              OVMax= 0.00D+00

 Cycle   2  Pass 0  IDiag  1:
 E= -223.014602981016     Delta-E=       -0.002717983478 Rises=F Damp=T
 DIIS: error= 2.22D-02 at cycle   2 NSaved=   2.
 NSaved= 2 IEnMin= 2 EnMin= -223.014602981016     IErMin= 2 ErrMin= 2.22D-02
 ErrMax= 2.22D-02 EMaxC= 1.00D-01 BMatC= 1.34D-02 BMatP= 3.48D-02
 IDIUse=3 WtCom= 7.78D-01 WtEn= 2.22D-01
 Coeff-Com:  0.345D+00 0.655D+00
 Coeff-En:   0.479D+00 0.521D+00
 Coeff:      0.375D+00 0.625D+00
 Gap=     0.200 Goal=   None    Shift=    0.000
 RMSDP=8.05D-03 MaxDP=7.06D-02 DE=-2.72D-03 OVMax= 0.00D+00

 Cycle   3  Pass 0  IDiag  1:
 E= -223.059372084663     Delta-E=       -0.044769103647 Rises=F Damp=F
 DIIS: error= 1.10D-02 at cycle   3 NSaved=   3.
 NSaved= 3 IEnMin= 3 EnMin= -223.059372084663     IErMin= 3 ErrMin= 1.10D-02
 ErrMax= 1.10D-02 EMaxC= 1.00D-01 BMatC= 4.73D-03 BMatP= 1.34D-02
 IDIUse=3 WtCom= 8.90D-01 WtEn= 1.10D-01
 Coeff-Com:  0.111D+00 0.358D+00 0.531D+00
 Coeff-En:   0.000D+00 0.000D+00 0.100D+01
 Coeff:      0.992D-01 0.318D+00 0.583D+00
 Gap=     0.196 Goal=   None    Shift=    0.000
 RMSDP=3.98D-03 MaxDP=3.65D-02 DE=-4.48D-02 OVMax= 0.00D+00

 Cycle   4  Pass 0  IDiag  1:
 E= -223.064716343999     Delta-E=       -0.005344259337 Rises=F Damp=F
 DIIS: error= 4.78D-03 at cycle   4 NSaved=   4.
 NSaved= 4 IEnMin= 4 EnMin= -223.064716343999     IErMin= 4 ErrMin= 4.78D-03
 ErrMax= 4.78D-03 EMaxC= 1.00D-01 BMatC= 4.72D-04 BMatP= 4.73D-03
 IDIUse=3 WtCom= 9.52D-01 WtEn= 4.78D-02
 Coeff-Com:  0.539D-01 0.145D+00 0.325D+00 0.476D+00
 Coeff-En:   0.000D+00 0.000D+00 0.267D-01 0.973D+00
 Coeff:      0.514D-01 0.138D+00 0.311D+00 0.499D+00
 Gap=     0.203 Goal=   None    Shift=    0.000
 RMSDP=1.19D-03 MaxDP=1.37D-02 DE=-5.34D-03 OVMax= 0.00D+00

 Cycle   5  Pass 0  IDiag  1:
 E= -223.065249628068     Delta-E=       -0.000533284068 Rises=F Damp=F
 DIIS: error= 1.25D-03 at cycle   5 NSaved=   5.
 NSaved= 5 IEnMin= 5 EnMin= -223.065249628068     IErMin= 5 ErrMin= 1.25D-03
 ErrMax= 1.25D-03 EMaxC= 1.00D-01 BMatC= 3.68D-05 BMatP= 4.72D-04
 IDIUse=3 WtCom= 9.87D-01 WtEn= 1.25D-02
 Coeff-Com:  0.790D-02 0.163D-01 0.761D-01 0.292D+00 0.608D+00
 Coeff-En:   0.000D+00 0.000D+00 0.000D+00 0.598D-01 0.940D+00
 Coeff:      0.780D-02 0.161D-01 0.751D-01 0.289D+00 0.612D+00
 Gap=     0.202 Goal=   None    Shift=    0.000
 RMSDP=3.32D-04 MaxDP=4.52D-03 DE=-5.33D-04 OVMax= 0.00D+00

 Cycle   6  Pass 0  IDiag  1:
 E= -223.065296216513     Delta-E=       -0.000046588445 Rises=F Damp=F
 DIIS: error= 3.38D-04 at cycle   6 NSaved=   6.
 NSaved= 6 IEnMin= 6 EnMin= -223.065296216513     IErMin= 6 ErrMin= 3.38D-04
 ErrMax= 3.38D-04 EMaxC= 1.00D-01 BMatC= 2.21D-06 BMatP= 3.68D-05
 IDIUse=3 WtCom= 9.97D-01 WtEn= 3.38D-03
 Coeff-Com:  0.324D-02 0.590D-02 0.376D-01 0.167D+00 0.383D+00 0.403D+00
 Coeff-En:   0.000D+00 0.000D+00 0.000D+00 0.000D+00 0.000D+00 0.100D+01
 Coeff:      0.323D-02 0.588D-02 0.374D-01 0.167D+00 0.382D+00 0.405D+00
 Gap=     0.202 Goal=   None    Shift=    0.000
 RMSDP=8.45D-05 MaxDP=1.08D-03 DE=-4.66D-05 OVMax= 0.00D+00

 Cycle   7  Pass 0  IDiag  1:
 E= -223.065299038010     Delta-E=       -0.000002821497 Rises=F Damp=F
 DIIS: error= 4.71D-05 at cycle   7 NSaved=   7.
 NSaved= 7 IEnMin= 7 EnMin= -223.065299038010     IErMin= 7 ErrMin= 4.71D-05
 ErrMax= 4.71D-05 EMaxC= 1.00D-01 BMatC= 1.06D-07 BMatP= 2.21D-06
 IDIUse=1 WtCom= 1.00D+00 WtEn= 0.00D+00
 Coeff-Com:  0.341D-04 0.240D-03 0.423D-02 0.273D-01 0.749D-01 0.204D+00
 Coeff-Com:  0.690D+00
 Coeff:      0.341D-04 0.240D-03 0.423D-02 0.273D-01 0.749D-01 0.204D+00
 Coeff:      0.690D+00
 Gap=     0.202 Goal=   None    Shift=    0.000
 RMSDP=1.69D-05 MaxDP=2.20D-04 DE=-2.82D-06 OVMax= 0.00D+00

 Cycle   8  Pass 0  IDiag  1:
 E= -223.065299171535     Delta-E=       -0.000000133525 Rises=F Damp=F
 DIIS: error= 1.45D-05 at cycle   8 NSaved=   8.
 NSaved= 8 IEnMin= 8 EnMin= -223.065299171535     IErMin= 8 ErrMin= 1.45D-05
 ErrMax= 1.45D-05 EMaxC= 1.00D-01 BMatC= 6.48D-09 BMatP= 1.06D-07
 IDIUse=1 WtCom= 1.00D+00 WtEn= 0.00D+00
 Coeff-Com: -0.222D-04 0.673D-04 0.202D-02 0.142D-01 0.399D-01 0.119D+00
 Coeff-Com:  0.432D+00 0.393D+00
 Coeff:     -0.222D-04 0.673D-04 0.202D-02 0.142D-01 0.399D-01 0.119D+00
 Coeff:      0.432D+00 0.393D+00
 Gap=     0.202 Goal=   None    Shift=    0.000
 RMSDP=3.84D-06 MaxDP=4.94D-05 DE=-1.34D-07 OVMax= 0.00D+00

 Initial convergence to 1.0D-05 achieved.  Increase integral accuracy.
 Cycle   9  Pass 1  IDiag  1:
 E= -223.065321451918     Delta-E=       -0.000022280384 Rises=F Damp=F
 DIIS: error= 4.10D-06 at cycle   1 NSaved=   1.
 NSaved= 1 IEnMin= 1 EnMin= -223.065321451918     IErMin= 1 ErrMin= 4.10D-06
 ErrMax= 4.10D-06 EMaxC= 1.00D-01 BMatC= 3.60D-10 BMatP= 3.60D-10
 IDIUse=1 WtCom= 1.00D+00 WtEn= 0.00D+00
 Coeff-Com:  0.100D+01
 Coeff:      0.100D+01
 Gap=     0.202 Goal=   None    Shift=    0.000
 RMSDP=3.84D-06 MaxDP=4.94D-05 DE=-2.23D-05 OVMax= 0.00D+00

 Cycle  10  Pass 1  IDiag  1:
 E= -223.065321452407     Delta-E=       -0.000000000488 Rises=F Damp=F
 DIIS: error= 2.55D-06 at cycle   2 NSaved=   2.
 NSaved= 2 IEnMin= 2 EnMin= -223.065321452407     IErMin= 2 ErrMin= 2.55D-06
 ErrMax= 2.55D-06 EMaxC= 1.00D-01 BMatC= 1.35D-10 BMatP= 3.60D-10
 IDIUse=1 WtCom= 1.00D+00 WtEn= 0.00D+00
 Coeff-Com:  0.340D+00 0.660D+00
 Coeff:      0.340D+00 0.660D+00
 Gap=     0.202 Goal=   None    Shift=    0.000
 RMSDP=1.09D-06 MaxDP=1.15D-05 DE=-4.88D-10 OVMax= 0.00D+00

 Cycle  11  Pass 1  IDiag  1:
 E= -223.065321452399     Delta-E=        0.000000000008 Rises=F Damp=F
 DIIS: error= 2.80D-06 at cycle   3 NSaved=   3.
 NSaved= 3 IEnMin= 2 EnMin= -223.065321452407     IErMin= 2 ErrMin= 2.55D-06
 ErrMax= 2.80D-06 EMaxC= 1.00D-01 BMatC= 1.40D-10 BMatP= 1.35D-10
 IDIUse=1 WtCom= 1.00D+00 WtEn= 0.00D+00
 Coeff-Com:  0.574D-01 0.496D+00 0.447D+00
 Coeff:      0.574D-01 0.496D+00 0.447D+00
 Gap=     0.202 Goal=   None    Shift=    0.000
 RMSDP=6.10D-07 MaxDP=5.86D-06 DE= 7.73D-12 OVMax= 0.00D+00

 Cycle  12  Pass 1  IDiag  1:
 E= -223.065321452573     Delta-E=       -0.000000000174 Rises=F Damp=F
 DIIS: error= 5.67D-07 at cycle   4 NSaved=   4.
 NSaved= 4 IEnMin= 4 EnMin= -223.065321452573     IErMin= 4 ErrMin= 5.67D-07
 ErrMax= 5.67D-07 EMaxC= 1.00D-01 BMatC= 6.20D-12 BMatP= 1.35D-10
 IDIUse=1 WtCom= 1.00D+00 WtEn= 0.00D+00
 Coeff-Com:  0.171D-01 0.275D+00 0.277D+00 0.431D+00
 Coeff:      0.171D-01 0.275D+00 0.277D+00 0.431D+00
 Gap=     0.202 Goal=   None    Shift=    0.000
 RMSDP=1.38D-07 MaxDP=1.39D-06 DE=-1.74D-10 OVMax= 0.00D+00

 Cycle  13  Pass 1  IDiag  1:
 E= -223.065321452580     Delta-E=       -0.000000000008 Rises=F Damp=F
 DIIS: error= 1.46D-07 at cycle   5 NSaved=   5.
 NSaved= 5 IEnMin= 5 EnMin= -223.065321452580     IErMin= 5 ErrMin= 1.46D-07
 ErrMax= 1.46D-07 EMaxC= 1.00D-01 BMatC= 5.93D-13 BMatP= 6.20D-12
 IDIUse=1 WtCom= 1.00D+00 WtEn= 0.00D+00
 Coeff-Com:  0.308D-02 0.897D-01 0.958D-01 0.262D+00 0.549D+00
 Coeff:      0.308D-02 0.897D-01 0.958D-01 0.262D+00 0.549D+00
 Gap=     0.202 Goal=   None    Shift=    0.000
 RMSDP=4.14D-08 MaxDP=5.48D-07 DE=-7.67D-12 OVMax= 0.00D+00

 Cycle  14  Pass 1  IDiag  1:
 E= -223.065321452581     Delta-E=       -0.000000000001 Rises=F Damp=F
 DIIS: error= 5.10D-08 at cycle   6 NSaved=   6.
 NSaved= 6 IEnMin= 6 EnMin= -223.065321452581     IErMin= 6 ErrMin= 5.10D-08
 ErrMax= 5.10D-08 EMaxC= 1.00D-01 BMatC= 5.74D-14 BMatP= 5.93D-13
 IDIUse=1 WtCom= 1.00D+00 WtEn= 0.00D+00
 Coeff-Com:  0.949D-03 0.415D-01 0.449D-01 0.141D+00 0.339D+00 0.434D+00
 Coeff:      0.949D-03 0.415D-01 0.449D-01 0.141D+00 0.339D+00 0.434D+00
 Gap=     0.202 Goal=   None    Shift=    0.000
 RMSDP=1.30D-08 MaxDP=1.64D-07 DE=-5.12D-13 OVMax= 0.00D+00

 Cycle  15  Pass 1  IDiag  1:
 E= -223.065321452581     Delta-E=        0.000000000000 Rises=F Damp=F
 DIIS: error= 1.07D-08 at cycle   7 NSaved=   7.
 NSaved= 7 IEnMin= 6 EnMin= -223.065321452581     IErMin= 7 ErrMin= 1.07D-08
 ErrMax= 1.07D-08 EMaxC= 1.00D-01 BMatC= 4.04D-15 BMatP= 5.74D-14
 IDIUse=1 WtCom= 1.00D+00 WtEn= 0.00D+00
 Coeff-Com:  0.748D-04 0.108D-01 0.120D-01 0.437D-01 0.117D+00 0.251D+00
 Coeff-Com:  0.565D+00
 Coeff:      0.748D-04 0.108D-01 0.120D-01 0.437D-01 0.117D+00 0.251D+00
 Coeff:      0.565D+00
 Gap=     0.202 Goal=   None    Shift=    0.000
 RMSDP=3.15D-09 MaxDP=3.35D-08 DE= 0.00D+00 OVMax= 0.00D+00

 SCF Done:  E(RPBE-PBE) =  -223.065321453     A.U. after   15 cycles
             Convg  =    0.3150D-08             -V/T =  2.0154
             S**2   =   0.0000
 KE= 2.196716080307D+02 PE=-8.459212166089D+02 EE= 2.395437855501D+02
 Leave Link  502 at Mon Aug 30 17:15:07 2004, MaxMem=   56000000 cpu:       6.0
 (Enter C:\G03W\l601.exe)
 Copying SCF densities to generalized density rwf, ISCF=0 IROHF=0.

 **********************************************************************

            Population analysis using the SCF density.

 **********************************************************************

 Orbital symmetries:
       Occupied  (A') (A') (A') (A') (A') (A') (A') (A') (A') (A')
                 (A') (A') (A') (A") (A') (A") (A") (A')
       Virtual   (A") (A") (A') (A') (A') (A') (A') (A') (A') (A')
                 (A')
 The electronic state is 1-A'.
 Alpha  occ. eigenvalues --  -13.90307 -13.76149  -9.75839  -9.73587  -9.70847
 Alpha  occ. eigenvalues --   -0.89046  -0.75193  -0.63493  -0.51847  -0.49002
 Alpha  occ. eigenvalues --   -0.47244  -0.35336  -0.34435  -0.32552  -0.31501
 Alpha  occ. eigenvalues --   -0.17008  -0.14261  -0.10983
 Alpha virt. eigenvalues --    0.09198   0.14069   0.27737   0.32714   0.33838
 Alpha virt. eigenvalues --    0.38349   0.42639   0.46893   0.57056   0.63080
 Alpha virt. eigenvalues --    0.71046
          Condensed to atoms (all electrons):
              1          2          3          4          5          6
     1  N    6.511974   0.001949  -0.043445   0.001264   0.395087  -0.022280
     2  H    0.001949   0.456464  -0.025757  -0.001480   0.002966  -0.000042
     3  C   -0.043445  -0.025757   4.844688   0.394033   0.551675  -0.025010
     4  H    0.001264  -0.001480   0.394033   0.541426  -0.018381  -0.001040
     5  C    0.395087   0.002966   0.551675  -0.018381   4.858329   0.396931
     6  H   -0.022280  -0.000042  -0.025010  -0.001040   0.396931   0.550052
     7  H   -0.023168  -0.000905   0.001933  -0.000028   0.003244  -0.000037
     8  C    0.476356  -0.024080  -0.075549   0.002336  -0.069689   0.003151
     9  N   -0.048708   0.345453   0.416587  -0.019874  -0.065884   0.001268
              7          8          9
     1  N   -0.023168   0.476356  -0.048708
     2  H   -0.000905  -0.024080   0.345453
     3  C    0.001933  -0.075549   0.416587
     4  H   -0.000028   0.002336  -0.019874
     5  C    0.003244  -0.069689  -0.065884
     6  H   -0.000037   0.003151   0.001268
     7  H    0.542112   0.395836  -0.025049
     8  C    0.395836   4.836157   0.401647
     9  N   -0.025049   0.401647   6.256177
 Mulliken atomic charges:
              1
     1  N   -0.249030
     2  H    0.245433
     3  C   -0.039156
     4  H    0.101744
     5  C   -0.054278
     6  H    0.097007
     7  H    0.106063
     8  C    0.053835
     9  N   -0.261617
 Sum of Mulliken charges=   0.00000
 Atomic charges with hydrogens summed into heavy atoms:
              1
     1  N   -0.249030
     2  H    0.000000
     3  C    0.062588
     4  H    0.000000
     5  C    0.042730
     6  H    0.000000
     7  H    0.000000
     8  C    0.159897
     9  N   -0.016185
 Sum of Mulliken charges=   0.00000
 Electronic spatial extent (au):  <R**2>=   279.4599
 Charge=     0.0000 electrons
 Dipole moment (field-independent basis, Debye):
    X=     1.0449    Y=     3.3576    Z=     0.0000  Tot=     3.5164
 Quadrupole moment (field-independent basis, Debye-Ang):
   XX=   -25.3850   YY=   -24.0838   ZZ=   -28.2862
   XY=    -2.5623   XZ=     0.0000   YZ=     0.0000
 Traceless Quadrupole moment (field-independent basis, Debye-Ang):
   XX=     0.5333   YY=     1.8346   ZZ=    -2.3679
   XY=    -2.5623   XZ=     0.0000   YZ=     0.0000
 Octapole moment (field-independent basis, Debye-Ang**2):
  XXX=    -0.2993  YYY=    13.3799  ZZZ=     0.0000  XYY=     4.0273
  XXY=     4.7968  XXZ=     0.0000  XZZ=    -0.8862  YZZ=     0.4060
  YYZ=     0.0000  XYZ=     0.0000
 Hexadecapole moment (field-independent basis, Debye-Ang**3):
 XXXX=  -147.8678 YYYY=  -126.8763 ZZZZ=   -21.1136 XXXY=     0.1056
 XXXZ=     0.0000 YYYX=    -4.5779 YYYZ=     0.0000 ZZZX=     0.0000
 ZZZY=     0.0000 XXYY=   -51.7375 XXZZ=   -32.6987 YYZZ=   -29.9028
 XXYZ=     0.0000 YYXZ=     0.0000 ZZXY=     1.4049
 N-N= 1.636405015755D+02 E-N=-8.459212168951D+02  KE= 2.196716080307D+02
 Symmetry A'   KE= 2.107465060345D+02
 Symmetry A"   KE= 8.925101996183D+00
 No NMR shielding tensors so no spin-rotation constants.
 Leave Link  601 at Mon Aug 30 17:15:08 2004, MaxMem=   56000000 cpu:       1.0
 (Enter C:\G03W\l701.exe)
 Compute integral first derivatives.
 ... and contract with generalized density number  0.
 Leave Link  701 at Mon Aug 30 17:15:09 2004, MaxMem=   56000000 cpu:       1.0
 (Enter C:\G03W\l702.exe)
 L702 exits ... SP integral derivatives will be done elsewhere.
 Leave Link  702 at Mon Aug 30 17:15:10 2004, MaxMem=   56000000 cpu:       0.0
 (Enter C:\G03W\l703.exe)
 Compute integral first derivatives, UseDBF=F.
 Integral derivatives from FoFDir, PRISM(SPDF).
 Calling FoFCou, ICntrl=  2527 FMM=F ISym2X=1 I1Cent= 0 ISCF1= 0.
 FoFCou: FMM=F IPFlag=           0 FMFlag=           0 FMFlg1=           0
 NFxFlg=           0 DoJE=F BraDBF=F KetDBF=F FulRan=T.
 Petite list used in FoFCou.
 Leave Link  703 at Mon Aug 30 17:15:11 2004, MaxMem=   56000000 cpu:       1.0
 (Enter C:\G03W\l716.exe)
 Dipole        = 4.11095004D-01 1.32098468D+00 0.00000000D+00
 ***** Axes restored to original set *****
 -------------------------------------------------------------------
 Center     Atomic                   Forces (Hartrees/Bohr)
 Number     Number              X              Y              Z
 -------------------------------------------------------------------
    1          7          -0.025573174   -0.094832685    0.000000000
    2          1           0.001980771    0.060911555    0.000000000
    3          6           0.017259319    0.011356574    0.000000000
    4          1           0.027996236    0.014185530    0.000000000
    5          6          -0.003320735   -0.004510656    0.000000000
    6          1           0.016745983   -0.027546908    0.000000000
    7          1          -0.030756284    0.013684038    0.000000000
    8          6          -0.018871579    0.031292499    0.000000000
    9          7           0.014539462   -0.004539948    0.000000000
 -------------------------------------------------------------------
 Cartesian Forces:  Max     0.094832685 RMS     0.026207463
 Leave Link  716 at Mon Aug 30 17:15:12 2004, MaxMem=   56000000 cpu:       0.0
 (Enter C:\G03W\l103.exe)

 GradGradGradGradGradGradGradGradGradGradGradGradGradGradGradGradGradGrad
 Berny optimization.
 Internal  Forces:  Max     0.080642526 RMS     0.023904289
 Search for a local minimum.
 Step number   1 out of a maximum of  48
 All quantities printed in internal units (Hartrees-Bohrs-Radians)
 Second derivative matrix not updated -- first step.
     Eigenvalues ---    0.01997   0.02158   0.02222   0.02406   0.02463
     Eigenvalues ---    0.02551   0.16000   0.16000   0.16000   0.16000
     Eigenvalues ---    0.22000   0.22912   0.38097   0.38142   0.38213
     Eigenvalues ---    0.42443   0.46026   0.48397   0.48710   0.52859
     Eigenvalues ---    0.643341000.000001000.000001000.000001000.00000
     Eigenvalues --- 1000.000001000.000001000.000001000.000001000.00000
     Eigenvalues --- 1000.000001000.000001000.000001000.000001000.00000
     Eigenvalues --- 1000.000001000.000001000.00000
 RFO step:  Lambda=-3.99037766D-02.
 Linear search not attempted -- first point.
 Iteration  1 RMS(Cart)=  0.05516575 RMS(Int)=  0.00057540
 Iteration  2 RMS(Cart)=  0.00065278 RMS(Int)=  0.00015568
 Iteration  3 RMS(Cart)=  0.00000023 RMS(Int)=  0.00015568
 Variable       Old X    -DE/DX   Delta X   Delta X   Delta X     New X
                                 (Linear)    (Quad)   (Total)
    R1        2.63376   0.03727   0.00000   0.07422   0.07446   2.70821
    R2        2.45618   0.08064   0.00000   0.11711   0.11729   2.57347
    R3        1.87890   0.06091   0.00000   0.11558   0.11558   1.99447
    R4        2.00859   0.03124   0.00000   0.07414   0.07414   2.08272
    R5        2.55571   0.05192   0.00000   0.08440   0.08437   2.64008
    R6        2.61729   0.02951   0.00000   0.05288   0.05261   2.66990
    R7        2.00757   0.03224   0.00000   0.07639   0.07639   2.08395
    R8        2.00925   0.03360   0.00000   0.07983   0.07983   2.08908
    R9        2.58546   0.05147   0.00000   0.09566   0.09555   2.68101
    A1        1.85424  -0.01979   0.00000  -0.05597  -0.05541   1.79884
    A2        2.29754   0.00090   0.00000   0.01612   0.01629   2.31382
    A3        2.13851  -0.00525   0.00000  -0.01464  -0.01447   2.12404
    A4        1.84714   0.00435   0.00000  -0.00148  -0.00182   1.84533
    A5        1.91516   0.01297   0.00000   0.03997   0.04011   1.95526
    A6        2.12212  -0.00629   0.00000  -0.01902  -0.01908   2.10303
    A7        2.24591  -0.00668   0.00000  -0.02095  -0.02102   2.22489
    A8        2.20116  -0.00041   0.00000  -0.00525  -0.00527   2.19590
    A9        1.93981   0.00491   0.00000   0.03099   0.03103   1.97084
   A10        2.14222  -0.00451   0.00000  -0.02575  -0.02576   2.11645
   A11        2.20343  -0.00069   0.00000  -0.00282  -0.00262   2.20081
   A12        2.21133   0.00314   0.00000   0.01633   0.01653   2.22786
   A13        1.86843  -0.00244   0.00000  -0.01351  -0.01391   1.85452
    D1        0.00000   0.00000   0.00000   0.00000   0.00000   0.00000
    D2        3.14159   0.00000   0.00000   0.00000   0.00000   3.14159
    D3        3.14159   0.00000   0.00000   0.00000   0.00000   3.14159
    D4        0.00000   0.00000   0.00000   0.00000   0.00000   0.00000
    D5        3.14159   0.00000   0.00000   0.00000   0.00000   3.14159
    D6        0.00000   0.00000   0.00000   0.00000   0.00000   0.00000
    D7        0.00000   0.00000   0.00000   0.00000   0.00000   0.00000
    D8        3.14159   0.00000   0.00000   0.00000   0.00000   3.14159
    D9        0.00000   0.00000   0.00000   0.00000   0.00000   0.00000
   D10        3.14159   0.00000   0.00000   0.00000   0.00000   3.14159
   D11        3.14159   0.00000   0.00000   0.00000   0.00000   3.14159
   D12        0.00000   0.00000   0.00000   0.00000   0.00000   0.00000
   D13        3.14159   0.00000   0.00000   0.00000   0.00000   3.14159
   D14        0.00000   0.00000   0.00000   0.00000   0.00000   0.00000
   D15        0.00000   0.00000   0.00000   0.00000   0.00000   0.00000
   D16        3.14159   0.00000   0.00000   0.00000   0.00000   3.14159
         Item               Value     Threshold  Converged?
 Maximum Force            0.080643     0.000450     NO 
 RMS     Force            0.023904     0.000300     NO 
 Maximum Displacement     0.170871     0.001800     NO 
 RMS     Displacement     0.055006     0.001200     NO 
 Predicted change in Energy=-2.149174D-02
 GradGradGradGradGradGradGradGradGradGradGradGradGradGradGradGradGradGrad

 Leave Link  103 at Mon Aug 30 17:15:13 2004, MaxMem=   56000000 cpu:       0.0
 (Enter C:\G03W\l202.exe)
                          Input orientation:                          
 ---------------------------------------------------------------------
 Center     Atomic     Atomic              Coordinates (Angstroms)
 Number     Number      Type              X           Y           Z
 ---------------------------------------------------------------------
    1          7             0       -0.786723   -1.046058    0.000000
    2          1             0        0.012252    2.187699    0.000000
    3          6             0        1.141107    0.292229    0.000000
    4          1             0        2.164289    0.701850    0.000000
    5          6             0        0.646047   -1.014185    0.000000
    6          1             0        1.226663   -1.951741    0.000000
    7          1             0       -2.152759    0.678059    0.000000
    8          6             0       -1.124015    0.273334    0.000000
    9          7             0        0.005135    1.132294    0.000000
 ---------------------------------------------------------------------
                    Distance matrix (angstroms):
                    1          2          3          4          5
     1  N    0.000000
     2  H    3.330998   0.000000
     3  C    2.346815   2.206156   0.000000
     4  H    3.429818   2.615150   1.102130   0.000000
     5  C    1.433125   3.264010   1.397069   2.291252   0.000000
     6  H    2.207709   4.313903   2.245600   2.814372   1.102780
     7  H    2.199690   2.639372   3.316386   4.317113   3.270628
     8  C    1.361823   2.226184   2.265201   3.316107   2.188796
     9  N    2.317813   1.055430   1.412849   2.201642   2.240121
                    6          7          8          9
     6  H    0.000000
     7  H    4.282095   0.000000
     8  C    3.236764   1.105494   0.000000
     9  N    3.317137   2.205183   1.418728   0.000000
 Stoichiometry    C3H4N2
 Framework group  CS[SG(C3H4N2)]
 Deg. of freedom    15
 Full point group                 CS      NOp   2
 Largest Abelian subgroup         CS      NOp   2
 Largest concise Abelian subgroup C1      NOp   1
                         Standard orientation:                         
 ---------------------------------------------------------------------
 Center     Atomic     Atomic              Coordinates (Angstroms)
 Number     Number      Type              X           Y           Z
 ---------------------------------------------------------------------
    1          7             0       -0.769275   -1.040957    0.000000
    2          1             0       -0.003804    2.200895    0.000000
    3          6             0        1.144604    0.317206    0.000000
    4          1             0        2.163492    0.737393    0.000000
    5          6             0        0.663088   -0.994260    0.000000
    6          1             0        1.253373   -1.925758    0.000000
    7          1             0       -2.153078    0.668934    0.000000
    8          6             0       -1.120201    0.274875    0.000000
    9          7             0        0.000000    1.145472    0.000000
 ---------------------------------------------------------------------
 Rotational constants (GHZ):      9.3043533      8.7018522      4.4965113
 Leave Link  202 at Mon Aug 30 17:15:14 2004, MaxMem=   56000000 cpu:       0.0
 (Enter C:\G03W\l301.exe)
 Standard basis: STO-3G (5D, 7F)
 There are    24 symmetry adapted basis functions of A'  symmetry.
 There are     5 symmetry adapted basis functions of A"  symmetry.
 Integral buffers will be    262144 words long.
 Raffenetti 2 integral format.
 Two-electron integral symmetry is turned on.
    29 basis functions,    87 primitive gaussians,    29 cartesian basis functions
    18 alpha electrons       18 beta electrons
       nuclear repulsion energy       158.1928622912 Hartrees.
 IExCor=1009 DFT=T Ex=PBE Corr=PBE ExCW=0 ScaHFX=  0.000000
 ScaDFX=  1.000000  1.000000  1.000000  1.000000
 IRadAn=      0 IRanWt=     -1 IRanGd=            0 ICorTp=0
 NAtoms=    9 NActive=    9 NUniq=    9 SFac= 1.00D+00 NAtFMM=   60 Big=F
 Leave Link  301 at Mon Aug 30 17:15:15 2004, MaxMem=   56000000 cpu:       0.0
 (Enter C:\G03W\l302.exe)
 NPDir=0 NMtPBC=     1 NCelOv=     1 NCel=       1 NClECP=     1 NCelD=      1
         NCelK=      1 NCelE2=     1 NClLst=     1 CellRange=     0.0.
 One-electron integrals computed using PRISM.
 NBasis=    29 RedAO= T  NBF=    24     5
 NBsUse=    29 1.00D-06 NBFU=    24     5
 Precomputing XC quadrature grid using
 IXCGrd= 2 IRadAn=           0 IRanWt=          -1 IRanGd=           0.
 NRdTot=     555 NPtTot=       69836 NUsed=       72353 NTot=       72369
 NSgBfM=    29    29    29    29.
 Leave Link  302 at Mon Aug 30 17:15:17 2004, MaxMem=   56000000 cpu:       1.0
 (Enter C:\G03W\l303.exe)
 DipDrv:  MaxL=1.
 Leave Link  303 at Mon Aug 30 17:15:17 2004, MaxMem=   56000000 cpu:       0.0
 (Enter C:\G03W\l401.exe)
 Initial guess read from the read-write file:
 Guess basis will be translated and rotated to current coordinates.
 Initial guess orbital symmetries:
       Occupied  (A') (A') (A') (A') (A') (A') (A') (A') (A') (A')
                 (A') (A') (A') (A") (A') (A") (A") (A')
       Virtual   (A") (A") (A') (A') (A') (A') (A') (A') (A') (A')
                 (A')
 The electronic state of the initial guess is 1-A'.
 Generating alternative initial guess.
 Harris functional with IExCor= 1009 diagonalized for initial guess.
 ExpMin= 1.69D-01 ExpMax= 9.91D+01 ExpMxC= 9.91D+01 IAcc=1 IRadAn=         1 AccDes= 1.00D-06
 HarFok:  IExCor=1009 AccDes= 1.00D-06 IRadAn=         1 IDoV=1
 ScaDFX=  1.000000  1.000000  1.000000  1.000000
 Harris En= -223.189961627982    
 Leave Link  401 at Mon Aug 30 17:15:19 2004, MaxMem=   56000000 cpu:       1.0
 (Enter C:\G03W\l502.exe)
 Closed shell SCF:
 Requested convergence on RMS density matrix=1.00D-08 within 128 cycles.
 Requested convergence on MAX density matrix=1.00D-06.
 Requested convergence on             energy=1.00D-06.
 No special actions if energy rises.
 Using DIIS extrapolation, IDIIS=  1040.
 Integral symmetry usage will be decided dynamically.
        72352 words used for storage of precomputed grid.
 Keep R1 integrals in memory in canonical form, NReq=      600413.
 IEnd=     92518 IEndB=     92518 NGot=  56000000 MDV=  55830149
 LenX=  55830149
 Symmetry not used in FoFDir.
 MinBra= 0 MaxBra= 1 Meth= 1.
 IRaf=       0 NMat=   1 IRICut=       1 DoRegI=T DoRafI=F ISym2E= 0 JSym2E=0.
 Integral accuracy reduced to 1.0D-05 until final iterations.

 Cycle   1  Pass 0  IDiag  1:
 E= -223.080628388888    
 DIIS: error= 9.51D-03 at cycle   1 NSaved=   1.
 NSaved= 1 IEnMin= 1 EnMin= -223.080628388888     IErMin= 1 ErrMin= 9.51D-03
 ErrMax= 9.51D-03 EMaxC= 1.00D-01 BMatC= 2.12D-03 BMatP= 2.12D-03
 IDIUse=3 WtCom= 9.05D-01 WtEn= 9.51D-02
 Coeff-Com:  0.100D+01
 Coeff-En:   0.100D+01
 Coeff:      0.100D+01
 Gap=     0.205 Goal=   None    Shift=    0.000
 GapD=    0.205 DampG=1.000 DampE=1.000 DampFc=1.0000 IDamp=-1.
 RMSDP=4.81D-03 MaxDP=5.21D-02              OVMax= 0.00D+00

 Cycle   2  Pass 0  IDiag  1:
 E= -223.083536279943     Delta-E=       -0.002907891055 Rises=F Damp=F
 DIIS: error= 2.55D-03 at cycle   2 NSaved=   2.
 NSaved= 2 IEnMin= 2 EnMin= -223.083536279943     IErMin= 2 ErrMin= 2.55D-03
 ErrMax= 2.55D-03 EMaxC= 1.00D-01 BMatC= 3.15D-04 BMatP= 2.12D-03
 IDIUse=3 WtCom= 9.75D-01 WtEn= 2.55D-02
 Coeff-Com:  0.189D+00 0.811D+00
 Coeff-En:   0.000D+00 0.100D+01
 Coeff:      0.184D+00 0.816D+00
 Gap=     0.201 Goal=   None    Shift=    0.000
 RMSDP=1.90D-03 MaxDP=2.17D-02 DE=-2.91D-03 OVMax= 0.00D+00

 Cycle   3  Pass 0  IDiag  1:
 E= -223.083097955687     Delta-E=        0.000438324256 Rises=F Damp=F
 DIIS: error= 4.49D-03 at cycle   3 NSaved=   3.
 NSaved= 3 IEnMin= 2 EnMin= -223.083536279943     IErMin= 2 ErrMin= 2.55D-03
 ErrMax= 4.49D-03 EMaxC= 1.00D-01 BMatC= 6.76D-04 BMatP= 3.15D-04
 IDIUse=3 WtCom= 1.30D-01 WtEn= 8.70D-01
 Coeff-Com:  0.366D-01 0.585D+00 0.378D+00
 Coeff-En:   0.000D+00 0.644D+00 0.356D+00
 Coeff:      0.475D-02 0.636D+00 0.359D+00
 Gap=     0.206 Goal=   None    Shift=    0.000
 RMSDP=1.20D-03 MaxDP=1.37D-02 DE= 4.38D-04 OVMax= 0.00D+00

 Cycle   4  Pass 0  IDiag  1:
 E= -223.083891707589     Delta-E=       -0.000793751902 Rises=F Damp=F
 DIIS: error= 1.01D-03 at cycle   4 NSaved=   4.
 NSaved= 4 IEnMin= 4 EnMin= -223.083891707589     IErMin= 4 ErrMin= 1.01D-03
 ErrMax= 1.01D-03 EMaxC= 1.00D-01 BMatC= 3.13D-05 BMatP= 3.15D-04
 IDIUse=3 WtCom= 9.90D-01 WtEn= 1.01D-02
 Coeff-Com:  0.103D-01 0.349D+00 0.217D+00 0.424D+00
 Coeff-En:   0.000D+00 0.000D+00 0.000D+00 0.100D+01
 Coeff:      0.102D-01 0.345D+00 0.215D+00 0.430D+00
 Gap=     0.205 Goal=   None    Shift=    0.000
 RMSDP=3.26D-04 MaxDP=3.72D-03 DE=-7.94D-04 OVMax= 0.00D+00

 Cycle   5  Pass 0  IDiag  1:
 E= -223.083930684785     Delta-E=       -0.000038977197 Rises=F Damp=F
 DIIS: error= 3.69D-04 at cycle   5 NSaved=   5.
 NSaved= 5 IEnMin= 5 EnMin= -223.083930684785     IErMin= 5 ErrMin= 3.69D-04
 ErrMax= 3.69D-04 EMaxC= 1.00D-01 BMatC= 4.05D-06 BMatP= 3.13D-05
 IDIUse=3 WtCom= 9.96D-01 WtEn= 3.69D-03
 Coeff-Com:  0.368D-02 0.180D+00 0.111D+00 0.295D+00 0.410D+00
 Coeff-En:   0.000D+00 0.000D+00 0.000D+00 0.508D-01 0.949D+00
 Coeff:      0.367D-02 0.180D+00 0.111D+00 0.294D+00 0.412D+00
 Gap=     0.205 Goal=   None    Shift=    0.000
 RMSDP=8.44D-05 MaxDP=8.73D-04 DE=-3.90D-05 OVMax= 0.00D+00

 Cycle   6  Pass 0  IDiag  1:
 E= -223.083935668035     Delta-E=       -0.000004983250 Rises=F Damp=F
 DIIS: error= 1.42D-05 at cycle   6 NSaved=   6.
 NSaved= 6 IEnMin= 6 EnMin= -223.083935668035     IErMin= 6 ErrMin= 1.42D-05
 ErrMax= 1.42D-05 EMaxC= 1.00D-01 BMatC= 6.27D-09 BMatP= 4.05D-06
 IDIUse=1 WtCom= 1.00D+00 WtEn= 0.00D+00
 Coeff-Com:  0.521D-03 0.295D-01 0.171D-01 0.561D-01 0.688D-01 0.828D+00
 Coeff:      0.521D-03 0.295D-01 0.171D-01 0.561D-01 0.688D-01 0.828D+00
 Gap=     0.205 Goal=   None    Shift=    0.000
 RMSDP=5.99D-06 MaxDP=6.84D-05 DE=-4.98D-06 OVMax= 0.00D+00

 Initial convergence to 1.0D-05 achieved.  Increase integral accuracy.
 Cycle   7  Pass 1  IDiag  1:
 E= -223.083955590350     Delta-E=       -0.000019922314 Rises=F Damp=F
 DIIS: error= 1.20D-05 at cycle   1 NSaved=   1.
 NSaved= 1 IEnMin= 1 EnMin= -223.083955590350     IErMin= 1 ErrMin= 1.20D-05
 ErrMax= 1.20D-05 EMaxC= 1.00D-01 BMatC= 3.84D-09 BMatP= 3.84D-09
 IDIUse=1 WtCom= 1.00D+00 WtEn= 0.00D+00
 Coeff-Com:  0.100D+01
 Coeff:      0.100D+01
 Gap=     0.205 Goal=   None    Shift=    0.000
 RMSDP=5.99D-06 MaxDP=6.84D-05 DE=-1.99D-05 OVMax= 0.00D+00

 Cycle   8  Pass 1  IDiag  1:
 E= -223.083955572286     Delta-E=        0.000000018063 Rises=F Damp=F
 DIIS: error= 2.62D-05 at cycle   2 NSaved=   2.
 NSaved= 2 IEnMin= 1 EnMin= -223.083955590350     IErMin= 1 ErrMin= 1.20D-05
 ErrMax= 2.62D-05 EMaxC= 1.00D-01 BMatC= 1.87D-08 BMatP= 3.84D-09
 IDIUse=1 WtCom= 1.00D+00 WtEn= 0.00D+00
 Coeff-Com:  0.690D+00 0.310D+00
 Coeff:      0.690D+00 0.310D+00
 Gap=     0.205 Goal=   None    Shift=    0.000
 RMSDP=6.00D-06 MaxDP=7.56D-05 DE= 1.81D-08 OVMax= 0.00D+00

 Cycle   9  Pass 1  IDiag  1:
 E= -223.083955595076     Delta-E=       -0.000000022790 Rises=F Damp=F
 DIIS: error= 2.33D-06 at cycle   3 NSaved=   3.
 NSaved= 3 IEnMin= 3 EnMin= -223.083955595076     IErMin= 3 ErrMin= 2.33D-06
 ErrMax= 2.33D-06 EMaxC= 1.00D-01 BMatC= 8.83D-11 BMatP= 3.84D-09
 IDIUse=1 WtCom= 1.00D+00 WtEn= 0.00D+00
 Coeff-Com:  0.312D+00 0.151D+00 0.537D+00
 Coeff:      0.312D+00 0.151D+00 0.537D+00
 Gap=     0.205 Goal=   None    Shift=    0.000
 RMSDP=7.56D-07 MaxDP=1.13D-05 DE=-2.28D-08 OVMax= 0.00D+00

 Cycle  10  Pass 1  IDiag  1:
 E= -223.083955595147     Delta-E=       -0.000000000071 Rises=F Damp=F
 DIIS: error= 1.48D-06 at cycle   4 NSaved=   4.
 NSaved= 4 IEnMin= 4 EnMin= -223.083955595147     IErMin= 4 ErrMin= 1.48D-06
 ErrMax= 1.48D-06 EMaxC= 1.00D-01 BMatC= 3.83D-11 BMatP= 8.83D-11
 IDIUse=1 WtCom= 1.00D+00 WtEn= 0.00D+00
 Coeff-Com:  0.372D-01 0.241D-01 0.400D+00 0.538D+00
 Coeff:      0.372D-01 0.241D-01 0.400D+00 0.538D+00
 Gap=     0.205 Goal=   None    Shift=    0.000
 RMSDP=3.28D-07 MaxDP=4.35D-06 DE=-7.12D-11 OVMax= 0.00D+00

 Cycle  11  Pass 1  IDiag  1:
 E= -223.083955595198     Delta-E=       -0.000000000051 Rises=F Damp=F
 DIIS: error= 2.94D-07 at cycle   5 NSaved=   5.
 NSaved= 5 IEnMin= 5 EnMin= -223.083955595198     IErMin= 5 ErrMin= 2.94D-07
 ErrMax= 2.94D-07 EMaxC= 1.00D-01 BMatC= 2.42D-12 BMatP= 3.83D-11
 IDIUse=1 WtCom= 1.00D+00 WtEn= 0.00D+00
 Coeff-Com:  0.117D-01 0.964D-02 0.243D+00 0.355D+00 0.381D+00
 Coeff:      0.117D-01 0.964D-02 0.243D+00 0.355D+00 0.381D+00
 Gap=     0.205 Goal=   None    Shift=    0.000
 RMSDP=9.34D-08 MaxDP=8.50D-07 DE=-5.10D-11 OVMax= 0.00D+00

 Cycle  12  Pass 1  IDiag  1:
 E= -223.083955595202     Delta-E=       -0.000000000004 Rises=F Damp=F
 DIIS: error= 1.32D-07 at cycle   6 NSaved=   6.
 NSaved= 6 IEnMin= 6 EnMin= -223.083955595202     IErMin= 6 ErrMin= 1.32D-07
 ErrMax= 1.32D-07 EMaxC= 1.00D-01 BMatC= 3.28D-13 BMatP= 2.42D-12
 IDIUse=1 WtCom= 1.00D+00 WtEn= 0.00D+00
 Coeff-Com:  0.173D-02 0.226D-02 0.913D-01 0.142D+00 0.274D+00 0.489D+00
 Coeff:      0.173D-02 0.226D-02 0.913D-01 0.142D+00 0.274D+00 0.489D+00
 Gap=     0.205 Goal=   None    Shift=    0.000
 RMSDP=2.98D-08 MaxDP=2.70D-07 DE=-3.75D-12 OVMax= 0.00D+00

 Cycle  13  Pass 1  IDiag  1:
 E= -223.083955595203     Delta-E=       -0.000000000001 Rises=F Damp=F
 DIIS: error= 8.39D-09 at cycle   7 NSaved=   7.
 NSaved= 7 IEnMin= 7 EnMin= -223.083955595203     IErMin= 7 ErrMin= 8.39D-09
 ErrMax= 8.39D-09 EMaxC= 1.00D-01 BMatC= 2.32D-15 BMatP= 3.28D-13
 IDIUse=1 WtCom= 1.00D+00 WtEn= 0.00D+00
 Coeff-Com:  0.206D-03 0.451D-03 0.250D-01 0.398D-01 0.850D-01 0.181D+00
 Coeff-Com:  0.669D+00
 Coeff:      0.206D-03 0.451D-03 0.250D-01 0.398D-01 0.850D-01 0.181D+00
 Coeff:      0.669D+00
 Gap=     0.205 Goal=   None    Shift=    0.000
 RMSDP=3.26D-09 MaxDP=3.16D-08 DE=-6.82D-13 OVMax= 0.00D+00

 SCF Done:  E(RPBE-PBE) =  -223.083955595     A.U. after   13 cycles
             Convg  =    0.3262D-08             -V/T =  2.0174
             S**2   =   0.0000
 KE= 2.192611104669D+02 PE=-8.352067953854D+02 EE= 2.346688670321D+02
 Leave Link  502 at Mon Aug 30 17:15:24 2004, MaxMem=   56000000 cpu:       4.0
 (Enter C:\G03W\l701.exe)
 Compute integral first derivatives.
 ... and contract with generalized density number  0.
 Leave Link  701 at Mon Aug 30 17:15:25 2004, MaxMem=   56000000 cpu:       0.0
 (Enter C:\G03W\l702.exe)
 L702 exits ... SP integral derivatives will be done elsewhere.
 Leave Link  702 at Mon Aug 30 17:15:26 2004, MaxMem=   56000000 cpu:       0.0
 (Enter C:\G03W\l703.exe)
 Compute integral first derivatives, UseDBF=F.
 Integral derivatives from FoFDir, PRISM(SPDF).
 Calling FoFCou, ICntrl=  2527 FMM=F ISym2X=1 I1Cent= 0 ISCF1= 0.
 FoFCou: FMM=F IPFlag=           0 FMFlag=           0 FMFlg1=           0
 NFxFlg=           0 DoJE=F BraDBF=F KetDBF=F FulRan=T.
 Petite list used in FoFCou.
 Leave Link  703 at Mon Aug 30 17:15:28 2004, MaxMem=   56000000 cpu:       1.0
 (Enter C:\G03W\l716.exe)
 Dipole        = 4.04518912D-01 1.34964678D+00 0.00000000D+00
 ***** Axes restored to original set *****
 -------------------------------------------------------------------
 Center     Atomic                   Forces (Hartrees/Bohr)
 Number     Number              X              Y              Z
 -------------------------------------------------------------------
    1          7          -0.000778951   -0.007830506    0.000000000
    2          1          -0.000173763   -0.003123310    0.000000000
    3          6           0.003826023   -0.007614232    0.000000000
    4          1          -0.002091616   -0.000105477    0.000000000
    5          6           0.006009111    0.007786627    0.000000000
    6          1          -0.000486250    0.001659969    0.000000000
    7          1           0.002148385   -0.000273911    0.000000000
    8          6          -0.004369140    0.012650681    0.000000000
    9          7          -0.004083799   -0.003149841    0.000000000
 -------------------------------------------------------------------
 Cartesian Forces:  Max     0.012650681 RMS     0.004122483
 Leave Link  716 at Mon Aug 30 17:15:29 2004, MaxMem=   56000000 cpu:       0.0
 (Enter C:\G03W\l103.exe)

 GradGradGradGradGradGradGradGradGradGradGradGradGradGradGradGradGradGrad
 Berny optimization.
 Internal  Forces:  Max     0.008030236 RMS     0.002454050
 Search for a local minimum.
 Step number   2 out of a maximum of  48
 All quantities printed in internal units (Hartrees-Bohrs-Radians)
 Update second derivatives using D2CorX and points  1  2
 Trust test= 8.67D-01 RLast= 2.78D-01 DXMaxT set to 4.24D-01
     Eigenvalues ---    0.01999   0.02161   0.02233   0.02413   0.02467
     Eigenvalues ---    0.02548   0.15986   0.16000   0.16000   0.16009
     Eigenvalues ---    0.21934   0.23236   0.38118   0.38184   0.39324
     Eigenvalues ---    0.42543   0.46168   0.47664   0.49385   0.57577
     Eigenvalues ---    0.629841000.000001000.000001000.000001000.00000
     Eigenvalues --- 1000.000001000.000001000.000001000.000001000.00000
     Eigenvalues --- 1000.000001000.000001000.000001000.000001000.00000
     Eigenvalues --- 1000.000001000.000001000.00000
 RFO step:  Lambda=-5.00191860D-04.
 Quartic linear search produced a step of -0.01945.
 Iteration  1 RMS(Cart)=  0.00722012 RMS(Int)=  0.00002543
 Iteration  2 RMS(Cart)=  0.00002916 RMS(Int)=  0.00000881
 Iteration  3 RMS(Cart)=  0.00000000 RMS(Int)=  0.00000881
 Variable       Old X    -DE/DX   Delta X   Delta X   Delta X     New X
                                 (Linear)    (Quad)   (Total)
    R1        2.70821   0.00431  -0.00145   0.01176   0.01030   2.71851
    R2        2.57347   0.00717  -0.00228   0.01515   0.01286   2.58634
    R3        1.99447  -0.00312  -0.00225  -0.00265  -0.00490   1.98958
    R4        2.08272  -0.00198  -0.00144  -0.00278  -0.00423   2.07850
    R5        2.64008  -0.00803  -0.00164  -0.01272  -0.01436   2.62571
    R6        2.66990   0.00216  -0.00102   0.00493   0.00392   2.67382
    R7        2.08395  -0.00167  -0.00149  -0.00190  -0.00339   2.08057
    R8        2.08908  -0.00210  -0.00155  -0.00291  -0.00447   2.08461
    R9        2.68101  -0.00458  -0.00186  -0.00529  -0.00713   2.67388
    A1        1.79884  -0.00129   0.00108  -0.00211  -0.00105   1.79778
    A2        2.31382   0.00099  -0.00032   0.00850   0.00818   2.32201
    A3        2.12404  -0.00042   0.00028  -0.00098  -0.00070   2.12334
    A4        1.84533  -0.00056   0.00004  -0.00752  -0.00748   1.83784
    A5        1.95526   0.00168  -0.00078   0.00695   0.00615   1.96142
    A6        2.10303  -0.00036   0.00037  -0.00054  -0.00016   2.10287
    A7        2.22489  -0.00131   0.00041  -0.00641  -0.00599   2.21890
    A8        2.19590   0.00233   0.00010   0.00951   0.00961   2.20550
    A9        1.97084  -0.00354  -0.00060  -0.01160  -0.01219   1.95865
   A10        2.11645   0.00121   0.00050   0.00209   0.00258   2.11903
   A11        2.20081  -0.00171   0.00005  -0.00651  -0.00647   2.19434
   A12        2.22786  -0.00201  -0.00032  -0.00777  -0.00811   2.21976
   A13        1.85452   0.00371   0.00027   0.01428   0.01457   1.86909
    D1        0.00000   0.00000   0.00000   0.00000   0.00000   0.00000
    D2        3.14159   0.00000   0.00000   0.00000   0.00000   3.14159
    D3        3.14159   0.00000   0.00000   0.00000   0.00000   3.14159
    D4        0.00000   0.00000   0.00000   0.00000   0.00000   0.00000
    D5        3.14159   0.00000   0.00000   0.00000   0.00000   3.14159
    D6        0.00000   0.00000   0.00000   0.00000   0.00000   0.00000
    D7        0.00000   0.00000   0.00000   0.00000   0.00000   0.00000
    D8        3.14159   0.00000   0.00000   0.00000   0.00000   3.14159
    D9        0.00000   0.00000   0.00000   0.00000   0.00000   0.00000
   D10        3.14159   0.00000   0.00000   0.00000   0.00000   3.14159
   D11        3.14159   0.00000   0.00000   0.00000   0.00000   3.14159
   D12        0.00000   0.00000   0.00000   0.00000   0.00000   0.00000
   D13        3.14159   0.00000   0.00000   0.00000   0.00000   3.14159
   D14        0.00000   0.00000   0.00000   0.00000   0.00000   0.00000
   D15        0.00000   0.00000   0.00000   0.00000   0.00000   0.00000
   D16        3.14159   0.00000   0.00000   0.00000   0.00000   3.14159
         Item               Value     Threshold  Converged?
 Maximum Force            0.008030     0.000450     NO 
 RMS     Force            0.002454     0.000300     NO 
 Maximum Displacement     0.021800     0.001800     NO 
 RMS     Displacement     0.007219     0.001200     NO 
 Predicted change in Energy=-2.565504D-04
 GradGradGradGradGradGradGradGradGradGradGradGradGradGradGradGradGradGrad

 Leave Link  103 at Mon Aug 30 17:15:30 2004, MaxMem=   56000000 cpu:       0.0
 (Enter C:\G03W\l202.exe)
                          Input orientation:                          
 ---------------------------------------------------------------------
 Center     Atomic     Atomic              Coordinates (Angstroms)
 Number     Number      Type              X           Y           Z
 ---------------------------------------------------------------------
    1          7             0       -0.788536   -1.047606    0.000000
    2          1             0        0.011898    2.176163    0.000000
    3          6             0        1.145122    0.287780    0.000000
    4          1             0        2.163874    0.702404    0.000000
    5          6             0        0.649555   -1.010308    0.000000
    6          1             0        1.232524   -1.944290    0.000000
    7          1             0       -2.154709    0.688493    0.000000
    8          6             0       -1.131006    0.277484    0.000000
    9          7             0        0.003273    1.123360    0.000000
 ---------------------------------------------------------------------
                    Distance matrix (angstroms):
                    1          2          3          4          5
     1  N    0.000000
     2  H    3.321653   0.000000
     3  C    2.349955   2.202314   0.000000
     4  H    3.432092   2.608249   1.099894   0.000000
     5  C    1.438574   3.249647   1.389467   2.286163   0.000000
     6  H    2.211046   4.297449   2.233781   2.805780   1.100989
     7  H    2.209178   2.628184   3.324072   4.318605   3.278692
     8  C    1.368631   2.216126   2.276152   3.322167   2.197455
     9  N    2.310856   1.052839   1.414925   2.201227   2.229399
                    6          7          8          9
     6  H    0.000000
     7  H    4.290093   0.000000
     8  C    3.243849   1.103130   0.000000
     9  N    3.304775   2.201363   1.414954   0.000000
 Stoichiometry    C3H4N2
 Framework group  CS[SG(C3H4N2)]
 Deg. of freedom    15
 Full point group                 CS      NOp   2
 Largest Abelian subgroup         CS      NOp   2
 Largest concise Abelian subgroup C1      NOp   1
                         Standard orientation:                         
 ---------------------------------------------------------------------
 Center     Atomic     Atomic              Coordinates (Angstroms)
 Number     Number      Type              X           Y           Z
 ---------------------------------------------------------------------
    1          7             0       -0.771684   -1.040425    0.000000
    2          1             0       -0.001118    2.190614    0.000000
    3          6             0        1.149533    0.312799    0.000000
    4          1             0        2.164404    0.736833    0.000000
    5          6             0        0.666000   -0.989820    0.000000
    6          1             0        1.257588   -1.918367    0.000000
    7          1             0       -2.153866    0.682956    0.000000
    8          6             0       -1.126403    0.281439    0.000000
    9          7             0        0.000000    1.137776    0.000000
 ---------------------------------------------------------------------
 Rotational constants (GHZ):      9.2526942      8.7466346      4.4962752
 Leave Link  202 at Mon Aug 30 17:15:31 2004, MaxMem=   56000000 cpu:       0.0
 (Enter C:\G03W\l301.exe)
 Standard basis: STO-3G (5D, 7F)
 There are    24 symmetry adapted basis functions of A'  symmetry.
 There are     5 symmetry adapted basis functions of A"  symmetry.
 Integral buffers will be    262144 words long.
 Raffenetti 2 integral format.
 Two-electron integral symmetry is turned on.
    29 basis functions,    87 primitive gaussians,    29 cartesian basis functions
    18 alpha electrons       18 beta electrons
       nuclear repulsion energy       158.1831366681 Hartrees.
 IExCor=1009 DFT=T Ex=PBE Corr=PBE ExCW=0 ScaHFX=  0.000000
 ScaDFX=  1.000000  1.000000  1.000000  1.000000
 IRadAn=      0 IRanWt=     -1 IRanGd=            0 ICorTp=0
 NAtoms=    9 NActive=    9 NUniq=    9 SFac= 1.00D+00 NAtFMM=   60 Big=F
 Leave Link  301 at Mon Aug 30 17:15:32 2004, MaxMem=   56000000 cpu:       0.0
 (Enter C:\G03W\l302.exe)
 NPDir=0 NMtPBC=     1 NCelOv=     1 NCel=       1 NClECP=     1 NCelD=      1
         NCelK=      1 NCelE2=     1 NClLst=     1 CellRange=     0.0.
 One-electron integrals computed using PRISM.
 NBasis=    29 RedAO= T  NBF=    24     5
 NBsUse=    29 1.00D-06 NBFU=    24     5
 Precomputing XC quadrature grid using
 IXCGrd= 2 IRadAn=           0 IRanWt=          -1 IRanGd=           0.
 NRdTot=     555 NPtTot=       69836 NUsed=       72353 NTot=       72369
 NSgBfM=    29    29    29    29.
 Leave Link  302 at Mon Aug 30 17:15:33 2004, MaxMem=   56000000 cpu:       0.0
 (Enter C:\G03W\l303.exe)
 DipDrv:  MaxL=1.
 Leave Link  303 at Mon Aug 30 17:15:34 2004, MaxMem=   56000000 cpu:       0.0
 (Enter C:\G03W\l401.exe)
 Initial guess read from the read-write file:
 Guess basis will be translated and rotated to current coordinates.
 Initial guess orbital symmetries:
       Occupied  (A') (A') (A') (A') (A') (A') (A') (A') (A') (A')
                 (A') (A') (A') (A") (A') (A") (A") (A')
       Virtual   (A") (A") (A') (A') (A') (A') (A') (A') (A') (A')
                 (A')
 The electronic state of the initial guess is 1-A'.
 Generating alternative initial guess.
 Harris functional with IExCor= 1009 diagonalized for initial guess.
 ExpMin= 1.69D-01 ExpMax= 9.91D+01 ExpMxC= 9.91D+01 IAcc=1 IRadAn=         1 AccDes= 1.00D-06
 HarFok:  IExCor=1009 AccDes= 1.00D-06 IRadAn=         1 IDoV=1
 ScaDFX=  1.000000  1.000000  1.000000  1.000000
 Harris En= -223.190337153948    
 Leave Link  401 at Mon Aug 30 17:15:35 2004, MaxMem=   56000000 cpu:       0.0
 (Enter C:\G03W\l502.exe)
 Closed shell SCF:
 Requested convergence on RMS density matrix=1.00D-08 within 128 cycles.
 Requested convergence on MAX density matrix=1.00D-06.
 Requested convergence on             energy=1.00D-06.
 No special actions if energy rises.
 Using DIIS extrapolation, IDIIS=  1040.
 Integral symmetry usage will be decided dynamically.
        72352 words used for storage of precomputed grid.
 Keep R1 integrals in memory in canonical form, NReq=      600413.
 IEnd=     92518 IEndB=     92518 NGot=  56000000 MDV=  55830149
 LenX=  55830149
 Symmetry not used in FoFDir.
 MinBra= 0 MaxBra= 1 Meth= 1.
 IRaf=       0 NMat=   1 IRICut=       1 DoRegI=T DoRafI=F ISym2E= 0 JSym2E=0.
 Integral accuracy reduced to 1.0D-05 until final iterations.

 Cycle   1  Pass 0  IDiag  1:
 E= -223.084138617032    
 DIIS: error= 5.43D-04 at cycle   1 NSaved=   1.
 NSaved= 1 IEnMin= 1 EnMin= -223.084138617032     IErMin= 1 ErrMin= 5.43D-04
 ErrMax= 5.43D-04 EMaxC= 1.00D-01 BMatC= 2.97D-05 BMatP= 2.97D-05
 IDIUse=3 WtCom= 9.95D-01 WtEn= 5.43D-03
 Coeff-Com:  0.100D+01
 Coeff-En:   0.100D+01
 Coeff:      0.100D+01
 Gap=     0.203 Goal=   None    Shift=    0.000
 RMSDP=5.93D-04 MaxDP=3.92D-03              OVMax= 0.00D+00

 Cycle   2  Pass 0  IDiag  1:
 E= -223.084184041228     Delta-E=       -0.000045424196 Rises=F Damp=F
 DIIS: error= 6.22D-04 at cycle   2 NSaved=   2.
 NSaved= 2 IEnMin= 2 EnMin= -223.084184041228     IErMin= 1 ErrMin= 5.43D-04
 ErrMax= 6.22D-04 EMaxC= 1.00D-01 BMatC= 1.12D-05 BMatP= 2.97D-05
 IDIUse=3 WtCom= 9.94D-01 WtEn= 6.22D-03
 Coeff-Com:  0.320D+00 0.680D+00
 Coeff-En:   0.000D+00 0.100D+01
 Coeff:      0.318D+00 0.682D+00
 Gap=     0.205 Goal=   None    Shift=    0.000
 RMSDP=3.57D-04 MaxDP=4.56D-03 DE=-4.54D-05 OVMax= 0.00D+00

 Cycle   3  Pass 0  IDiag  1:
 E= -223.084169739064     Delta-E=        0.000014302164 Rises=F Damp=F
 DIIS: error= 9.21D-04 at cycle   3 NSaved=   3.
 NSaved= 3 IEnMin= 2 EnMin= -223.084184041228     IErMin= 1 ErrMin= 5.43D-04
 ErrMax= 9.21D-04 EMaxC= 1.00D-01 BMatC= 2.22D-05 BMatP= 1.12D-05
 IDIUse=3 WtCom= 2.48D-01 WtEn= 7.52D-01
 Coeff-Com:  0.238D-01 0.576D+00 0.400D+00
 Coeff-En:   0.000D+00 0.621D+00 0.379D+00
 Coeff:      0.591D-02 0.610D+00 0.384D+00
 Gap=     0.204 Goal=   None    Shift=    0.000
 RMSDP=2.03D-04 MaxDP=2.60D-03 DE= 1.43D-05 OVMax= 0.00D+00

 Cycle   4  Pass 0  IDiag  1:
 E= -223.084197413396     Delta-E=       -0.000027674332 Rises=F Damp=F
 DIIS: error= 1.66D-04 at cycle   4 NSaved=   4.
 NSaved= 4 IEnMin= 4 EnMin= -223.084197413396     IErMin= 4 ErrMin= 1.66D-04
 ErrMax= 1.66D-04 EMaxC= 1.00D-01 BMatC= 6.87D-07 BMatP= 1.12D-05
 IDIUse=3 WtCom= 9.98D-01 WtEn= 1.66D-03
 Coeff-Com:  0.657D-02 0.379D+00 0.241D+00 0.373D+00
 Coeff-En:   0.000D+00 0.000D+00 0.000D+00 0.100D+01
 Coeff:      0.656D-02 0.379D+00 0.241D+00 0.374D+00
 Gap=     0.204 Goal=   None    Shift=    0.000
 RMSDP=4.49D-05 MaxDP=3.55D-04 DE=-2.77D-05 OVMax= 0.00D+00

 Cycle   5  Pass 0  IDiag  1:
 E= -223.084198339844     Delta-E=       -0.000000926448 Rises=F Damp=F
 DIIS: error= 1.88D-05 at cycle   5 NSaved=   5.
 NSaved= 5 IEnMin= 5 EnMin= -223.084198339844     IErMin= 5 ErrMin= 1.88D-05
 ErrMax= 1.88D-05 EMaxC= 1.00D-01 BMatC= 1.06D-08 BMatP= 6.87D-07
 IDIUse=1 WtCom= 1.00D+00 WtEn= 0.00D+00
 Coeff-Com:  0.790D-03 0.102D+00 0.653D-01 0.162D+00 0.670D+00
 Coeff:      0.790D-03 0.102D+00 0.653D-01 0.162D+00 0.670D+00
 Gap=     0.204 Goal=   None    Shift=    0.000
 RMSDP=6.38D-06 MaxDP=5.69D-05 DE=-9.26D-07 OVMax= 0.00D+00

 Initial convergence to 1.0D-05 achieved.  Increase integral accuracy.
 Cycle   6  Pass 1  IDiag  1:
 E= -223.084221011306     Delta-E=       -0.000022671462 Rises=F Damp=F
 DIIS: error= 7.20D-06 at cycle   1 NSaved=   1.
 NSaved= 1 IEnMin= 1 EnMin= -223.084221011306     IErMin= 1 ErrMin= 7.20D-06
 ErrMax= 7.20D-06 EMaxC= 1.00D-01 BMatC= 1.33D-09 BMatP= 1.33D-09
 IDIUse=1 WtCom= 1.00D+00 WtEn= 0.00D+00
 Coeff-Com:  0.100D+01
 Coeff:      0.100D+01
 Gap=     0.204 Goal=   None    Shift=    0.000
 RMSDP=6.38D-06 MaxDP=5.69D-05 DE=-2.27D-05 OVMax= 0.00D+00

 Cycle   7  Pass 1  IDiag  1:
 E= -223.084221005768     Delta-E=        0.000000005538 Rises=F Damp=F
 DIIS: error= 1.68D-05 at cycle   2 NSaved=   2.
 NSaved= 2 IEnMin= 1 EnMin= -223.084221011306     IErMin= 1 ErrMin= 7.20D-06
 ErrMax= 1.68D-05 EMaxC= 1.00D-01 BMatC= 5.77D-09 BMatP= 1.33D-09
 IDIUse=1 WtCom= 1.00D+00 WtEn= 0.00D+00
 Coeff-Com:  0.683D+00 0.317D+00
 Coeff:      0.683D+00 0.317D+00
 Gap=     0.204 Goal=   None    Shift=    0.000
 RMSDP=3.65D-06 MaxDP=5.73D-05 DE= 5.54D-09 OVMax= 0.00D+00

 Cycle   8  Pass 1  IDiag  1:
 E= -223.084221013158     Delta-E=       -0.000000007390 Rises=F Damp=F
 DIIS: error= 1.60D-06 at cycle   3 NSaved=   3.
 NSaved= 3 IEnMin= 3 EnMin= -223.084221013158     IErMin= 3 ErrMin= 1.60D-06
 ErrMax= 1.60D-06 EMaxC= 1.00D-01 BMatC= 6.94D-11 BMatP= 1.33D-09
 IDIUse=1 WtCom= 1.00D+00 WtEn= 0.00D+00
 Coeff-Com:  0.262D+00 0.148D+00 0.590D+00
 Coeff:      0.262D+00 0.148D+00 0.590D+00
 Gap=     0.204 Goal=   None    Shift=    0.000
 RMSDP=6.09D-07 MaxDP=6.07D-06 DE=-7.39D-09 OVMax= 0.00D+00

 Cycle   9  Pass 1  IDiag  1:
 E= -223.084221013217     Delta-E=       -0.000000000059 Rises=F Damp=F
 DIIS: error= 1.14D-06 at cycle   4 NSaved=   4.
 NSaved= 4 IEnMin= 4 EnMin= -223.084221013217     IErMin= 4 ErrMin= 1.14D-06
 ErrMax= 1.14D-06 EMaxC= 1.00D-01 BMatC= 3.02D-11 BMatP= 6.94D-11
 IDIUse=1 WtCom= 1.00D+00 WtEn= 0.00D+00
 Coeff-Com:  0.865D-01 0.551D-01 0.403D+00 0.456D+00
 Coeff:      0.865D-01 0.551D-01 0.403D+00 0.456D+00
 Gap=     0.204 Goal=   None    Shift=    0.000
 RMSDP=2.96D-07 MaxDP=3.55D-06 DE=-5.94D-11 OVMax= 0.00D+00

 Cycle  10  Pass 1  IDiag  1:
 E= -223.084221013249     Delta-E=       -0.000000000032 Rises=F Damp=F
 DIIS: error= 3.92D-07 at cycle   5 NSaved=   5.
 NSaved= 5 IEnMin= 5 EnMin= -223.084221013249     IErMin= 5 ErrMin= 3.92D-07
 ErrMax= 3.92D-07 EMaxC= 1.00D-01 BMatC= 3.78D-12 BMatP= 3.02D-11
 IDIUse=1 WtCom= 1.00D+00 WtEn= 0.00D+00
 Coeff-Com:  0.122D-01 0.104D-01 0.174D+00 0.302D+00 0.501D+00
 Coeff:      0.122D-01 0.104D-01 0.174D+00 0.302D+00 0.501D+00
 Gap=     0.204 Goal=   None    Shift=    0.000
 RMSDP=1.17D-07 MaxDP=1.09D-06 DE=-3.17D-11 OVMax= 0.00D+00

 Cycle  11  Pass 1  IDiag  1:
 E= -223.084221013252     Delta-E=       -0.000000000004 Rises=F Damp=F
 DIIS: error= 2.13D-07 at cycle   6 NSaved=   6.
 NSaved= 6 IEnMin= 6 EnMin= -223.084221013252     IErMin= 6 ErrMin= 2.13D-07
 ErrMax= 2.13D-07 EMaxC= 1.00D-01 BMatC= 8.49D-13 BMatP= 3.78D-12
 IDIUse=1 WtCom= 1.00D+00 WtEn= 0.00D+00
 Coeff-Com:  0.140D-02 0.250D-02 0.892D-01 0.177D+00 0.374D+00 0.356D+00
 Coeff:      0.140D-02 0.250D-02 0.892D-01 0.177D+00 0.374D+00 0.356D+00
 Gap=     0.204 Goal=   None    Shift=    0.000
 RMSDP=4.24D-08 MaxDP=5.53D-07 DE=-3.64D-12 OVMax= 0.00D+00

 Cycle  12  Pass 1  IDiag  1:
 E= -223.084221013254     Delta-E=       -0.000000000002 Rises=F Damp=F
 DIIS: error= 5.30D-09 at cycle   7 NSaved=   7.
 NSaved= 7 IEnMin= 7 EnMin= -223.084221013254     IErMin= 7 ErrMin= 5.30D-09
 ErrMax= 5.30D-09 EMaxC= 1.00D-01 BMatC= 7.04D-16 BMatP= 8.49D-13
 IDIUse=1 WtCom= 1.00D+00 WtEn= 0.00D+00
 Coeff-Com:  0.152D-03 0.371D-03 0.182D-01 0.365D-01 0.808D-01 0.845D-01
 Coeff-Com:  0.779D+00
 Coeff:      0.152D-03 0.371D-03 0.182D-01 0.365D-01 0.808D-01 0.845D-01
 Coeff:      0.779D+00
 Gap=     0.204 Goal=   None    Shift=    0.000
 RMSDP=2.55D-09 MaxDP=3.03D-08 DE=-1.93D-12 OVMax= 0.00D+00

 SCF Done:  E(RPBE-PBE) =  -223.084221013     A.U. after   12 cycles
             Convg  =    0.2548D-08             -V/T =  2.0174
             S**2   =   0.0000
 KE= 2.192686699115D+02 PE=-8.351961538692D+02 EE= 2.346601262764D+02
 Leave Link  502 at Mon Aug 30 17:15:41 2004, MaxMem=   56000000 cpu:       5.0
 (Enter C:\G03W\l701.exe)
 Compute integral first derivatives.
 ... and contract with generalized density number  0.
 Leave Link  701 at Mon Aug 30 17:15:42 2004, MaxMem=   56000000 cpu:       1.0
 (Enter C:\G03W\l702.exe)
 L702 exits ... SP integral derivatives will be done elsewhere.
 Leave Link  702 at Mon Aug 30 17:15:42 2004, MaxMem=   56000000 cpu:       0.0
 (Enter C:\G03W\l703.exe)
 Compute integral first derivatives, UseDBF=F.
 Integral derivatives from FoFDir, PRISM(SPDF).
 Calling FoFCou, ICntrl=  2527 FMM=F ISym2X=1 I1Cent= 0 ISCF1= 0.
 FoFCou: FMM=F IPFlag=           0 FMFlag=           0 FMFlg1=           0
 NFxFlg=           0 DoJE=F BraDBF=F KetDBF=F FulRan=T.
 Petite list used in FoFCou.
 Leave Link  703 at Mon Aug 30 17:15:44 2004, MaxMem=   56000000 cpu:       1.0
 (Enter C:\G03W\l716.exe)
 Dipole        = 4.05058660D-01 1.35169903D+00 0.00000000D+00
 ***** Axes restored to original set *****
 -------------------------------------------------------------------
 Center     Atomic                   Forces (Hartrees/Bohr)
 Number     Number              X              Y              Z
 -------------------------------------------------------------------
    1          7          -0.000342100   -0.004178366    0.000000000
    2          1          -0.000047701   -0.000485616    0.000000000
    3          6          -0.000694812   -0.001844318    0.000000000
    4          1          -0.000597707    0.000383934    0.000000000
    5          6           0.000400523    0.001486331    0.000000000
    6          1          -0.000404979    0.000011049    0.000000000
    7          1           0.000429739   -0.000197344    0.000000000
    8          6           0.003169703    0.003828322    0.000000000
    9          7          -0.001912665    0.000996008    0.000000000
 -------------------------------------------------------------------
 Cartesian Forces:  Max     0.004178366 RMS     0.001418313
 Leave Link  716 at Mon Aug 30 17:15:45 2004, MaxMem=   56000000 cpu:       0.0
 (Enter C:\G03W\l103.exe)

 GradGradGradGradGradGradGradGradGradGradGradGradGradGradGradGradGradGrad
 Berny optimization.
 Internal  Forces:  Max     0.002893728 RMS     0.000831194
 Search for a local minimum.
 Step number   3 out of a maximum of  48
 All quantities printed in internal units (Hartrees-Bohrs-Radians)
 Update second derivatives using D2CorX and points  1  2  3
 Trust test= 1.03D+00 RLast= 3.72D-02 DXMaxT set to 4.24D-01
     Eigenvalues ---    0.01998   0.02158   0.02232   0.02415   0.02468
     Eigenvalues ---    0.02546   0.15412   0.16000   0.16007   0.16105
     Eigenvalues ---    0.21724   0.28544   0.37931   0.38126   0.38653
     Eigenvalues ---    0.40256   0.45964   0.46334   0.49547   0.52102
     Eigenvalues ---    0.633571000.000001000.000001000.000001000.00000
     Eigenvalues --- 1000.000001000.000001000.000001000.000001000.00000
     Eigenvalues --- 1000.000001000.000001000.000001000.000001000.00000
     Eigenvalues --- 1000.000001000.000001000.00000
 RFO step:  Lambda=-7.81104949D-05.
 Quartic linear search produced a step of  0.03493.
 Iteration  1 RMS(Cart)=  0.00288122 RMS(Int)=  0.00000560
 Iteration  2 RMS(Cart)=  0.00000627 RMS(Int)=  0.00000196
 Iteration  3 RMS(Cart)=  0.00000000 RMS(Int)=  0.00000196
 Variable       Old X    -DE/DX   Delta X   Delta X   Delta X     New X
                                 (Linear)    (Quad)   (Total)
    R1        2.71851  -0.00042   0.00036   0.00062   0.00099   2.71950
    R2        2.58634   0.00289   0.00045   0.00642   0.00687   2.59321
    R3        1.98958  -0.00049  -0.00017  -0.00142  -0.00159   1.98799
    R4        2.07850  -0.00041  -0.00015  -0.00149  -0.00164   2.07686
    R5        2.62571  -0.00063  -0.00050  -0.00291  -0.00341   2.62230
    R6        2.67382  -0.00013   0.00014   0.00001   0.00014   2.67396
    R7        2.08057  -0.00022  -0.00012  -0.00088  -0.00100   2.07956
    R8        2.08461  -0.00047  -0.00016  -0.00169  -0.00184   2.08277
    R9        2.67388  -0.00252  -0.00025  -0.00579  -0.00604   2.66784
    A1        1.79778  -0.00181  -0.00004  -0.00679  -0.00682   1.79096
    A2        2.32201   0.00014   0.00029   0.00332   0.00361   2.32561
    A3        2.12334  -0.00106  -0.00002  -0.00557  -0.00560   2.11774
    A4        1.83784   0.00092  -0.00026   0.00225   0.00199   1.83983
    A5        1.96142   0.00036   0.00021   0.00229   0.00251   1.96393
    A6        2.10287  -0.00053  -0.00001  -0.00310  -0.00310   2.09977
    A7        2.21890   0.00018  -0.00021   0.00080   0.00059   2.21949
    A8        2.20550  -0.00076   0.00034  -0.00258  -0.00225   2.20326
    A9        1.95865   0.00147  -0.00043   0.00578   0.00535   1.96400
   A10        2.11903  -0.00072   0.00009  -0.00319  -0.00310   2.11593
   A11        2.19434   0.00051  -0.00023   0.00212   0.00189   2.19623
   A12        2.21976   0.00043  -0.00028   0.00142   0.00114   2.22089
   A13        1.86909  -0.00093   0.00051  -0.00353  -0.00303   1.86606
    D1        0.00000   0.00000   0.00000   0.00000   0.00000   0.00000
    D2        3.14159   0.00000   0.00000   0.00000   0.00000   3.14159
    D3        3.14159   0.00000   0.00000   0.00000   0.00000   3.14159
    D4        0.00000   0.00000   0.00000   0.00000   0.00000   0.00000
    D5        3.14159   0.00000   0.00000   0.00000   0.00000   3.14159
    D6        0.00000   0.00000   0.00000   0.00000   0.00000   0.00000
    D7        0.00000   0.00000   0.00000   0.00000   0.00000   0.00000
    D8        3.14159   0.00000   0.00000   0.00000   0.00000   3.14159
    D9        0.00000   0.00000   0.00000   0.00000   0.00000   0.00000
   D10        3.14159   0.00000   0.00000   0.00000   0.00000   3.14159
   D11        3.14159   0.00000   0.00000   0.00000   0.00000   3.14159
   D12        0.00000   0.00000   0.00000   0.00000   0.00000   0.00000
   D13        3.14159   0.00000   0.00000   0.00000   0.00000   3.14159
   D14        0.00000   0.00000   0.00000   0.00000   0.00000   0.00000
   D15        0.00000   0.00000   0.00000   0.00000   0.00000   0.00000
   D16        3.14159   0.00000   0.00000   0.00000   0.00000   3.14159
         Item               Value     Threshold  Converged?
 Maximum Force            0.002894     0.000450     NO 
 RMS     Force            0.000831     0.000300     NO 
 Maximum Displacement     0.009571     0.001800     NO 
 RMS     Displacement     0.002882     0.001200     NO 
 Predicted change in Energy=-3.936072D-05
 GradGradGradGradGradGradGradGradGradGradGradGradGradGradGradGradGradGrad

 Leave Link  103 at Mon Aug 30 17:15:46 2004, MaxMem=   56000000 cpu:       0.0
 (Enter C:\G03W\l202.exe)
                          Input orientation:                          
 ---------------------------------------------------------------------
 Center     Atomic     Atomic              Coordinates (Angstroms)
 Number     Number      Type              X           Y           Z
 ---------------------------------------------------------------------
    1          7             0       -0.789320   -1.051762    0.000000
    2          1             0        0.011246    2.175755    0.000000
    3          6             0        1.143560    0.286371    0.000000
    4          1             0        2.159832    0.704759    0.000000
    5          6             0        0.649178   -1.010239    0.000000
    6          1             0        1.231702   -1.943873    0.000000
    7          1             0       -2.149644    0.690505    0.000000
    8          6             0       -1.127523    0.278177    0.000000
    9          7             0        0.002964    1.123789    0.000000
 ---------------------------------------------------------------------
                    Distance matrix (angstroms):
                    1          2          3          4          5
     1  N    0.000000
     2  H    3.325323   0.000000
     3  C    2.350877   2.202705   0.000000
     4  H    3.432617   2.603891   1.099025   0.000000
     5  C    1.439097   3.249233   1.387663   2.285452   0.000000
     6  H    2.209161   4.296609   2.231985   2.806542   1.100458
     7  H    2.210425   2.622101   3.317909   4.309499   3.275047
     8  C    1.372268   2.213052   2.271098   3.314917   2.194694
     9  N    2.315327   1.051998   1.415001   2.197194   2.229724
                    6          7          8          9
     6  H    0.000000
     7  H    4.286426   0.000000
     8  C    3.240902   1.102155   0.000000
     9  N    3.304595   2.195782   1.411758   0.000000
 Stoichiometry    C3H4N2
 Framework group  CS[SG(C3H4N2)]
 Deg. of freedom    15
 Full point group                 CS      NOp   2
 Largest Abelian subgroup         CS      NOp   2
 Largest concise Abelian subgroup C1      NOp   1
                         Standard orientation:                         
 ---------------------------------------------------------------------
 Center     Atomic     Atomic              Coordinates (Angstroms)
 Number     Number      Type              X           Y           Z
[...]
     20 -0.136005D-01 -0.187430D-01  0.323435D-01 -0.739565D-02 -0.688661D-03
     21 -0.114821D-01 -0.136471D-01  0.251292D-01  0.589317D-02 -0.379151D-02
     22  0.250826D-01  0.323901D-01 -0.574727D-01  0.150249D-02  0.448017D-02
     23  0.000000D+00  0.000000D+00  0.000000D+00  0.000000D+00  0.000000D+00
     24  0.000000D+00  0.000000D+00  0.000000D+00  0.000000D+00  0.000000D+00
     25  0.000000D+00  0.000000D+00  0.000000D+00  0.000000D+00  0.000000D+00
     26  0.000000D+00  0.000000D+00  0.000000D+00  0.000000D+00  0.000000D+00
     27  0.000000D+00  0.000000D+00  0.000000D+00  0.000000D+00  0.000000D+00
     28  0.000000D+00  0.000000D+00  0.000000D+00  0.000000D+00  0.000000D+00
     29  0.000000D+00  0.000000D+00  0.000000D+00  0.000000D+00  0.000000D+00
     30  0.000000D+00  0.000000D+00  0.000000D+00  0.000000D+00  0.000000D+00
     31  0.000000D+00  0.000000D+00  0.000000D+00  0.000000D+00  0.000000D+00
     32  0.000000D+00  0.000000D+00  0.000000D+00  0.000000D+00  0.000000D+00
     33  0.000000D+00  0.000000D+00  0.000000D+00  0.000000D+00  0.000000D+00
     34  0.000000D+00  0.000000D+00  0.000000D+00  0.000000D+00  0.000000D+00
     35  0.000000D+00  0.000000D+00  0.000000D+00  0.000000D+00  0.000000D+00
     36  0.000000D+00  0.000000D+00  0.000000D+00  0.000000D+00  0.000000D+00
     37  0.000000D+00  0.000000D+00  0.000000D+00  0.000000D+00  0.000000D+00
     38  0.000000D+00  0.000000D+00  0.000000D+00  0.000000D+00  0.000000D+00
               16            17            18            19            20
     16  0.850691D-01
     17  0.131613D-02  0.889925D-01
     18 -0.992547D-03 -0.588106D-01  0.120331D+00
     19 -0.323584D-03 -0.301819D-01 -0.615200D-01  0.917019D-01
     20  0.808431D-02 -0.128975D-01  0.264190D-01 -0.135215D-01  0.799858D-01
     21 -0.210166D-02 -0.161233D-01  0.345184D-01 -0.183951D-01 -0.283461D-01
     22 -0.598266D-02  0.290207D-01 -0.609374D-01  0.319167D-01 -0.516397D-01
     23  0.000000D+00  0.000000D+00  0.000000D+00  0.000000D+00  0.000000D+00
     24  0.000000D+00  0.000000D+00  0.000000D+00  0.000000D+00  0.000000D+00
     25  0.000000D+00  0.000000D+00  0.000000D+00  0.000000D+00  0.000000D+00
     26  0.000000D+00  0.000000D+00  0.000000D+00  0.000000D+00  0.000000D+00
     27  0.000000D+00  0.000000D+00  0.000000D+00  0.000000D+00  0.000000D+00
     28  0.000000D+00  0.000000D+00  0.000000D+00  0.000000D+00  0.000000D+00
     29  0.000000D+00  0.000000D+00  0.000000D+00  0.000000D+00  0.000000D+00
     30  0.000000D+00  0.000000D+00  0.000000D+00  0.000000D+00  0.000000D+00
     31  0.000000D+00  0.000000D+00  0.000000D+00  0.000000D+00  0.000000D+00
     32  0.000000D+00  0.000000D+00  0.000000D+00  0.000000D+00  0.000000D+00
     33  0.000000D+00  0.000000D+00  0.000000D+00  0.000000D+00  0.000000D+00
     34  0.000000D+00  0.000000D+00  0.000000D+00  0.000000D+00  0.000000D+00
     35  0.000000D+00  0.000000D+00  0.000000D+00  0.000000D+00  0.000000D+00
     36  0.000000D+00  0.000000D+00  0.000000D+00  0.000000D+00  0.000000D+00
     37  0.000000D+00  0.000000D+00  0.000000D+00  0.000000D+00  0.000000D+00
     38  0.000000D+00  0.000000D+00  0.000000D+00  0.000000D+00  0.000000D+00
               21            22            23            24            25
     21  0.783826D-01
     22 -0.500365D-01  0.101676D+00
     23  0.000000D+00  0.000000D+00  0.178451D-01
     24  0.000000D+00  0.000000D+00  0.666899D-02  0.112806D-01
     25  0.000000D+00  0.000000D+00 -0.657294D-02 -0.372032D-02  0.107643D-01
     26  0.000000D+00  0.000000D+00 -0.140101D-01 -0.678567D-02  0.514318D-02
     27  0.000000D+00  0.000000D+00 -0.816019D-02  0.965210D-03  0.116691D-02
     28  0.000000D+00  0.000000D+00  0.395723D-02 -0.403476D-02 -0.192596D-02
     29  0.000000D+00  0.000000D+00 -0.147515D-01 -0.403229D-02  0.544989D-02
     30  0.000000D+00  0.000000D+00 -0.263409D-02 -0.903226D-02  0.235702D-02
     31  0.000000D+00  0.000000D+00 -0.376630D-03 -0.169341D-02 -0.104274D-02
     32  0.000000D+00  0.000000D+00 -0.153077D-03 -0.454204D-02  0.161158D-02
     33  0.000000D+00  0.000000D+00  0.524056D-02  0.256552D-02 -0.469274D-02
     34  0.000000D+00  0.000000D+00  0.546411D-02 -0.283108D-03 -0.203842D-02
     35  0.000000D+00  0.000000D+00  0.612319D-02  0.182563D-02  0.558331D-03
     36  0.000000D+00  0.000000D+00  0.589563D-02  0.472530D-02 -0.214356D-02
     37  0.000000D+00  0.000000D+00 -0.906397D-03 -0.107172D-02 -0.475474D-02
     38  0.000000D+00  0.000000D+00 -0.113396D-02  0.182795D-02 -0.745663D-02
               26            27            28            29            30
     26  0.167579D-01
     27  0.587789D-02  0.944832D-02
     28 -0.195504D-02 -0.445651D-03  0.821945D-02
     29  0.608019D-02  0.725055D-02 -0.437147D-02  0.174494D-01
     30 -0.175274D-02 -0.264343D-02  0.429363D-02  0.582736D-02  0.127644D-01
     31 -0.388642D-03 -0.254933D-02 -0.112165D-02  0.965072D-03  0.239276D-02
     32  0.452172D-02 -0.516466D-02 -0.406048D-03 -0.407819D-02  0.680420D-03
     33 -0.561043D-03 -0.676362D-03  0.222398D-02 -0.772649D-02 -0.482614D-02
     34  0.434931D-02 -0.329169D-02  0.293958D-02 -0.127698D-01 -0.653848D-02
     35 -0.900097D-02 -0.449792D-02  0.161599D-03 -0.105550D-02  0.360402D-02
     36 -0.139993D-01 -0.183572D-02 -0.566823D-03  0.407814D-02  0.534704D-02
     37  0.197720D-02 -0.451284D-04  0.134115D-03 -0.459743D-03 -0.280499D-03
     38 -0.302114D-02  0.261707D-02 -0.594307D-03  0.467389D-02  0.146252D-02
               31            32            33            34            35
     31  0.311501D-02
     32  0.185305D-02  0.748226D-02
     33  0.119990D-03  0.927149D-03  0.612819D-02
     34 -0.114197D-02  0.655636D-02  0.693535D-02  0.146337D-01
     35 -0.295425D-03 -0.148285D-02 -0.322909D-02 -0.441652D-02  0.763840D-02
     36  0.989145D-03 -0.721294D-02 -0.405071D-02 -0.122528D-01  0.884711D-02
     37  0.322826D-03  0.126779D-02  0.676165D-03  0.162113D-02 -0.139699D-02
     38  0.160740D-02 -0.446230D-02 -0.145457D-03 -0.621515D-02 -0.188287D-03
               36            37            38
     36  0.171962D-01
     37 -0.235888D-02  0.496600D-02
     38  0.599017D-02  0.400411D-02  0.101826D-01
 Leave Link  716 at Mon Aug 30 17:16:57 2004, MaxMem=   56000000 cpu:       0.0
 (Enter C:\G03W\l103.exe)

 GradGradGradGradGradGradGradGradGradGradGradGradGradGradGradGradGradGrad
 Berny optimization.
 Internal  Forces:  Max     0.000129490 RMS     0.000044489
 Search for a local minimum.
 Step number   1 out of a maximum of   2
 All quantities printed in internal units (Hartrees-Bohrs-Radians)
 Second derivative matrix not updated -- analytic derivatives used.
     Eigenvalues ---    0.00427   0.01143   0.01953   0.02749   0.05429
     Eigenvalues ---    0.05887   0.10107   0.10667   0.11390   0.12253
     Eigenvalues ---    0.22776   0.25717   0.34380   0.41143   0.41329
     Eigenvalues ---    0.41547   0.41632   0.44215   0.47402   0.49489
     Eigenvalues ---    0.561611000.000001000.000001000.000001000.00000
     Eigenvalues --- 1000.000001000.000001000.000001000.000001000.00000
     Eigenvalues --- 1000.000001000.000001000.000001000.000001000.00000
     Eigenvalues --- 1000.000001000.000001000.00000
 Angle between quadratic step and forces=  33.67 degrees.
 Linear search not attempted -- first point.
 Iteration  1 RMS(Cart)=  0.00028242 RMS(Int)=  0.00000009
 Iteration  2 RMS(Cart)=  0.00000009 RMS(Int)=  0.00000000
 Variable       Old X    -DE/DX   Delta X   Delta X   Delta X     New X
                                 (Linear)    (Quad)   (Total)
    R1        2.71981  -0.00005   0.00000  -0.00018  -0.00018   2.71963
    R2        2.59348  -0.00008   0.00000  -0.00008  -0.00008   2.59340
    R3        1.98817   0.00007   0.00000   0.00014   0.00014   1.98831
    R4        2.07750   0.00003   0.00000   0.00006   0.00006   2.07756
    R5        2.62305   0.00012   0.00000   0.00026   0.00026   2.62331
    R6        2.67503  -0.00001   0.00000   0.00011   0.00011   2.67514
    R7        2.08007   0.00001   0.00000   0.00004   0.00004   2.08011
    R8        2.08359   0.00001   0.00000   0.00003   0.00003   2.08362
    R9        2.66680  -0.00004   0.00000  -0.00024  -0.00024   2.66656
    A1        1.79173  -0.00004   0.00000  -0.00010  -0.00010   1.79162
    A2        2.32620   0.00008   0.00000   0.00056   0.00056   2.32675
    A3        2.11750   0.00000   0.00000  -0.00027  -0.00027   2.11723
    A4        1.83949  -0.00009   0.00000  -0.00029  -0.00029   1.83920
    A5        1.96330   0.00005   0.00000   0.00017   0.00017   1.96347
    A6        2.09955  -0.00004   0.00000  -0.00017  -0.00017   2.09938
    A7        2.22033   0.00000   0.00000   0.00000   0.00000   2.22033
    A8        2.20196  -0.00013   0.00000  -0.00089  -0.00089   2.20107
    A9        1.96356   0.00006   0.00000   0.00012   0.00012   1.96368
   A10        2.11767   0.00007   0.00000   0.00076   0.00076   2.11843
   A11        2.19625  -0.00002   0.00000  -0.00010  -0.00010   2.19615
   A12        2.22023   0.00000   0.00000   0.00001   0.00001   2.22024
   A13        1.86670   0.00002   0.00000   0.00010   0.00010   1.86680
    D1        0.00000   0.00000   0.00000   0.00000   0.00000   0.00000
    D2        3.14159   0.00000   0.00000   0.00000   0.00000   3.14159
    D3        3.14159   0.00000   0.00000   0.00000   0.00000   3.14159
    D4        0.00000   0.00000   0.00000   0.00000   0.00000   0.00000
    D5        3.14159   0.00000   0.00000   0.00000   0.00000   3.14159
    D6        0.00000   0.00000   0.00000   0.00000   0.00000   0.00000
    D7        0.00000   0.00000   0.00000   0.00000   0.00000   0.00000
    D8        3.14159   0.00000   0.00000   0.00000   0.00000   3.14159
    D9        0.00000   0.00000   0.00000   0.00000   0.00000   0.00000
   D10        3.14159   0.00000   0.00000   0.00000   0.00000   3.14159
   D11        3.14159   0.00000   0.00000   0.00000   0.00000   3.14159
   D12        0.00000   0.00000   0.00000   0.00000   0.00000   0.00000
   D13        3.14159   0.00000   0.00000   0.00000   0.00000   3.14159
   D14        0.00000   0.00000   0.00000   0.00000   0.00000   0.00000
   D15        0.00000   0.00000   0.00000   0.00000   0.00000   0.00000
   D16        3.14159   0.00000   0.00000   0.00000   0.00000   3.14159
         Item               Value     Threshold  Converged?
 Maximum Force            0.000129     0.000450     YES
 RMS     Force            0.000044     0.000300     YES
 Maximum Displacement     0.001097     0.001800     YES
 RMS     Displacement     0.000282     0.001200     YES
 Predicted change in Energy=-1.672325D-07
 Optimization completed.
    -- Stationary point found.
                           ----------------------------
                           !   Optimized Parameters   !
                           ! (Angstroms and Degrees)  !
 --------------------------                            --------------------------
 ! Name  Definition              Value          Derivative Info.                !
 --------------------------------------------------------------------------------
 ! R1    R(1,5)                  1.4393         -DE/DX =   -0.0001              !
 ! R2    R(1,8)                  1.3724         -DE/DX =   -0.0001              !
 ! R3    R(2,9)                  1.0521         -DE/DX =    0.0001              !
 ! R4    R(3,4)                  1.0994         -DE/DX =    0.0                 !
 ! R5    R(3,5)                  1.3881         -DE/DX =    0.0001              !
 ! R6    R(3,9)                  1.4156         -DE/DX =    0.0                 !
 ! R7    R(5,6)                  1.1007         -DE/DX =    0.0                 !
 ! R8    R(7,8)                  1.1026         -DE/DX =    0.0                 !
 ! R9    R(8,9)                  1.4112         -DE/DX =    0.0                 !
 ! A1    A(5,1,8)              102.6584         -DE/DX =    0.0                 !
 ! A2    A(4,3,5)              133.2813         -DE/DX =    0.0001              !
 ! A3    A(4,3,9)              121.3237         -DE/DX =    0.0                 !
 ! A4    A(5,3,9)              105.3949         -DE/DX =   -0.0001              !
 ! A5    A(1,5,3)              112.489          -DE/DX =    0.0                 !
 ! A6    A(1,5,6)              120.2953         -DE/DX =    0.0                 !
 ! A7    A(3,5,6)              127.2157         -DE/DX =    0.0                 !
 ! A8    A(1,8,7)              126.163          -DE/DX =   -0.0001              !
 ! A9    A(1,8,9)              112.5034         -DE/DX =    0.0001              !
 ! A10   A(7,8,9)              121.3336         -DE/DX =    0.0001              !
 ! A11   A(2,9,3)              125.8359         -DE/DX =    0.0                 !
 ! A12   A(2,9,8)              127.2099         -DE/DX =    0.0                 !
 ! A13   A(3,9,8)              106.9542         -DE/DX =    0.0                 !
 ! D1    D(8,1,5,3)              0.0            -DE/DX =    0.0                 !
 ! D2    D(8,1,5,6)            180.0            -DE/DX =    0.0                 !
 ! D3    D(5,1,8,7)            180.0            -DE/DX =    0.0                 !
 ! D4    D(5,1,8,9)              0.0            -DE/DX =    0.0                 !
 ! D5    D(4,3,5,1)            180.0            -DE/DX =    0.0                 !
 ! D6    D(4,3,5,6)              0.0            -DE/DX =    0.0                 !
 ! D7    D(9,3,5,1)              0.0            -DE/DX =    0.0                 !
 ! D8    D(9,3,5,6)            180.0            -DE/DX =    0.0                 !
 ! D9    D(4,3,9,2)              0.0            -DE/DX =    0.0                 !
 ! D10   D(4,3,9,8)            180.0            -DE/DX =    0.0                 !
 ! D11   D(5,3,9,2)            180.0            -DE/DX =    0.0                 !
 ! D12   D(5,3,9,8)              0.0            -DE/DX =    0.0                 !
 ! D13   D(1,8,9,2)            180.0            -DE/DX =    0.0                 !
 ! D14   D(1,8,9,3)              0.0            -DE/DX =    0.0                 !
 ! D15   D(7,8,9,2)              0.0            -DE/DX =    0.0                 !
 ! D16   D(7,8,9,3)            180.0            -DE/DX =    0.0                 !
 --------------------------------------------------------------------------------
 GradGradGradGradGradGradGradGradGradGradGradGradGradGradGradGradGradGrad

 Leave Link  103 at Mon Aug 30 17:16:58 2004, MaxMem=   56000000 cpu:       0.0
 (Enter C:\G03W\l9999.exe)
 1|1|UNPC-UNK|Freq|RPBEPBE|STO-3G|C3H4N2|PCUSER|30-Aug-2004|0||#P GEOM=
 ALLCHECK GUESS=READ SCRF=CHECK GENCHK RPBEPBE/STO-3G FREQ||1himidaz 1H
 -Imidazole casno=288324 method=61 basis=20||0,1|N,-0.7820882494,-1.036
 2027865,0.|H,0.0179381775,2.1907690517,0.|C,1.1512272683,0.3012551098,
 0.|H,2.167599162,0.7202881173,0.|C,0.6566017925,-0.9956845002,0.|H,1.2
 384055613,-1.9300819002,0.|H,-2.1434966738,0.704952443,0.|C,-1.1204129
 369,0.2938531872,0.|N,0.0099535393,1.1387070018,0.||Version=x86-Win32-
 G03RevB.05|State=1-A'|HF=-223.0842599|RMSD=9.526e-009|RMSF=6.854e-005|
 Dipole=0.4177667,1.3514541,0.|DipoleDeriv=-0.2210332,0.1209024,0.,0.06
 28334,-0.3032184,0.,0.,0.,-0.2319893,0.1708745,-0.0224595,0.,-0.011541
 8,0.1518853,0.,0.,0.,0.3095357,-0.1228682,-0.1681939,0.,0.0289823,0.15
 75342,0.,0.,0.,-0.054735,0.1329475,0.0365081,0.,-0.0150172,0.0647664,0
 .,0.,0.,0.1238053,-0.0691264,-0.1795841,0.,-0.071686,-0.0281279,0.,0.,
 0.,-0.0883938,0.0577362,-0.0065515,0.,-0.0007354,0.1104032,0.,0.,0.,0.
 0856241,0.1374194,-0.0295056,0.,0.0045152,0.0520142,0.,0.,0.,0.1087051
 ,0.04503,0.2355956,0.,0.0251963,0.2557736,0.,0.,0.,-0.0143405,-0.13097
 99,0.0132883,0.,-0.022547,-0.4610306,0.,0.,0.,-0.2382115|Polar=31.6769
 233,-1.8784916,31.2931544,0.,0.,5.5158943|PG=CS [SG(C3H4N2)]|NImag=0||
 0.43050943,-0.03306463,0.52883446,0.,0.,0.08725776,-0.00540138,-0.0069
 7160,0.,0.05438479,-0.00464909,0.00000089,0.,0.00111364,0.47326525,0.,
 0.,0.00649289,0.,0.,0.00952957,-0.05128032,0.00213464,0.,0.01324887,-0
 .01262614,0.,0.88532458,-0.08086520,-0.00032109,0.,0.02407961,-0.00284
 137,0.,0.15063292,0.72950840,0.,0.,0.01494452,0.,0.,-0.00822737,0.,0.,
 0.10115133,0.00187521,-0.00049334,0.,0.00092611,0.00028247,0.,-0.35553
 893,-0.12070438,0.,0.36391305,-0.00380576,-0.00348162,0.,-0.00041101,0
 .00080331,0.,-0.13310431,-0.11213770,0.,0.12704893,0.10175367,0.,0.,0.
 00671173,0.,0.,-0.00125928,0.,0.,-0.02129145,0.,0.,0.01878478,-0.24816
 871,0.00693473,0.,-0.00813272,0.00137254,0.,-0.13782031,-0.08262079,0.
 ,0.00181505,-0.02081943,0.,0.59748729,-0.01404938,-0.09127134,0.,0.004
 42528,0.00159070,0.,-0.11845640,-0.40705078,0.,0.00659112,0.00778254,0
 .,-0.11680077,0.92657383,0.,0.,-0.05856299,0.,0.,0.00270992,0.,0.,-0.0
 5839663,0.,0.,-0.00096139,0.,0.,0.11992645,-0.00901776,0.02600124,0.,0
 .00137791,0.00003565,0.,0.01003352,-0.01435576,0.,0.00040801,0.0005774
 1,0.,-0.14942980,0.15209107,0.,0.15446249,-0.00361013,0.00870281,0.,0.
 00100250,-0.00024344,0.,0.02020812,-0.00813680,0.,-0.00076873,0.000220
 88,0.,0.15118536,-0.31414149,0.,-0.16050899,0.31400629,0.,0.,-0.006606
 55,0.,0.,0.00190931,0.,0.,-0.00105131,0.,0.,-0.00240906,0.,0.,-0.02719
 402,0.,0.,0.02303142,0.00158370,-0.00124653,0.,0.00061538,-0.00028501,
 0.,0.00217267,-0.00565720,0.,-0.00058354,0.00062155,0.,0.00224256,0.00
 039085,0.,0.00029178,0.00018247,0.,0.36315876,0.02614494,-0.00046589,0
 .,0.00019988,0.00073239,0.,-0.00276094,-0.00520527,0.,-0.00062088,0.00
 139343,0.,0.00085648,-0.00614276,0.,0.00176142,0.00070657,0.,-0.122577
 24,0.10436220,0.,0.,-0.00806543,0.,0.,-0.00121506,0.,0.,0.00256703,0.,
 0.,0.00166389,0.,0.,0.00798351,0.,0.,0.00137398,0.,0.,0.01926492,-0.10
 986071,0.05298898,0.,0.01522994,0.01276757,0.,-0.08905186,0.02485447,0
 .,0.00110856,0.00329286,0.,-0.06303927,0.03175027,0.,-0.00704625,-0.00
 324065,0.,-0.35483603,0.12130123,0.,0.87983029,0.09457112,-0.35301918,
 0.,-0.01915268,-0.00585295,0.,-0.02971991,0.00153006,0.,0.00429784,-0.
 00810612,0.,0.07230947,-0.03177241,0.,-0.00135854,0.00045078,0.,0.1133
 3707,-0.10599700,0.,-0.13007166,0.67628224,0.,0.,-0.05854044,0.,0.,-0.
 00925467,0.,0.,0.01165504,0.,0.,0.00328089,0.,0.,0.00408451,0.,0.,0.00
 586871,0.,0.,-0.01924467,0.,0.,0.10432004,-0.01023946,-0.04628349,0.,-
 0.07224890,0.00198836,0.,-0.27708822,0.10463633,0.,-0.01392353,0.02659
 976,0.,0.00504591,0.05405796,0.,-0.00107990,-0.00444994,0.,-0.01464529
 ,-0.02430486,0.,-0.27233466,-0.10421271,0.,0.65651405,0.01932814,-0.08
 897904,0.,-0.00428561,-0.46745477,0.,0.12369202,-0.19534546,0.,-0.0156
 3304,0.01177161,0.,-0.01241757,-0.08556828,0.,-0.00424349,-0.00156559,
 0.,0.01523404,0.01061632,0.,-0.11364307,-0.17351542,0.,-0.00803140,0.9
 9004063,0.,0.,0.01636852,0.,0.,-0.00068531,0.,0.,-0.04135116,0.,0.,-0.
 00452012,0.,0.,0.01041066,0.,0.,0.00507751,0.,0.,-0.00432816,0.,0.,-0.
 04216942,0.,0.,0.06119748||0.00005124,-0.00000855,0.,-0.00000549,-0.00
 006668,0.,-0.00012835,-0.00007739,0.,-0.00001192,-0.00004903,0.,0.0001
 5977,0.00001495,0.,0.00000645,0.00001791,0.,0.00004851,0.00008655,0.,-
 0.00017959,-0.00005770,0.,0.00005938,0.00013994,0.|||@


 I MET A TRAVELLER FROM AN ANTIQUE LAND
 WHO SAID... TWO VAST AND TRUNKLESS LEGS OF STONE
 STAND IN THE DESERT..... NEAR THEM,  ON THE SAND,
 HALF SUNK,  A SHATTERED VISAGE LIES,  WHOSE FROWN,
 AND WRINKLED LIP,  AND SNEER OF COLD COMMAND
 TELL THAT ITS SCULPTOR WELL THOSE PASSIONS READ
 WHICH YET SURVIVE,  STAMPED ON THESE LIFELESS THINGS
 THE HAND THAT MOCKED THEM,  AND THE HEART THAT FED-
 AND ON THE PEDESTAL THESE WORDS APPEAR 
 MY NAME IS OZYMANDIAS, KING OF KINGS--   
 LOOK ON MY WORKS YE MIGHTY AND DESPAIR. 
 NOTHING BESIDE REMAINS,  ROUND THE DECAY 
 OF THAT COLOSSAL WRECK,  BOUNDLESS AND BARE
 THE LONE AND LEVEL SANDS STRETCH FAR AWAY.
                                    SHELLEY
 Job cpu time:  0 days  0 hours  0 minutes 38.0 seconds.
 File lengths (MBytes):  RWF=     11 Int=      0 D2E=      0 Chk=      4 Scr=      1
 Normal termination of Gaussian 03 at Mon Aug 30 17:16:59 2004.
