 Entering Gaussian System, Link 0=/usr/local/gaussian03/g03/g03
 Initial command:
 /usr/local/gaussian03/g03/l1.exe /chkpnt/Gau-724455.inp -scrdir=/chkpnt/
 Entering Link 1 = /usr/local/gaussian03/g03/l1.exe PID=    724459.
  
 Copyright (c) 1988,1990,1992,1993,1995,1998,2003,2004, Gaussian, Inc.
                  All Rights Reserved.
  
 This is the Gaussian(R) 03 program.  It is based on the
 the Gaussian(R) 98 system (copyright 1998, Gaussian, Inc.),
 the Gaussian(R) 94 system (copyright 1995, Gaussian, Inc.),
 the Gaussian 92(TM) system (copyright 1992, Gaussian, Inc.),
 the Gaussian 90(TM) system (copyright 1990, Gaussian, Inc.),
 the Gaussian 88(TM) system (copyright 1988, Gaussian, Inc.),
 the Gaussian 86(TM) system (copyright 1986, Carnegie Mellon
 University), and the Gaussian 82(TM) system (copyright 1983,
 Carnegie Mellon University). Gaussian is a federally registered
 trademark of Gaussian, Inc.
  
 This software contains proprietary and confidential information,
 including trade secrets, belonging to Gaussian, Inc.
  
 This software is provided under written license and may be
 used, copied, transmitted, or stored only in accord with that
 written license.
  
 The following legend is applicable only to US Government
 contracts under FAR:
  
                    RESTRICTED RIGHTS LEGEND
  
 Use, reproduction and disclosure by the US Government is
 subject to restrictions as set forth in subparagraphs (a)
 and (c) of the Commercial Computer Software - Restricted
 Rights clause in FAR 52.227-19.
  
 Gaussian, Inc.
 340 Quinnipiac St., Bldg. 40, Wallingford CT 06492
  
  
 ---------------------------------------------------------------
 Warning -- This program may not be used in any manner that
 competes with the business of Gaussian, Inc. or will provide
 assistance to any competitor of Gaussian, Inc.  The licensee
 of this program is prohibited from giving any competitor of
 Gaussian, Inc. access to this program.  By using this program,
 the user acknowledges that Gaussian, Inc. is engaged in the
 business of creating and licensing software in the field of
 computational chemistry and represents and warrants to the
 licensee that it is not a competitor of Gaussian, Inc. and that
 it will not use this program in any manner prohibited above.
 ---------------------------------------------------------------
  

 Cite this work as:
 Gaussian 03, Revision C.02,
 M. J. Frisch, G. W. Trucks, H. B. Schlegel, G. E. Scuseria, 
 M. A. Robb, J. R. Cheeseman, J. A. Montgomery, Jr., T. Vreven, 
 K. N. Kudin, J. C. Burant, J. M. Millam, S. S. Iyengar, J. Tomasi, 
 V. Barone, B. Mennucci, M. Cossi, G. Scalmani, N. Rega, 
 G. A. Petersson, H. Nakatsuji, M. Hada, M. Ehara, K. Toyota, 
 R. Fukuda, J. Hasegawa, M. Ishida, T. Nakajima, Y. Honda, O. Kitao, 
 H. Nakai, M. Klene, X. Li, J. E. Knox, H. P. Hratchian, J. B. Cross, 
 C. Adamo, J. Jaramillo, R. Gomperts, R. E. Stratmann, O. Yazyev, 
 A. J. Austin, R. Cammi, C. Pomelli, J. W. Ochterski, P. Y. Ayala, 
 K. Morokuma, G. A. Voth, P. Salvador, J. J. Dannenberg, 
 V. G. Zakrzewski, S. Dapprich, A. D. Daniels, M. C. Strain, 
 O. Farkas, D. K. Malick, A. D. Rabuck, K. Raghavachari, 
 J. B. Foresman, J. V. Ortiz, Q. Cui, A. G. Baboul, S. Clifford, 
 J. Cioslowski, B. B. Stefanov, G. Liu, A. Liashenko, P. Piskorz, 
 I. Komaromi, R. L. Martin, D. J. Fox, T. Keith, M. A. Al-Laham, 
 C. Y. Peng, A. Nanayakkara, M. Challacombe, P. M. W. Gill, 
 B. Johnson, W. Chen, M. W. Wong, C. Gonzalez, and J. A. Pople, 
 Gaussian, Inc., Wallingford CT, 2004.
 
 ******************************************
 Gaussian 03:  SGI64-G03RevC.02 12-Jun-2004
                 7-Jan-2005 
 ******************************************
 %mem=24000000
 --------------------
 #MP3/6-31G* opt freq
 --------------------
 1/18=20,38=1/1,3;
 2/9=110,17=6,18=5,40=1/2;
 3/5=1,6=6,7=1,11=9,16=1,25=1,30=1/1,2,3;
 4//1;
 5/5=2,38=5/2;
 8/6=4,9=120000,10=2/1,4;
 9/5=2,15=1/13;
 11/28=-10,29=200,42=3/11;
 10/5=8/2;
 6/7=2,8=2,9=2,10=2/1;
 7/12=3/1,2,3,16;
 1/18=20/3(1);
 99//99;
 2/9=110/2;
 3/5=1,6=6,7=1,11=9,16=1,25=1,30=1/1,2,3;
 4/5=5,16=3/1;
 5/5=2,38=5/2;
 8/6=4,9=120000,10=2/1,4;
 9/5=2,15=1/13;
 11/28=-10,29=200,42=3/11;
 10/5=8/2;
 7/12=3/1,2,3,16;
 1/18=20/3(-9);
 2/9=110/2;
 6/7=2,8=2,9=2,10=2/1;
 99//99;
 --------------------------------------------------
 1H imidazole C3H4N2 casno=288324 method=62 basis=1
 --------------------------------------------------
 Symbolic Z-matrix:
 Charge =  0 Multiplicity = 1
 N                     0.30938   0.        1.30938 
 H                     0.3125    0.       -1.6875 
 C                    -1.06875   0.       -0.28438 
 H                    -1.91875   0.       -0.79063 
 C                    -0.93438   0.        1.02812 
 H                    -1.675     0.        1.6875 
 H                     1.91875   0.        0.09063 
 C                     0.93438   0.        0.19063 
 N                     0.09688   0.       -0.775 
 

 GradGradGradGradGradGradGradGradGradGradGradGradGradGradGradGradGradGrad
 Berny optimization.
 Initialization pass.
                           ----------------------------
                           !    Initial Parameters    !
                           ! (Angstroms and Degrees)  !
 --------------------------                            --------------------------
 ! Name  Definition              Value          Derivative Info.                !
 --------------------------------------------------------------------------------
 ! R1    R(1,5)                  1.2752         estimate D2E/DX2                !
 ! R2    R(1,8)                  1.2815         estimate D2E/DX2                !
 ! R3    R(2,9)                  0.9376         estimate D2E/DX2                !
 ! R4    R(3,4)                  0.9893         estimate D2E/DX2                !
 ! R5    R(3,5)                  1.3194         estimate D2E/DX2                !
 ! R6    R(3,9)                  1.2647         estimate D2E/DX2                !
 ! R7    R(5,6)                  0.9916         estimate D2E/DX2                !
 ! R8    R(7,8)                  0.9894         estimate D2E/DX2                !
 ! R9    R(8,9)                  1.2782         estimate D2E/DX2                !
 ! A1    A(5,1,8)              106.4483         estimate D2E/DX2                !
 ! A2    A(4,3,5)              126.6232         estimate D2E/DX2                !
 ! A3    A(4,3,9)              126.3957         estimate D2E/DX2                !
 ! A4    A(5,3,9)              106.9812         estimate D2E/DX2                !
 ! A5    A(1,5,3)              108.5877         estimate D2E/DX2                !
 ! A6    A(1,5,6)              125.5794         estimate D2E/DX2                !
 ! A7    A(3,5,6)              125.8329         estimate D2E/DX2                !
 ! A8    A(1,8,7)              124.9909         estimate D2E/DX2                !
 ! A9    A(1,8,9)              109.8741         estimate D2E/DX2                !
 ! A10   A(7,8,9)              125.1349         estimate D2E/DX2                !
 ! A11   A(2,9,3)              126.122          estimate D2E/DX2                !
 ! A12   A(2,9,8)              125.7693         estimate D2E/DX2                !
 ! A13   A(3,9,8)              108.1088         estimate D2E/DX2                !
 ! D1    D(8,1,5,3)              0.0            estimate D2E/DX2                !
 ! D2    D(8,1,5,6)            180.0            estimate D2E/DX2                !
 ! D3    D(5,1,8,7)            180.0            estimate D2E/DX2                !
 ! D4    D(5,1,8,9)              0.0            estimate D2E/DX2                !
 ! D5    D(4,3,5,1)            180.0            estimate D2E/DX2                !
 ! D6    D(4,3,5,6)              0.0            estimate D2E/DX2                !
 ! D7    D(9,3,5,1)              0.0            estimate D2E/DX2                !
 ! D8    D(9,3,5,6)            180.0            estimate D2E/DX2                !
 ! D9    D(4,3,9,2)              0.0            estimate D2E/DX2                !
 ! D10   D(4,3,9,8)            180.0            estimate D2E/DX2                !
 ! D11   D(5,3,9,2)            180.0            estimate D2E/DX2                !
 ! D12   D(5,3,9,8)              0.0            estimate D2E/DX2                !
 ! D13   D(1,8,9,2)            180.0            estimate D2E/DX2                !
 ! D14   D(1,8,9,3)              0.0            estimate D2E/DX2                !
 ! D15   D(7,8,9,2)              0.0            estimate D2E/DX2                !
 ! D16   D(7,8,9,3)            180.0            estimate D2E/DX2                !
 --------------------------------------------------------------------------------
 Trust Radius=3.00D-01 FncErr=1.00D-07 GrdErr=1.00D-07
 Number of steps in this run=  48 maximum allowed number of steps= 100.
 GradGradGradGradGradGradGradGradGradGradGradGradGradGradGradGradGradGrad

                          Input orientation:                          
 ---------------------------------------------------------------------
 Center     Atomic     Atomic              Coordinates (Angstroms)
 Number     Number      Type              X           Y           Z
 ---------------------------------------------------------------------
    1          7             0        0.309375    0.000000    1.309375
    2          1             0        0.312500    0.000000   -1.687500
    3          6             0       -1.068750    0.000000   -0.284375
    4          1             0       -1.918750    0.000000   -0.790625
    5          6             0       -0.934375    0.000000    1.028125
    6          1             0       -1.675000    0.000000    1.687500
    7          1             0        1.918750    0.000000    0.090625
    8          6             0        0.934375    0.000000    0.190625
    9          7             0        0.096875    0.000000   -0.775000
 ---------------------------------------------------------------------
                    Distance matrix (angstroms):
                    1          2          3          4          5
     1  N    0.000000
     2  H    2.996877   0.000000
     3  C    2.106957   1.968911   0.000000
     4  H    3.061787   2.404758   0.989338   0.000000
     5  C    1.275153   2.988196   1.319361   2.068054   0.000000
     6  H    2.020080   3.916731   2.062966   2.490084   0.991615
     7  H    2.018772   2.396199   3.010944   3.937386   3.003203
     8  C    1.281494   1.978404   2.058673   3.017147   2.047836
     9  N    2.095179   0.937630   1.264672   2.015686   2.077194
                    6          7          8          9
     6  H    0.000000
     7  H    3.932563   0.000000
     8  C    3.008234   0.989441   0.000000
     9  N    3.033718   2.017061   1.278217   0.000000
 Stoichiometry    C3H4N2
 Framework group  CS[SG(C3H4N2)]
 Deg. of freedom    15
 Full point group                 CS      NOp   2
 Largest Abelian subgroup         CS      NOp   2
 Largest concise Abelian subgroup C1      NOp   1
                         Standard orientation:                         
 ---------------------------------------------------------------------
 Center     Atomic     Atomic              Coordinates (Angstroms)
 Number     Number      Type              X           Y           Z
 ---------------------------------------------------------------------
    1          7             0       -0.674969   -0.941702    0.000000
    2          1             0       -0.005288    1.979393    0.000000
    3          6             0        1.025744    0.302019    0.000000
    4          1             0        1.967693    0.604544    0.000000
    5          6             0        0.600174   -0.946822    0.000000
    6          1             0        1.173884   -1.755622    0.000000
    7          1             0       -1.969692    0.607211    0.000000
    8          6             0       -1.032886    0.288794    0.000000
    9          7             0        0.000000    1.041778    0.000000
 ---------------------------------------------------------------------
 Rotational constants (GHZ):     11.1543378     10.4769589      5.4025212
 Standard basis: 6-31G(d) (6D, 7F)
 There are    63 symmetry adapted basis functions of A'  symmetry.
 There are    20 symmetry adapted basis functions of A"  symmetry.
 Integral buffers will be    131072 words long.
 Raffenetti 1 integral format.
 Two-electron integral symmetry is turned on.
    83 basis functions,   156 primitive gaussians,    83 cartesian basis functions
    18 alpha electrons       18 beta electrons
       nuclear repulsion energy       173.5664703841 Hartrees.
 NAtoms=    9 NActive=    9 NUniq=    9 SFac= 1.00D+00 NAtFMM=   60 Big=F
 One-electron integrals computed using PRISM.
 NBasis=    83 RedAO= T  NBF=    63    20
 NBsUse=    83 1.00D-06 NBFU=    63    20
 Harris functional with IExCor=  205 diagonalized for initial guess.
 ExpMin= 1.61D-01 ExpMax= 4.17D+03 ExpMxC= 6.27D+02 IAcc=1 IRadAn=         1 AccDes= 1.00D-06
 HarFok:  IExCor= 205 AccDes= 1.00D-06 IRadAn=         1 IDoV=1
 ScaDFX=  1.000000  1.000000  1.000000  1.000000
 Initial guess orbital symmetries:
       Occupied  (A') (A') (A') (A') (A') (A') (A') (A') (A') (A')
                 (A') (A') (A") (A') (A') (A") (A') (A")
       Virtual   (A") (A") (A') (A') (A') (A') (A') (A') (A') (A')
                 (A') (A') (A") (A") (A') (A") (A') (A') (A') (A')
                 (A") (A') (A") (A') (A') (A') (A') (A') (A') (A')
                 (A") (A') (A') (A") (A") (A') (A') (A") (A") (A')
                 (A') (A') (A') (A') (A') (A') (A") (A") (A') (A")
                 (A') (A") (A') (A') (A") (A') (A') (A') (A') (A')
                 (A') (A') (A') (A') (A')
 The electronic state of the initial guess is 1-A'.
 Requested convergence on RMS density matrix=1.00D-08 within 128 cycles.
 Requested convergence on MAX density matrix=1.00D-06.
 Requested convergence on             energy=1.00D-06.
 No special actions if energy rises.
 Keep R1 integrals in memory in canonical form, NReq=     7236413.
 SCF Done:  E(RHF) =  -224.763306438     A.U. after   13 cycles
             Convg  =    0.5190D-08             -V/T =  1.9943
             S**2   =   0.0000
 ExpMin= 1.61D-01 ExpMax= 4.17D+03 ExpMxC= 6.27D+02 IAcc=1 IRadAn=         1 AccDes= 1.00D-06
 HarFok:  IExCor= 205 AccDes= 1.00D-06 IRadAn=         1 IDoV=1
 ScaDFX=  1.000000  1.000000  1.000000  1.000000
 Range of M.O.s used for correlation:     6    83
 NBasis=    83 NAE=    18 NBE=    18 NFC=     5 NFV=     0
 NROrb=     78 NOA=    13 NOB=    13 NVA=    65 NVB=    65
 Spin components of T(2) and E(2):
     alpha-alpha T2 =       0.3083463798D-01 E2=     -0.9465232515D-01
     alpha-beta  T2 =       0.1574257063D+00 E2=     -0.4989889248D+00
     beta-beta   T2 =       0.3083463798D-01 E2=     -0.9465232515D-01
 ANorm=    0.1104126343D+01
 E2=       -0.6882935751D+00 EUMP2=       -0.22545160001339D+03
 R2 and R3 integrals will be kept in memory, NReq=    12975682.
 DD1Dir will call FoFMem   1 times, MxPair=       182
 NAB=    91 NAA=     0 NBB=     0.
 E3=       -0.15481484D-01        EUMP3=      -0.22546708150D+03
 Largest amplitude= 6.23D-02
 Discarding MO integrals.
 DoAtom=TTTTTTTTT
          Differentiating once with respect to electric field.
                with respect to dipole field.
          Differentiating once with respect to nuclear coordinates.
          Store integrals in memory, NReq=     6898761.
          There are   1 degrees of freedom in the 1st order CPHF.
     1 vectors were produced by pass  0.
 AX will form   1 AO Fock derivatives at one time.
     1 vectors were produced by pass  1.
     1 vectors were produced by pass  2.
     1 vectors were produced by pass  3.
     1 vectors were produced by pass  4.
     1 vectors were produced by pass  5.
     1 vectors were produced by pass  6.
     1 vectors were produced by pass  7.
     1 vectors were produced by pass  8.
     1 vectors were produced by pass  9.
     1 vectors were produced by pass 10.
     1 vectors were produced by pass 11.
     1 vectors were produced by pass 12.
     1 vectors were produced by pass 13.
 Inv2:  IOpt= 1 Iter= 1 AM= 3.71D-16 Conv= 1.00D-12.
 Inverted reduced A of dimension   14 with in-core refinement.
 End of Minotr Frequency-dependent properties file   721 does not exist.

 **********************************************************************

            Population analysis using the SCF density.

 **********************************************************************

 Orbital symmetries:
       Occupied  (A') (A') (A') (A') (A') (A') (A') (A') (A') (A')
                 (A') (A') (A") (A') (A') (A') (A") (A")
       Virtual   (A") (A') (A") (A') (A') (A') (A') (A') (A') (A')
                 (A') (A') (A") (A") (A') (A") (A') (A') (A') (A')
                 (A") (A') (A') (A') (A") (A') (A') (A') (A') (A')
                 (A') (A") (A') (A') (A") (A") (A') (A') (A") (A")
                 (A') (A') (A') (A') (A') (A') (A") (A") (A') (A")
                 (A') (A") (A') (A') (A") (A') (A') (A') (A') (A')
                 (A') (A') (A') (A') (A')
 The electronic state is 1-A'.
 Alpha  occ. eigenvalues --  -15.61684 -15.51623 -11.25684 -11.21954 -11.19996
 Alpha  occ. eigenvalues --   -1.40937  -1.20141  -1.03087  -0.86442  -0.82628
 Alpha  occ. eigenvalues --   -0.79690  -0.63865  -0.63544  -0.61037  -0.59073
 Alpha  occ. eigenvalues --   -0.41568  -0.40806  -0.31072
 Alpha virt. eigenvalues --    0.21800   0.22685   0.27436   0.30552   0.32107
 Alpha virt. eigenvalues --    0.34031   0.42505   0.43603   0.50397   0.52222
 Alpha virt. eigenvalues --    0.69576   0.73041   0.75740   0.80281   0.83093
 Alpha virt. eigenvalues --    0.86795   0.88133   0.93230   0.96821   0.98823
 Alpha virt. eigenvalues --    1.02268   1.06154   1.07648   1.11763   1.12725
 Alpha virt. eigenvalues --    1.17734   1.19980   1.21691   1.29160   1.32306
 Alpha virt. eigenvalues --    1.54933   1.55480   1.56244   1.61378   1.64880
 Alpha virt. eigenvalues --    1.68309   1.75698   1.86031   1.89443   1.90359
 Alpha virt. eigenvalues --    2.08917   2.29496   2.49344   2.51986   2.56543
 Alpha virt. eigenvalues --    2.60130   2.60544   2.62881   2.71258   2.75502
 Alpha virt. eigenvalues --    2.77247   2.82546   2.98587   3.02379   3.08348
 Alpha virt. eigenvalues --    3.15342   3.20221   3.45510   3.57407   3.70874
 Alpha virt. eigenvalues --    4.43512   4.52390   4.66568   4.68322   4.84561
          Condensed to atoms (all electrons):
              1          2          3          4          5          6
     1  N    6.668961   0.005748  -0.113861   0.006397   0.502257  -0.035166
     2  H    0.005748   0.315498  -0.024038  -0.001708   0.004611  -0.000085
     3  C   -0.113861  -0.024038   4.936844   0.392452   0.673489  -0.056321
     4  H    0.006397  -0.001708   0.392452   0.467267  -0.025815   0.001146
     5  C    0.502257   0.004611   0.673489  -0.025815   4.697984   0.414901
     6  H   -0.035166  -0.000085  -0.056321   0.001146   0.414901   0.484319
     7  H   -0.031618  -0.000542   0.003482  -0.000081   0.005556  -0.000096
     8  C    0.609453  -0.023059  -0.140939   0.004966  -0.154382   0.007314
     9  N   -0.117708   0.336215   0.371505  -0.043965  -0.086314   0.003385
              7          8          9
     1  N   -0.031618   0.609453  -0.117708
     2  H   -0.000542  -0.023059   0.336215
     3  C    0.003482  -0.140939   0.371505
     4  H   -0.000081   0.004966  -0.043965
     5  C    0.005556  -0.154382  -0.086314
     6  H   -0.000096   0.007314   0.003385
     7  H    0.458334   0.423378  -0.056285
     8  C    0.423378   4.659666   0.411094
     9  N   -0.056285   0.411094   6.780398
 Mulliken atomic charges:
              1
     1  N   -0.494462
     2  H    0.387361
     3  C   -0.042613
     4  H    0.199341
     5  C   -0.032286
     6  H    0.180604
     7  H    0.197873
     8  C    0.202508
     9  N   -0.598326
 Sum of Mulliken charges=   0.00000
 Atomic charges with hydrogens summed into heavy atoms:
              1
     1  N   -0.494462
     2  H    0.000000
     3  C    0.156728
     4  H    0.000000
     5  C    0.148318
     6  H    0.000000
     7  H    0.000000
     8  C    0.400381
     9  N   -0.210965
 Sum of Mulliken charges=   0.00000
 Electronic spatial extent (au):  <R**2>=   258.2663
 Charge=     0.0000 electrons
 Dipole moment (field-independent basis, Debye):
    X=     1.1214    Y=     3.8399    Z=     0.0000  Tot=     4.0003
 Quadrupole moment (field-independent basis, Debye-Ang):
   XX=   -26.3634   YY=   -25.3885   ZZ=   -30.6825
   XY=    -3.3951   XZ=     0.0000   YZ=     0.0000
 Traceless Quadrupole moment (field-independent basis, Debye-Ang):
   XX=     1.1147   YY=     2.0896   ZZ=    -3.2043
   XY=    -3.3951   XZ=     0.0000   YZ=     0.0000
 Octapole moment (field-independent basis, Debye-Ang**2):
  XXX=     0.2820  YYY=    15.9779  ZZZ=     0.0000  XYY=     5.0385
  XXY=     5.4022  XXZ=     0.0000  XZZ=    -0.7349  YZZ=     1.2837
  YYZ=     0.0000  XYZ=     0.0000
 Hexadecapole moment (field-independent basis, Debye-Ang**3):
 XXXX=  -136.4970 YYYY=  -126.0646 ZZZZ=   -29.6999 XXXY=    -3.2419
 XXXZ=     0.0000 YYYX=    -7.2928 YYYZ=     0.0000 ZZZX=     0.0000
 ZZZY=     0.0000 XXYY=   -50.8180 XXZZ=   -33.1945 YYZZ=   -31.5082
 XXYZ=     0.0000 YYXZ=     0.0000 ZZXY=     0.5243
 N-N= 1.735664703841D+02 E-N=-8.736116774115D+02  KE= 2.260487516482D+02
 Symmetry A'   KE= 2.181680088523D+02
 Symmetry A"   KE= 7.880742795900D+00
 ***** Axes restored to original set *****
 -------------------------------------------------------------------
 Center     Atomic                   Forces (Hartrees/Bohr)
 Number     Number              X              Y              Z
 -------------------------------------------------------------------
    1          7           0.090034225    0.000000000    0.091917472
    2          1           0.019018269    0.000000000   -0.081113978
    3          6          -0.083826419    0.000000000    0.019946632
    4          1          -0.070295472    0.000000000   -0.052501575
    5          6          -0.034638199    0.000000000   -0.016678515
    6          1          -0.060336145    0.000000000    0.061132488
    7          1           0.086792852    0.000000000   -0.011205680
    8          6           0.017654840    0.000000000    0.045784489
    9          7           0.035596048    0.000000000   -0.057281333
 -------------------------------------------------------------------
 Cartesian Forces:  Max     0.091917472 RMS     0.047954098

 GradGradGradGradGradGradGradGradGradGradGradGradGradGradGradGradGradGrad
 Berny optimization.
 Internal  Forces:  Max     0.136544020 RMS     0.048501442
 Search for a local minimum.
 Step number   1 out of a maximum of  48
 All quantities printed in internal units (Hartrees-Bohrs-Radians)
 Second derivative matrix not updated -- first step.
     Eigenvalues ---    0.03211   0.03261   0.03288   0.03318   0.03352
     Eigenvalues ---    0.03407   0.16000   0.16000   0.16000   0.16000
     Eigenvalues ---    0.22000   0.22917   0.49193   0.49594   0.49613
     Eigenvalues ---    0.54578   0.60577   0.63413   0.68379   0.73836
     Eigenvalues ---    0.765081000.000001000.000001000.000001000.00000
     Eigenvalues --- 1000.000001000.000001000.000001000.000001000.00000
     Eigenvalues --- 1000.000001000.000001000.000001000.000001000.00000
     Eigenvalues --- 1000.000001000.000001000.00000
 RFO step:  Lambda=-1.17920715D-01.
 Linear search not attempted -- first point.
 Maximum step size (   0.300) exceeded in Quadratic search.
    -- Step size scaled by   0.747
 Iteration  1 RMS(Cart)=  0.06544264 RMS(Int)=  0.00043939
 Iteration  2 RMS(Cart)=  0.00050620 RMS(Int)=  0.00009526
 Iteration  3 RMS(Cart)=  0.00000028 RMS(Int)=  0.00009526
 Variable       Old X    -DE/DX   Delta X   Delta X   Delta X     New X
                                 (Linear)    (Quad)   (Total)
    R1        2.40969   0.12600   0.00000   0.10666   0.10660   2.51629
    R2        2.42167   0.06404   0.00000   0.05483   0.05465   2.47633
    R3        1.77186   0.08331   0.00000   0.08595   0.08595   1.85782
    R4        1.86958   0.08726   0.00000   0.10610   0.10610   1.97568
    R5        2.49323   0.08259   0.00000   0.08395   0.08409   2.57732
    R6        2.38988   0.13654   0.00000   0.11591   0.11605   2.50594
    R7        1.87388   0.08571   0.00000   0.10494   0.10494   1.97882
    R8        1.86977   0.08748   0.00000   0.10640   0.10640   1.97617
    R9        2.41548   0.11654   0.00000   0.10298   0.10293   2.51841
    A1        1.85787   0.00233   0.00000  -0.00668  -0.00697   1.85091
    A2        2.20999   0.01647   0.00000   0.03682   0.03668   2.24667
    A3        2.20602  -0.00061   0.00000  -0.00907  -0.00921   2.19681
    A4        1.86717  -0.01587   0.00000  -0.02774  -0.02747   1.83970
    A5        1.89521   0.01144   0.00000   0.02193   0.02201   1.91722
    A6        2.19177  -0.01091   0.00000  -0.02491  -0.02495   2.16683
    A7        2.19620  -0.00053   0.00000   0.00298   0.00294   2.19913
    A8        2.18150   0.00052   0.00000   0.00260   0.00269   2.18419
    A9        1.91767   0.00340   0.00000   0.00673   0.00656   1.92422
   A10        2.18402  -0.00392   0.00000  -0.00933  -0.00925   2.17477
   A11        2.20124   0.00053   0.00000  -0.00323  -0.00328   2.19796
   A12        2.19509   0.00078   0.00000  -0.00254  -0.00259   2.19250
   A13        1.88685  -0.00131   0.00000   0.00576   0.00587   1.89272
    D1        0.00000   0.00000   0.00000   0.00000   0.00000   0.00000
    D2        3.14159   0.00000   0.00000   0.00000   0.00000   3.14159
    D3        3.14159   0.00000   0.00000   0.00000   0.00000   3.14159
    D4        0.00000   0.00000   0.00000   0.00000   0.00000   0.00000
    D5        3.14159   0.00000   0.00000   0.00000   0.00000   3.14159
    D6        0.00000   0.00000   0.00000   0.00000   0.00000   0.00000
    D7        0.00000   0.00000   0.00000   0.00000   0.00000   0.00000
    D8        3.14159   0.00000   0.00000   0.00000   0.00000   3.14159
    D9        0.00000   0.00000   0.00000   0.00000   0.00000   0.00000
   D10        3.14159   0.00000   0.00000   0.00000   0.00000   3.14159
   D11        3.14159   0.00000   0.00000   0.00000   0.00000   3.14159
   D12        0.00000   0.00000   0.00000   0.00000   0.00000   0.00000
   D13        3.14159   0.00000   0.00000   0.00000   0.00000   3.14159
   D14        0.00000   0.00000   0.00000   0.00000   0.00000   0.00000
   D15        0.00000   0.00000   0.00000   0.00000   0.00000   0.00000
   D16        3.14159   0.00000   0.00000   0.00000   0.00000   3.14159
         Item               Value     Threshold  Converged?
 Maximum Force            0.136544     0.000450     NO 
 RMS     Force            0.048501     0.000300     NO 
 Maximum Displacement     0.185315     0.001800     NO 
 RMS     Displacement     0.065378     0.001200     NO 
 Predicted change in Energy=-6.047794D-02
 GradGradGradGradGradGradGradGradGradGradGradGradGradGradGradGradGradGrad

                          Input orientation:                          
 ---------------------------------------------------------------------
 Center     Atomic     Atomic              Coordinates (Angstroms)
 Number     Number      Type              X           Y           Z
 ---------------------------------------------------------------------
    1          7             0        0.341535    0.000000    1.353440
    2          1             0        0.339159    0.000000   -1.757702
    3          6             0       -1.119637    0.000000   -0.299250
    4          1             0       -2.007821    0.000000   -0.850762
    5          6             0       -0.956099    0.000000    1.054767
    6          1             0       -1.723328    0.000000    1.767420
    7          1             0        2.016814    0.000000    0.095703
    8          6             0        0.977055    0.000000    0.207447
    9          7             0        0.107321    0.000000   -0.802314
 ---------------------------------------------------------------------
                    Distance matrix (angstroms):
                    1          2          3          4          5
     1  N    0.000000
     2  H    3.111143   0.000000
     3  C    2.205994   2.062806   0.000000
     4  H    3.221487   2.516119   1.045483   0.000000
     5  C    1.331562   3.096397   1.363858   2.176502   0.000000
     6  H    2.105952   4.084156   2.153037   2.633593   1.047146
     7  H    2.094866   2.499928   3.161221   4.134427   3.123782
     8  C    1.310415   2.066089   2.157049   3.166906   2.110696
     9  N    2.168440   0.983115   1.326084   2.115697   2.140003
                    6          7          8          9
     6  H    0.000000
     7  H    4.096743   0.000000
     8  C    3.118587   1.045746   0.000000
     9  N    3.155124   2.110118   1.332687   0.000000
 Stoichiometry    C3H4N2
 Framework group  CS[SG(C3H4N2)]
 Deg. of freedom    15
 Full point group                 CS      NOp   2
 Largest Abelian subgroup         CS      NOp   2
 Largest concise Abelian subgroup C1      NOp   1
                         Standard orientation:                         
 ---------------------------------------------------------------------
 Center     Atomic     Atomic              Coordinates (Angstroms)
 Number     Number      Type              X           Y           Z
 ---------------------------------------------------------------------
    1          7             0       -0.711507   -0.971718    0.000000
    2          1             0       -0.011769    2.059713    0.000000
    3          6             0        1.082961    0.311361    0.000000
    4          1             0        2.072172    0.649733    0.000000
    5          6             0        0.620055   -0.971537    0.000000
    6          1             0        1.208003   -1.838042    0.000000
    7          1             0       -2.062205    0.629556    0.000000
    8          6             0       -1.073957    0.287574    0.000000
    9          7             0        0.000000    1.076668    0.000000
 ---------------------------------------------------------------------
 Rotational constants (GHZ):     10.2058868      9.7995789      4.9993034
 Standard basis: 6-31G(d) (6D, 7F)
 There are    63 symmetry adapted basis functions of A'  symmetry.
 There are    20 symmetry adapted basis functions of A"  symmetry.
 Integral buffers will be    131072 words long.
 Raffenetti 1 integral format.
 Two-electron integral symmetry is turned on.
    83 basis functions,   156 primitive gaussians,    83 cartesian basis functions
    18 alpha electrons       18 beta electrons
       nuclear repulsion energy       166.8401349195 Hartrees.
 NAtoms=    9 NActive=    9 NUniq=    9 SFac= 1.00D+00 NAtFMM=   60 Big=F
 One-electron integrals computed using PRISM.
 NBasis=    83 RedAO= T  NBF=    63    20
 NBsUse=    83 1.00D-06 NBFU=    63    20
 Initial guess read from the read-write file:
 Initial guess orbital symmetries:
       Occupied  (A') (A') (A') (A') (A') (A') (A') (A') (A') (A')
                 (A') (A') (A") (A') (A') (A') (A") (A")
       Virtual   (A") (A') (A") (A') (A') (A') (A') (A') (A') (A')
                 (A') (A') (A") (A") (A') (A") (A') (A') (A') (A')
                 (A") (A') (A') (A') (A") (A') (A') (A') (A') (A')
                 (A') (A") (A') (A') (A") (A") (A') (A') (A") (A")
                 (A') (A') (A') (A') (A') (A') (A") (A") (A') (A")
                 (A') (A") (A') (A') (A") (A') (A') (A') (A') (A')
                 (A') (A') (A') (A') (A')
 Harris functional with IExCor=  205 diagonalized for initial guess.
 ExpMin= 1.61D-01 ExpMax= 4.17D+03 ExpMxC= 6.27D+02 IAcc=1 IRadAn=         1 AccDes= 1.00D-06
 HarFok:  IExCor= 205 AccDes= 1.00D-06 IRadAn=         1 IDoV=1
 ScaDFX=  1.000000  1.000000  1.000000  1.000000
 Requested convergence on RMS density matrix=1.00D-08 within 128 cycles.
 Requested convergence on MAX density matrix=1.00D-06.
 Requested convergence on             energy=1.00D-06.
 No special actions if energy rises.
 Keep R1 integrals in memory in canonical form, NReq=     7236413.
 SCF Done:  E(RHF) =  -224.808784473     A.U. after   13 cycles
             Convg  =    0.6941D-08             -V/T =  2.0000
             S**2   =   0.0000
 ExpMin= 1.61D-01 ExpMax= 4.17D+03 ExpMxC= 6.27D+02 IAcc=1 IRadAn=         1 AccDes= 1.00D-06
 HarFok:  IExCor= 205 AccDes= 1.00D-06 IRadAn=         1 IDoV=1
 ScaDFX=  1.000000  1.000000  1.000000  1.000000
 Range of M.O.s used for correlation:     6    83
 NBasis=    83 NAE=    18 NBE=    18 NFC=     5 NFV=     0
 NROrb=     78 NOA=    13 NOB=    13 NVA=    65 NVB=    65
 Spin components of T(2) and E(2):
     alpha-alpha T2 =       0.3242011942D-01 E2=     -0.9539145287D-01
     alpha-beta  T2 =       0.1686692857D+00 E2=     -0.5096669065D+00
     beta-beta   T2 =       0.3242011942D-01 E2=     -0.9539145287D-01
 ANorm=    0.1110634739D+01
 E2=       -0.7004498123D+00 EUMP2=       -0.22550923428491D+03
 R2 and R3 integrals will be kept in memory, NReq=    12975682.
 DD1Dir will call FoFMem   1 times, MxPair=       182
 NAB=    91 NAA=     0 NBB=     0.
 E3=       -0.14399215D-01        EUMP3=      -0.22552363350D+03
 Largest amplitude= 6.61D-02
 Discarding MO integrals.
 DoAtom=TTTTTTTTT
          Differentiating once with respect to electric field.
                with respect to dipole field.
          Differentiating once with respect to nuclear coordinates.
          Store integrals in memory, NReq=     6898761.
          There are   1 degrees of freedom in the 1st order CPHF.
     1 vectors were produced by pass  0.
 AX will form   1 AO Fock derivatives at one time.
     1 vectors were produced by pass  1.
     1 vectors were produced by pass  2.
     1 vectors were produced by pass  3.
     1 vectors were produced by pass  4.
     1 vectors were produced by pass  5.
     1 vectors were produced by pass  6.
     1 vectors were produced by pass  7.
     1 vectors were produced by pass  8.
     1 vectors were produced by pass  9.
     1 vectors were produced by pass 10.
     1 vectors were produced by pass 11.
     1 vectors were produced by pass 12.
     1 vectors were produced by pass 13.
     1 vectors were produced by pass 14.
 Inv2:  IOpt= 1 Iter= 1 AM= 5.13D-16 Conv= 1.00D-12.
 Inverted reduced A of dimension   15 with in-core refinement.
 End of Minotr Frequency-dependent properties file   721 does not exist.
 ***** Axes restored to original set *****
 -------------------------------------------------------------------
 Center     Atomic                   Forces (Hartrees/Bohr)
 Number     Number              X              Y              Z
 -------------------------------------------------------------------
    1          7           0.036400327    0.000000000    0.029516056
    2          1           0.005982327    0.000000000   -0.025205138
    3          6          -0.031435016    0.000000000    0.023024266
    4          1          -0.019960695    0.000000000   -0.020154667
    5          6          -0.015662054    0.000000000   -0.019153036
    6          1          -0.017340952    0.000000000    0.021885314
    7          1           0.027609787    0.000000000   -0.005333370
    8          6          -0.004414920    0.000000000    0.021877420
    9          7           0.018821196    0.000000000   -0.026456846
 -------------------------------------------------------------------
 Cartesian Forces:  Max     0.036400327 RMS     0.018181248

 GradGradGradGradGradGradGradGradGradGradGradGradGradGradGradGradGradGrad
 Berny optimization.
 Internal  Forces:  Max     0.047755123 RMS     0.015597660
 Search for a local minimum.
 Step number   2 out of a maximum of  48
 All quantities printed in internal units (Hartrees-Bohrs-Radians)
 Update second derivatives using D2CorX and points  1  2
 Trust test= 9.35D-01 RLast= 3.00D-01 DXMaxT set to 4.24D-01
     Eigenvalues ---    0.03210   0.03262   0.03288   0.03314   0.03351
     Eigenvalues ---    0.03406   0.15921   0.16000   0.16000   0.16001
     Eigenvalues ---    0.22115   0.22844   0.49304   0.49602   0.51291
     Eigenvalues ---    0.55659   0.61098   0.64013   0.70377   0.74229
     Eigenvalues ---    0.766451000.000001000.000001000.000001000.00000
     Eigenvalues --- 1000.000001000.000001000.000001000.000001000.00000
     Eigenvalues --- 1000.000001000.000001000.000001000.000001000.00000
     Eigenvalues --- 1000.000001000.000001000.00000
 RFO step:  Lambda=-2.16145865D-03.
 Quartic linear search produced a step of  0.60443.
 Iteration  1 RMS(Cart)=  0.04179734 RMS(Int)=  0.00078406
 Iteration  2 RMS(Cart)=  0.00092333 RMS(Int)=  0.00006818
 Iteration  3 RMS(Cart)=  0.00000102 RMS(Int)=  0.00006817
 Iteration  4 RMS(Cart)=  0.00000000 RMS(Int)=  0.00006817
 Variable       Old X    -DE/DX   Delta X   Delta X   Delta X     New X
                                 (Linear)    (Quad)   (Total)
    R1        2.51629   0.04355   0.06443   0.00585   0.07018   2.58647
    R2        2.47633   0.01504   0.03303  -0.01265   0.02029   2.49662
    R3        1.85782   0.02591   0.05195  -0.00025   0.05170   1.90952
    R4        1.97568   0.02759   0.06413   0.00403   0.06816   2.04384
    R5        2.57732   0.01860   0.05082  -0.01856   0.03230   2.60961
    R6        2.50594   0.04776   0.07015   0.00815   0.07841   2.58435
    R7        1.97882   0.02760   0.06343   0.00575   0.06917   2.04799
    R8        1.97617   0.02802   0.06431   0.00522   0.06953   2.04570
    R9        2.51841   0.03551   0.06222  -0.00377   0.05849   2.57690
    A1        1.85091  -0.00189  -0.00421  -0.02346  -0.02791   1.82299
    A2        2.24667   0.00845   0.02217   0.04356   0.06566   2.31233
    A3        2.19681  -0.00457  -0.00557  -0.04815  -0.05379   2.14302
    A4        1.83970  -0.00388  -0.01660   0.00458  -0.01186   1.82784
    A5        1.91722   0.00496   0.01330   0.01278   0.02604   1.94326
    A6        2.16683  -0.00667  -0.01508  -0.03654  -0.05160   2.11523
    A7        2.19913   0.00171   0.00177   0.02376   0.02556   2.22469
    A8        2.18419  -0.00014   0.00163   0.00399   0.00564   2.18983
    A9        1.92422   0.00493   0.00396   0.02834   0.03227   1.95650
   A10        2.17477  -0.00479  -0.00559  -0.03234  -0.03791   2.13686
   A11        2.19796   0.00194  -0.00198   0.01021   0.00814   2.20611
   A12        2.19250   0.00218  -0.00157   0.01204   0.01039   2.20289
   A13        1.89272  -0.00411   0.00355  -0.02225  -0.01854   1.87419
    D1        0.00000   0.00000   0.00000   0.00000   0.00000   0.00000
    D2        3.14159   0.00000   0.00000   0.00000   0.00000   3.14159
    D3        3.14159   0.00000   0.00000   0.00000   0.00000   3.14159
    D4        0.00000   0.00000   0.00000   0.00000   0.00000   0.00000
    D5        3.14159   0.00000   0.00000   0.00000   0.00000   3.14159
    D6        0.00000   0.00000   0.00000   0.00000   0.00000   0.00000
    D7        0.00000   0.00000   0.00000   0.00000   0.00000   0.00000
    D8        3.14159   0.00000   0.00000   0.00000   0.00000   3.14159
    D9        0.00000   0.00000   0.00000   0.00000   0.00000   0.00000
   D10        3.14159   0.00000   0.00000   0.00000   0.00000   3.14159
   D11        3.14159   0.00000   0.00000   0.00000   0.00000   3.14159
   D12        0.00000   0.00000   0.00000   0.00000   0.00000   0.00000
   D13        3.14159   0.00000   0.00000   0.00000   0.00000   3.14159
   D14        0.00000   0.00000   0.00000   0.00000   0.00000   0.00000
   D15        0.00000   0.00000   0.00000   0.00000   0.00000   0.00000
   D16        3.14159   0.00000   0.00000   0.00000   0.00000   3.14159
         Item               Value     Threshold  Converged?
 Maximum Force            0.047755     0.000450     NO 
 RMS     Force            0.015598     0.000300     NO 
 Maximum Displacement     0.129838     0.001800     NO 
 RMS     Displacement     0.041704     0.001200     NO 
 Predicted change in Energy=-6.709054D-03
 GradGradGradGradGradGradGradGradGradGradGradGradGradGradGradGradGradGrad

                          Input orientation:                          
 ---------------------------------------------------------------------
 Center     Atomic     Atomic              Coordinates (Angstroms)
 Number     Number      Type              X           Y           Z
 ---------------------------------------------------------------------
    1          7             0        0.361164    0.000000    1.391718
    2          1             0        0.356228    0.000000   -1.801885
    3          6             0       -1.152872    0.000000   -0.300534
    4          1             0       -2.040736    0.000000   -0.918154
    5          6             0       -0.968724    0.000000    1.068080
    6          1             0       -1.733328    0.000000    1.836127
    7          1             0        2.057667    0.000000    0.088277
    8          6             0        0.983999    0.000000    0.226591
    9          7             0        0.111603    0.000000   -0.821470
 ---------------------------------------------------------------------
                    Distance matrix (angstroms):
                    1          2          3          4          5
     1  N    0.000000
     2  H    3.193607   0.000000
     3  C    2.270688   2.128717   0.000000
     4  H    3.332362   2.554685   1.081553   0.000000
     5  C    1.368702   3.161044   1.380948   2.257064   0.000000
     6  H    2.141121   4.195400   2.214103   2.771384   1.083750
     7  H    2.139411   2.543150   3.233996   4.220167   3.181047
     8  C    1.321152   2.123397   2.200927   3.234110   2.126319
     9  N    2.227214   1.010473   1.367578   2.154509   2.176582
                    6          7          8          9
     6  H    0.000000
     7  H    4.174520   0.000000
     8  C    3.158239   1.082540   0.000000
     9  N    3.235212   2.148210   1.363638   0.000000
 Stoichiometry    C3H4N2
 Framework group  CS[SG(C3H4N2)]
 Deg. of freedom    15
 Full point group                 CS      NOp   2
 Largest Abelian subgroup         CS      NOp   2
 Largest concise Abelian subgroup C1      NOp   1
                         Standard orientation:                         
 ---------------------------------------------------------------------
 Center     Atomic     Atomic              Coordinates (Angstroms)
 Number     Number      Type              X           Y           Z
 ---------------------------------------------------------------------
    1          7             0       -0.738535   -0.997261    0.000000
    2          1             0       -0.019007    2.114235    0.000000
    3          6             0        1.115819    0.313233    0.000000
    4          1             0        2.119384    0.716487    0.000000
    5          6             0        0.630051   -0.979456    0.000000
    6          1             0        1.203376   -1.899138    0.000000
    7          1             0       -2.100302    0.652790    0.000000
    8          6             0       -1.084821    0.277701    0.000000
    9          7             0        0.000000    1.103941    0.000000
 ---------------------------------------------------------------------
 Rotational constants (GHZ):      9.8669102      9.3049382      4.7888439
 Standard basis: 6-31G(d) (6D, 7F)
 There are    63 symmetry adapted basis functions of A'  symmetry.
 There are    20 symmetry adapted basis functions of A"  symmetry.
 Integral buffers will be    131072 words long.
 Raffenetti 1 integral format.
 Two-electron integral symmetry is turned on.
    83 basis functions,   156 primitive gaussians,    83 cartesian basis functions
    18 alpha electrons       18 beta electrons
       nuclear repulsion energy       163.2320212778 Hartrees.
 NAtoms=    9 NActive=    9 NUniq=    9 SFac= 1.00D+00 NAtFMM=   60 Big=F
 One-electron integrals computed using PRISM.
 NBasis=    83 RedAO= T  NBF=    63    20
 NBsUse=    83 1.00D-06 NBFU=    63    20
 Initial guess read from the read-write file:
 Initial guess orbital symmetries:
       Occupied  (A') (A') (A') (A') (A') (A') (A') (A') (A') (A')
                 (A') (A') (A") (A') (A') (A') (A") (A")
       Virtual   (A") (A') (A") (A') (A') (A') (A') (A') (A') (A')
                 (A') (A') (A") (A") (A') (A') (A") (A') (A') (A')
                 (A") (A') (A') (A') (A") (A') (A') (A') (A') (A')
                 (A') (A') (A') (A") (A") (A") (A') (A') (A") (A")
                 (A') (A') (A') (A') (A') (A') (A") (A") (A') (A')
                 (A") (A") (A') (A') (A") (A') (A') (A') (A') (A')
                 (A') (A') (A') (A') (A')
 Harris functional with IExCor=  205 diagonalized for initial guess.
 ExpMin= 1.61D-01 ExpMax= 4.17D+03 ExpMxC= 6.27D+02 IAcc=1 IRadAn=         1 AccDes= 1.00D-06
 HarFok:  IExCor= 205 AccDes= 1.00D-06 IRadAn=         1 IDoV=1
 ScaDFX=  1.000000  1.000000  1.000000  1.000000
 Requested convergence on RMS density matrix=1.00D-08 within 128 cycles.
 Requested convergence on MAX density matrix=1.00D-06.
 Requested convergence on             energy=1.00D-06.
 No special actions if energy rises.
 Keep R1 integrals in memory in canonical form, NReq=     7236413.
 SCF Done:  E(RHF) =  -224.811367716     A.U. after   13 cycles
             Convg  =    0.4032D-08             -V/T =  2.0027
             S**2   =   0.0000
 ExpMin= 1.61D-01 ExpMax= 4.17D+03 ExpMxC= 6.27D+02 IAcc=1 IRadAn=         1 AccDes= 1.00D-06
 HarFok:  IExCor= 205 AccDes= 1.00D-06 IRadAn=         1 IDoV=1
 ScaDFX=  1.000000  1.000000  1.000000  1.000000
 Range of M.O.s used for correlation:     6    83
 NBasis=    83 NAE=    18 NBE=    18 NFC=     5 NFV=     0
 NROrb=     78 NOA=    13 NOB=    13 NVA=    65 NVB=    65
 Spin components of T(2) and E(2):
     alpha-alpha T2 =       0.3329982350D-01 E2=     -0.9577441182D-01
     alpha-beta  T2 =       0.1754393056D+00 E2=     -0.5160791691D+00
     beta-beta   T2 =       0.3329982350D-01 E2=     -0.9577441182D-01
 ANorm=    0.1114468013D+01
 E2=       -0.7076279927D+00 EUMP2=       -0.22551899570918D+03
 R2 and R3 integrals will be kept in memory, NReq=    12975682.
 DD1Dir will call FoFMem   1 times, MxPair=       182
 NAB=    91 NAA=     0 NBB=     0.
 E3=       -0.13700868D-01        EUMP3=      -0.22553269658D+03
 Largest amplitude= 6.68D-02
 Discarding MO integrals.
 DoAtom=TTTTTTTTT
          Differentiating once with respect to electric field.
                with respect to dipole field.
          Differentiating once with respect to nuclear coordinates.
          Store integrals in memory, NReq=     6898761.
          There are   1 degrees of freedom in the 1st order CPHF.
     1 vectors were produced by pass  0.
 AX will form   1 AO Fock derivatives at one time.
     1 vectors were produced by pass  1.
     1 vectors were produced by pass  2.
     1 vectors were produced by pass  3.
     1 vectors were produced by pass  4.
     1 vectors were produced by pass  5.
     1 vectors were produced by pass  6.
     1 vectors were produced by pass  7.
     1 vectors were produced by pass  8.
     1 vectors were produced by pass  9.
     1 vectors were produced by pass 10.
     1 vectors were produced by pass 11.
     1 vectors were produced by pass 12.
     1 vectors were produced by pass 13.
     1 vectors were produced by pass 14.
 Inv2:  IOpt= 1 Iter= 1 AM= 5.82D-16 Conv= 1.00D-12.
 Inverted reduced A of dimension   15 with in-core refinement.
 End of Minotr Frequency-dependent properties file   721 does not exist.
 ***** Axes restored to original set *****
 -------------------------------------------------------------------
 Center     Atomic                   Forces (Hartrees/Bohr)
 Number     Number              X              Y              Z
 -------------------------------------------------------------------
    1          7           0.008203012    0.000000000   -0.007529371
    2          1          -0.000313896    0.000000000    0.002316094
    3          6          -0.007222498    0.000000000    0.011044960
    4          1           0.001678384    0.000000000    0.001120067
    5          6          -0.013285112    0.000000000   -0.005861423
    6          1           0.001228966    0.000000000   -0.001476955
    7          1          -0.001097820    0.000000000   -0.000071960
    8          6           0.003008379    0.000000000    0.004158030
    9          7           0.007800586    0.000000000   -0.003699442
 -------------------------------------------------------------------
 Cartesian Forces:  Max     0.013285112 RMS     0.004808549

 GradGradGradGradGradGradGradGradGradGradGradGradGradGradGradGradGradGrad
 Berny optimization.
 Internal  Forces:  Max     0.009248915 RMS     0.002927386
 Search for a local minimum.
 Step number   3 out of a maximum of  48
 All quantities printed in internal units (Hartrees-Bohrs-Radians)
 Update second derivatives using D2CorX and points  1  2  3
 Trust test= 1.35D+00 RLast= 2.19D-01 DXMaxT set to 6.00D-01
     Eigenvalues ---    0.03205   0.03261   0.03287   0.03304   0.03349
     Eigenvalues ---    0.03405   0.15497   0.16000   0.16001   0.16003
     Eigenvalues ---    0.22161   0.23513   0.45354   0.49330   0.49621
     Eigenvalues ---    0.55887   0.59095   0.63927   0.65629   0.74395
     Eigenvalues ---    0.749831000.000001000.000001000.000001000.00000
     Eigenvalues --- 1000.000001000.000001000.000001000.000001000.00000
     Eigenvalues --- 1000.000001000.000001000.000001000.000001000.00000
     Eigenvalues --- 1000.000001000.000001000.00000
 RFO step:  Lambda=-5.97342674D-04.
 Quartic linear search produced a step of -0.00014.
 Iteration  1 RMS(Cart)=  0.00655444 RMS(Int)=  0.00002310
 Iteration  2 RMS(Cart)=  0.00002111 RMS(Int)=  0.00000547
 Iteration  3 RMS(Cart)=  0.00000000 RMS(Int)=  0.00000547
 Variable       Old X    -DE/DX   Delta X   Delta X   Delta X     New X
                                 (Linear)    (Quad)   (Total)
    R1        2.58647   0.00846  -0.00001   0.01350   0.01350   2.59997
    R2        2.49662  -0.00507   0.00000  -0.00638  -0.00639   2.49023
    R3        1.90952  -0.00232  -0.00001  -0.00208  -0.00209   1.90743
    R4        2.04384  -0.00202  -0.00001  -0.00181  -0.00182   2.04202
    R5        2.60961  -0.00900   0.00000  -0.01297  -0.01296   2.59665
    R6        2.58435   0.00925  -0.00001   0.01459   0.01458   2.59893
    R7        2.04799  -0.00191  -0.00001  -0.00162  -0.00163   2.04636
    R8        2.04570  -0.00108  -0.00001   0.00011   0.00010   2.04580
    R9        2.57690  -0.00093  -0.00001   0.00072   0.00071   2.57761
    A1        1.82299   0.00448   0.00000   0.01634   0.01635   1.83935
    A2        2.31233  -0.00022  -0.00001  -0.00014  -0.00015   2.31218
    A3        2.14302  -0.00030   0.00001  -0.00354  -0.00353   2.13949
    A4        1.82784   0.00052   0.00000   0.00368   0.00368   1.83152
    A5        1.94326  -0.00282   0.00000  -0.01143  -0.01142   1.93184
    A6        2.11523   0.00159   0.00001   0.00587   0.00587   2.12110
    A7        2.22469   0.00124   0.00000   0.00556   0.00555   2.23024
    A8        2.18983   0.00169   0.00000   0.00831   0.00832   2.19815
    A9        1.95650  -0.00295   0.00000  -0.01291  -0.01293   1.94357
   A10        2.13686   0.00126   0.00001   0.00460   0.00461   2.14147
   A11        2.20611  -0.00014   0.00000  -0.00067  -0.00066   2.20544
   A12        2.20289  -0.00063   0.00000  -0.00366  -0.00365   2.19924
   A13        1.87419   0.00077   0.00000   0.00432   0.00431   1.87850
    D1        0.00000   0.00000   0.00000   0.00000   0.00000   0.00000
    D2        3.14159   0.00000   0.00000   0.00000   0.00000   3.14159
    D3        3.14159   0.00000   0.00000   0.00000   0.00000   3.14159
    D4        0.00000   0.00000   0.00000   0.00000   0.00000   0.00000
    D5        3.14159   0.00000   0.00000   0.00000   0.00000   3.14159
    D6        0.00000   0.00000   0.00000   0.00000   0.00000   0.00000
    D7        0.00000   0.00000   0.00000   0.00000   0.00000   0.00000
    D8        3.14159   0.00000   0.00000   0.00000   0.00000   3.14159
    D9        0.00000   0.00000   0.00000   0.00000   0.00000   0.00000
   D10        3.14159   0.00000   0.00000   0.00000   0.00000   3.14159
   D11        3.14159   0.00000   0.00000   0.00000   0.00000   3.14159
   D12        0.00000   0.00000   0.00000   0.00000   0.00000   0.00000
   D13        3.14159   0.00000   0.00000   0.00000   0.00000   3.14159
   D14        0.00000   0.00000   0.00000   0.00000   0.00000   0.00000
   D15        0.00000   0.00000   0.00000   0.00000   0.00000   0.00000
   D16        3.14159   0.00000   0.00000   0.00000   0.00000   3.14159
         Item               Value     Threshold  Converged?
 Maximum Force            0.009249     0.000450     NO 
 RMS     Force            0.002927     0.000300     NO 
 Maximum Displacement     0.018767     0.001800     NO 
 RMS     Displacement     0.006551     0.001200     NO 
 Predicted change in Energy=-2.990887D-04
 GradGradGradGradGradGradGradGradGradGradGradGradGradGradGradGradGradGrad

                          Input orientation:                          
 ---------------------------------------------------------------------
 Center     Atomic     Atomic              Coordinates (Angstroms)
 Number     Number      Type              X           Y           Z
 ---------------------------------------------------------------------
    1          7             0        0.361508    0.000000    1.381787
    2          1             0        0.357788    0.000000   -1.799040
    3          6             0       -1.156816    0.000000   -0.294943
    4          1             0       -2.042000    0.000000   -0.914722
    5          6             0       -0.977948    0.000000    1.067453
    6          1             0       -1.740144    0.000000    1.836676
    7          1             0        2.065882    0.000000    0.086224
    8          6             0        0.992187    0.000000    0.224737
    9          7             0        0.114543    0.000000   -0.819422
 ---------------------------------------------------------------------
                    Distance matrix (angstroms):
                    1          2          3          4          5
     1  N    0.000000
     2  H    3.180829   0.000000
     3  C    2.262019   2.134557   0.000000
     4  H    3.324275   2.557538   1.080591   0.000000
     5  C    1.375844   3.162432   1.374088   2.249717   0.000000
     6  H    2.150317   4.197589   2.209994   2.767908   1.082888
     7  H    2.140882   2.543975   3.245161   4.228072   3.198079
     8  C    1.317771   2.120881   2.210946   3.241089   2.142802
     9  N    2.215019   1.009366   1.375293   2.158648   2.180329
                    6          7          8          9
     6  H    0.000000
     7  H    4.189262   0.000000
     8  C    3.172378   1.082593   0.000000
     9  N    3.239556   2.151260   1.364012   0.000000
 Stoichiometry    C3H4N2
 Framework group  CS[SG(C3H4N2)]
 Deg. of freedom    15
 Full point group                 CS      NOp   2
 Largest Abelian subgroup         CS      NOp   2
 Largest concise Abelian subgroup C1      NOp   1
                         Standard orientation:                         
 ---------------------------------------------------------------------
 Center     Atomic     Atomic              Coordinates (Angstroms)
 Number     Number      Type              X           Y           Z
 ---------------------------------------------------------------------
    1          7             0       -0.740266   -0.985877    0.000000
    2          1             0       -0.014486    2.111043    0.000000
    3          6             0        1.119085    0.302356    0.000000
    4          1             0        2.121865    0.704984    0.000000
    5          6             0        0.635576   -0.983854    0.000000
    6          1             0        1.203229   -1.906035    0.000000
    7          1             0       -2.105997    0.662806    0.000000
    8          6             0       -1.091786    0.284144    0.000000
    9          7             0        0.000000    1.101781    0.000000
 ---------------------------------------------------------------------
 Rotational constants (GHZ):      9.7412413      9.3989486      4.7835171
 Standard basis: 6-31G(d) (6D, 7F)
 There are    63 symmetry adapted basis functions of A'  symmetry.
 There are    20 symmetry adapted basis functions of A"  symmetry.
 Integral buffers will be    131072 words long.
 Raffenetti 1 integral format.
 Two-electron integral symmetry is turned on.
    83 basis functions,   156 primitive gaussians,    83 cartesian basis functions
    18 alpha electrons       18 beta electrons
       nuclear repulsion energy       163.1287929971 Hartrees.
 NAtoms=    9 NActive=    9 NUniq=    9 SFac= 1.00D+00 NAtFMM=   60 Big=F
 One-electron integrals computed using PRISM.
 NBasis=    83 RedAO= T  NBF=    63    20
 NBsUse=    83 1.00D-06 NBFU=    63    20
 Initial guess read from the read-write file:
 Initial guess orbital symmetries:
       Occupied  (A') (A') (A') (A') (A') (A') (A') (A') (A') (A')
                 (A') (A') (A') (A") (A') (A') (A") (A")
       Virtual   (A") (A') (A") (A') (A') (A') (A') (A') (A') (A')
                 (A') (A') (A") (A') (A") (A') (A") (A') (A') (A')
                 (A") (A') (A') (A') (A") (A') (A') (A') (A') (A')
                 (A') (A') (A') (A") (A") (A") (A') (A') (A") (A")
                 (A') (A') (A') (A') (A') (A') (A") (A") (A') (A')
                 (A") (A") (A') (A") (A') (A') (A') (A') (A') (A')
                 (A') (A') (A') (A') (A')
 Requested convergence on RMS density matrix=1.00D-08 within 128 cycles.
 Requested convergence on MAX density matrix=1.00D-06.
 Requested convergence on             energy=1.00D-06.
 No special actions if energy rises.
 Keep R1 integrals in memory in canonical form, NReq=     7236413.
 SCF Done:  E(RHF) =  -224.811919014     A.U. after   10 cycles
             Convg  =    0.7402D-08             -V/T =  2.0028
             S**2   =   0.0000
 ExpMin= 1.61D-01 ExpMax= 4.17D+03 ExpMxC= 6.27D+02 IAcc=1 IRadAn=         1 AccDes= 1.00D-06
 HarFok:  IExCor= 205 AccDes= 1.00D-06 IRadAn=         1 IDoV=1
 ScaDFX=  1.000000  1.000000  1.000000  1.000000
 Range of M.O.s used for correlation:     6    83
 NBasis=    83 NAE=    18 NBE=    18 NFC=     5 NFV=     0
 NROrb=     78 NOA=    13 NOB=    13 NVA=    65 NVB=    65
 Spin components of T(2) and E(2):
     alpha-alpha T2 =       0.3324214792D-01 E2=     -0.9565806510D-01
     alpha-beta  T2 =       0.1752758006D+00 E2=     -0.5158615088D+00
     beta-beta   T2 =       0.3324214792D-01 E2=     -0.9565806510D-01
 ANorm=    0.1114342899D+01
 E2=       -0.7071776390D+00 EUMP2=       -0.22551909665325D+03
 R2 and R3 integrals will be kept in memory, NReq=    12975682.
 DD1Dir will call FoFMem   1 times, MxPair=       182
 NAB=    91 NAA=     0 NBB=     0.
 E3=       -0.13890549D-01        EUMP3=      -0.22553298720D+03
 Largest amplitude= 6.61D-02
 Discarding MO integrals.
 DoAtom=TTTTTTTTT
          Differentiating once with respect to electric field.
                with respect to dipole field.
          Differentiating once with respect to nuclear coordinates.
          Store integrals in memory, NReq=     6898761.
          There are   1 degrees of freedom in the 1st order CPHF.
     1 vectors were produced by pass  0.
 AX will form   1 AO Fock derivatives at one time.
     1 vectors were produced by pass  1.
     1 vectors were produced by pass  2.
     1 vectors were produced by pass  3.
     1 vectors were produced by pass  4.
     1 vectors were produced by pass  5.
     1 vectors were produced by pass  6.
     1 vectors were produced by pass  7.
     1 vectors were produced by pass  8.
     1 vectors were produced by pass  9.
     1 vectors were produced by pass 10.
     1 vectors were produced by pass 11.
     1 vectors were produced by pass 12.
     1 vectors were produced by pass 13.
     1 vectors were produced by pass 14.
 Inv2:  IOpt= 1 Iter= 1 AM= 3.00D-16 Conv= 1.00D-12.
 Inverted reduced A of dimension   15 with in-core refinement.
 End of Minotr Frequency-dependent properties file   721 does not exist.
 ***** Axes restored to original set *****
 -------------------------------------------------------------------
 Center     Atomic                   Forces (Hartrees/Bohr)
 Number     Number              X              Y              Z
 -------------------------------------------------------------------
    1          7           0.005671897    0.000000000    0.000656974
    2          1          -0.000729191    0.000000000    0.001039861
    3          6          -0.001800304    0.000000000    0.003554239
    4          1           0.001203080    0.000000000    0.000370829
    5          6          -0.003195422    0.000000000   -0.004051587
    6          1           0.001524578    0.000000000   -0.000825387
    7          1          -0.001302261    0.000000000    0.000254938
    8          6          -0.004501025    0.000000000    0.003110583
    9          7           0.003128648    0.000000000   -0.004110450
 -------------------------------------------------------------------
 Cartesian Forces:  Max     0.005671897 RMS     0.002274541

 GradGradGradGradGradGradGradGradGradGradGradGradGradGradGradGradGradGrad
 Berny optimization.
 Internal  Forces:  Max     0.003160770 RMS     0.001194195
 Search for a local minimum.
 Step number   4 out of a maximum of  48
 All quantities printed in internal units (Hartrees-Bohrs-Radians)
 Update second derivatives using D2CorX and points  1  2  3  4
 Trust test= 9.72D-01 RLast= 3.73D-02 DXMaxT set to 6.00D-01
     Eigenvalues ---    0.03205   0.03261   0.03287   0.03304   0.03350
     Eigenvalues ---    0.03405   0.15109   0.15999   0.16001   0.16056
     Eigenvalues ---    0.21686   0.32243   0.46106   0.49109   0.49618
     Eigenvalues ---    0.49707   0.56395   0.60420   0.64413   0.71145
     Eigenvalues ---    0.770321000.000001000.000001000.000001000.00000
     Eigenvalues --- 1000.000001000.000001000.000001000.000001000.00000
     Eigenvalues --- 1000.000001000.000001000.000001000.000001000.00000
     Eigenvalues --- 1000.000001000.000001000.00000
 RFO step:  Lambda=-1.41668162D-04.
 Quartic linear search produced a step of -0.02450.
 Iteration  1 RMS(Cart)=  0.00258105 RMS(Int)=  0.00000593
 Iteration  2 RMS(Cart)=  0.00000572 RMS(Int)=  0.00000357
 Iteration  3 RMS(Cart)=  0.00000000 RMS(Int)=  0.00000357
 Variable       Old X    -DE/DX   Delta X   Delta X   Delta X     New X
                                 (Linear)    (Quad)   (Total)
    R1        2.59997   0.00236  -0.00033   0.00735   0.00702   2.60699
    R2        2.49023  -0.00316   0.00016  -0.00569  -0.00553   2.48470
    R3        1.90743  -0.00118   0.00005  -0.00179  -0.00174   1.90569
    R4        2.04202  -0.00120   0.00004  -0.00194  -0.00190   2.04012
    R5        2.59665  -0.00262   0.00032  -0.00668  -0.00637   2.59028
    R6        2.59893   0.00081  -0.00036   0.00582   0.00546   2.60439
    R7        2.04636  -0.00166   0.00004  -0.00284  -0.00280   2.04356
    R8        2.04580  -0.00132   0.00000  -0.00169  -0.00169   2.04412
    R9        2.57761   0.00008  -0.00002   0.00100   0.00099   2.57859
    A1        1.83935  -0.00221  -0.00040  -0.00557  -0.00597   1.83338
    A2        2.31218   0.00036   0.00000   0.00230   0.00230   2.31448
    A3        2.13949  -0.00043   0.00009  -0.00391  -0.00382   2.13566
    A4        1.83152   0.00006  -0.00009   0.00162   0.00152   1.83304
    A5        1.93184   0.00115   0.00028   0.00241   0.00268   1.93452
    A6        2.12110  -0.00109  -0.00014  -0.00444  -0.00458   2.11652
    A7        2.23024  -0.00006  -0.00014   0.00203   0.00190   2.23214
    A8        2.19815  -0.00145  -0.00020  -0.00391  -0.00412   2.19403
    A9        1.94357   0.00273   0.00032   0.00782   0.00814   1.95171
   A10        2.14147  -0.00128  -0.00011  -0.00391  -0.00403   2.13744
   A11        2.20544   0.00043   0.00002   0.00087   0.00088   2.20633
   A12        2.19924   0.00130   0.00009   0.00540   0.00549   2.20473
   A13        1.87850  -0.00173  -0.00011  -0.00627  -0.00637   1.87213
    D1        0.00000   0.00000   0.00000   0.00000   0.00000   0.00000
    D2        3.14159   0.00000   0.00000   0.00000   0.00000   3.14159
    D3        3.14159   0.00000   0.00000   0.00000   0.00000   3.14159
    D4        0.00000   0.00000   0.00000   0.00000   0.00000   0.00000
    D5        3.14159   0.00000   0.00000   0.00000   0.00000   3.14159
    D6        0.00000   0.00000   0.00000   0.00000   0.00000   0.00000
    D7        0.00000   0.00000   0.00000   0.00000   0.00000   0.00000
    D8        3.14159   0.00000   0.00000   0.00000   0.00000   3.14159
    D9        0.00000   0.00000   0.00000   0.00000   0.00000   0.00000
   D10        3.14159   0.00000   0.00000   0.00000   0.00000   3.14159
   D11        3.14159   0.00000   0.00000   0.00000   0.00000   3.14159
   D12        0.00000   0.00000   0.00000   0.00000   0.00000   0.00000
   D13        3.14159   0.00000   0.00000   0.00000   0.00000   3.14159
   D14        0.00000   0.00000   0.00000   0.00000   0.00000   0.00000
   D15        0.00000   0.00000   0.00000   0.00000   0.00000   0.00000
   D16        3.14159   0.00000   0.00000   0.00000   0.00000   3.14159
         Item               Value     Threshold  Converged?
 Maximum Force            0.003161     0.000450     NO 
 RMS     Force            0.001194     0.000300     NO 
 Maximum Displacement     0.007429     0.001800     NO 
 RMS     Displacement     0.002582     0.001200     NO 
 Predicted change in Energy=-7.105199D-05
 GradGradGradGradGradGradGradGradGradGradGradGradGradGradGradGradGradGrad

                          Input orientation:                          
 ---------------------------------------------------------------------
 Center     Atomic     Atomic              Coordinates (Angstroms)
 Number     Number      Type              X           Y           Z
 ---------------------------------------------------------------------
    1          7             0        0.364350    0.000000    1.383390
    2          1             0        0.357362    0.000000   -1.800838
    3          6             0       -1.157337    0.000000   -0.293505
    4          1             0       -2.040652    0.000000   -0.914199
    5          6             0       -0.978068    0.000000    1.065440
    6          1             0       -1.737284    0.000000    1.835526
    7          1             0        2.061951    0.000000    0.088286
    8          6             0        0.989113    0.000000    0.226460
    9          7             0        0.115566    0.000000   -0.821808
 ---------------------------------------------------------------------
                    Distance matrix (angstroms):
                    1          2          3          4          5
     1  N    0.000000
     2  H    3.184236   0.000000
     3  C    2.264401   2.136905   0.000000
     4  H    3.326102   2.556677   1.079587   0.000000
     5  C    1.379558   3.162108   1.370719   2.246788   0.000000
     6  H    2.149720   4.196509   2.206606   2.766409   1.081407
     7  H    2.135215   2.544487   3.241848   4.223308   3.193204
     8  C    1.314845   2.123452   2.208532   3.237373   2.138619
     9  N    2.219188   1.008447   1.378182   2.158197   2.181225
                    6          7          8          9
     6  H    0.000000
     7  H    4.181750   0.000000
     8  C    3.165807   1.081699   0.000000
     9  N    3.239518   2.148647   1.364533   0.000000
 Stoichiometry    C3H4N2
 Framework group  CS[SG(C3H4N2)]
 Deg. of freedom    15
 Full point group                 CS      NOp   2
 Largest Abelian subgroup         CS      NOp   2
 Largest concise Abelian subgroup C1      NOp   1
                         Standard orientation:                         
 ---------------------------------------------------------------------
 Center     Atomic     Atomic              Coordinates (Angstroms)
 Number     Number      Type              X           Y           Z
 ---------------------------------------------------------------------
    1          7             0       -0.743556   -0.986577    0.000000
    2          1             0       -0.012913    2.112701    0.000000
    3          6             0        1.119485    0.300509    0.000000
    4          1             0        2.120771    0.704159    0.000000
    5          6             0        0.635995   -0.982109    0.000000
    6          1             0        1.200280   -1.904618    0.000000
    7          1             0       -2.102311    0.660520    0.000000
    8          6             0       -1.088970    0.282086    0.000000
    9          7             0        0.000000    1.104337    0.000000
 ---------------------------------------------------------------------
 Rotational constants (GHZ):      9.7565159      9.3827906      4.7830022
 Standard basis: 6-31G(d) (6D, 7F)
 There are    63 symmetry adapted basis functions of A'  symmetry.
 There are    20 symmetry adapted basis functions of A"  symmetry.
 Integral buffers will be    131072 words long.
 Raffenetti 1 integral format.
 Two-electron integral symmetry is turned on.
    83 basis functions,   156 primitive gaussians,    83 cartesian basis functions
    18 alpha electrons       18 beta electrons
       nuclear repulsion energy       163.1322626012 Hartrees.
 NAtoms=    9 NActive=    9 NUniq=    9 SFac= 1.00D+00 NAtFMM=   60 Big=F
 One-electron integrals computed using PRISM.
 NBasis=    83 RedAO= T  NBF=    63    20
 NBsUse=    83 1.00D-06 NBFU=    63    20
 Initial guess read from the read-write file:
 Initial guess orbital symmetries:
       Occupied  (A') (A') (A') (A') (A') (A') (A') (A') (A') (A')
                 (A') (A') (A') (A") (A') (A') (A") (A")
       Virtual   (A") (A') (A") (A') (A') (A') (A') (A') (A') (A')
                 (A') (A') (A") (A') (A") (A') (A") (A') (A') (A')
                 (A") (A') (A') (A') (A") (A') (A') (A') (A') (A')
                 (A') (A') (A') (A") (A") (A") (A') (A') (A") (A")
                 (A') (A') (A') (A') (A') (A') (A") (A") (A') (A')
                 (A") (A") (A') (A") (A') (A') (A') (A') (A') (A')
                 (A') (A') (A') (A') (A')
 Requested convergence on RMS density matrix=1.00D-08 within 128 cycles.
 Requested convergence on MAX density matrix=1.00D-06.
 Requested convergence on             energy=1.00D-06.
 No special actions if energy rises.
 Keep R1 integrals in memory in canonical form, NReq=     7236413.
 SCF Done:  E(RHF) =  -224.812240187     A.U. after   11 cycles
             Convg  =    0.4058D-08             -V/T =  2.0027
             S**2   =   0.0000
 ExpMin= 1.61D-01 ExpMax= 4.17D+03 ExpMxC= 6.27D+02 IAcc=1 IRadAn=         1 AccDes= 1.00D-06
 HarFok:  IExCor= 205 AccDes= 1.00D-06 IRadAn=         1 IDoV=1
 ScaDFX=  1.000000  1.000000  1.000000  1.000000
 Range of M.O.s used for correlation:     6    83
 NBasis=    83 NAE=    18 NBE=    18 NFC=     5 NFV=     0
 NROrb=     78 NOA=    13 NOB=    13 NVA=    65 NVB=    65
 Spin components of T(2) and E(2):
     alpha-alpha T2 =       0.3318416050D-01 E2=     -0.9557451114D-01
     alpha-beta  T2 =       0.1750772032D+00 E2=     -0.5156604912D+00
     beta-beta   T2 =       0.3318416050D-01 E2=     -0.9557451114D-01
 ANorm=    0.1114201743D+01
 E2=       -0.7068095135D+00 EUMP2=       -0.22551904970030D+03
 R2 and R3 integrals will be kept in memory, NReq=    12975682.
 DD1Dir will call FoFMem   1 times, MxPair=       182
 NAB=    91 NAA=     0 NBB=     0.
 E3=       -0.14024011D-01        EUMP3=      -0.22553307371D+03
 Largest amplitude= 6.55D-02
 Discarding MO integrals.
 DoAtom=TTTTTTTTT
          Differentiating once with respect to electric field.
                with respect to dipole field.
          Differentiating once with respect to nuclear coordinates.
          Store integrals in memory, NReq=     6898761.
          There are   1 degrees of freedom in the 1st order CPHF.
     1 vectors were produced by pass  0.
 AX will form   1 AO Fock derivatives at one time.
     1 vectors were produced by pass  1.
     1 vectors were produced by pass  2.
     1 vectors were produced by pass  3.
     1 vectors were produced by pass  4.
     1 vectors were produced by pass  5.
     1 vectors were produced by pass  6.
     1 vectors were produced by pass  7.
     1 vectors were produced by pass  8.
     1 vectors were produced by pass  9.
     1 vectors were produced by pass 10.
     1 vectors were produced by pass 11.
     1 vectors were produced by pass 12.
     1 vectors were produced by pass 13.
     1 vectors were produced by pass 14.
 Inv2:  IOpt= 1 Iter= 1 AM= 5.64D-16 Conv= 1.00D-12.
 Inverted reduced A of dimension   15 with in-core refinement.
 End of Minotr Frequency-dependent properties file   721 does not exist.
 ***** Axes restored to original set *****
 -------------------------------------------------------------------
 Center     Atomic                   Forces (Hartrees/Bohr)
 Number     Number              X              Y              Z
 -------------------------------------------------------------------
    1          7           0.001589186    0.000000000    0.000060982
    2          1          -0.000244811    0.000000000    0.000472023
    3          6          -0.000013059    0.000000000    0.000380223
    4          1           0.000367081    0.000000000    0.000232445
    5          6          -0.001354605    0.000000000   -0.000813958
    6          1           0.000525807    0.000000000   -0.000277501
    7          1          -0.000419863    0.000000000    0.000058921
    8          6          -0.001129696    0.000000000    0.000360171
    9          7           0.000679960    0.000000000   -0.000473306
 -------------------------------------------------------------------
 Cartesian Forces:  Max     0.001589186 RMS     0.000553390

 GradGradGradGradGradGradGradGradGradGradGradGradGradGradGradGradGradGrad
 Berny optimization.
 Internal  Forces:  Max     0.000797446 RMS     0.000316722
 Search for a local minimum.
 Step number   5 out of a maximum of  48
 All quantities printed in internal units (Hartrees-Bohrs-Radians)
 Update second derivatives using D2CorX and points  1  2  3  4  5

 Trust test= 1.22D+00 RLast= 2.07D-02 DXMaxT set to 6.00D-01
     Eigenvalues ---    0.03204   0.03261   0.03287   0.03303   0.03349
     Eigenvalues ---    0.03404   0.14820   0.15932   0.16002   0.16033
     Eigenvalues ---    0.21250   0.29043   0.44393   0.48086   0.49651
     Eigenvalues ---    0.49772   0.56258   0.59914   0.64778   0.69505
     Eigenvalues ---    0.764401000.000001000.000001000.000001000.00000
     Eigenvalues --- 1000.000001000.000001000.000001000.000001000.00000
     Eigenvalues --- 1000.000001000.000001000.000001000.000001000.00000
     Eigenvalues --- 1000.000001000.000001000.00000
 RFO step:  Lambda=-2.25220470D-06.
 Quartic linear search produced a step of  0.27786.
 Iteration  1 RMS(Cart)=  0.00079529 RMS(Int)=  0.00000129
 Iteration  2 RMS(Cart)=  0.00000052 RMS(Int)=  0.00000122
 Variable       Old X    -DE/DX   Delta X   Delta X   Delta X     New X
                                 (Linear)    (Quad)   (Total)
    R1        2.60699   0.00079   0.00195   0.00057   0.00252   2.60951
    R2        2.48470  -0.00080  -0.00154  -0.00024  -0.00178   2.48292
    R3        1.90569  -0.00052  -0.00048  -0.00060  -0.00109   1.90460
    R4        2.04012  -0.00043  -0.00053  -0.00053  -0.00105   2.03907
    R5        2.59028  -0.00062  -0.00177  -0.00006  -0.00183   2.58845
    R6        2.60439  -0.00020   0.00152  -0.00076   0.00076   2.60515
    R7        2.04356  -0.00057  -0.00078  -0.00063  -0.00141   2.04215
    R8        2.04412  -0.00042  -0.00047  -0.00044  -0.00091   2.04321
    R9        2.57859  -0.00042   0.00027  -0.00091  -0.00063   2.57796
    A1        1.83338  -0.00054  -0.00166   0.00005  -0.00160   1.83178
    A2        2.31448   0.00000   0.00064  -0.00063   0.00001   2.31449
    A3        2.13566  -0.00004  -0.00106   0.00053  -0.00053   2.13513
    A4        1.83304   0.00004   0.00042   0.00010   0.00052   1.83356
    A5        1.93452   0.00006   0.00074  -0.00052   0.00022   1.93474
    A6        2.11652  -0.00021  -0.00127  -0.00030  -0.00157   2.11495
    A7        2.23214   0.00015   0.00053   0.00082   0.00135   2.23349
    A8        2.19403  -0.00031  -0.00114   0.00011  -0.00103   2.19300
    A9        1.95171   0.00061   0.00226  -0.00010   0.00217   1.95388
   A10        2.13744  -0.00030  -0.00112  -0.00001  -0.00113   2.13631
   A11        2.20633  -0.00003   0.00025  -0.00046  -0.00022   2.20611
   A12        2.20473   0.00021   0.00153   0.00000   0.00153   2.20626
   A13        1.87213  -0.00018  -0.00177   0.00046  -0.00131   1.87082
    D1        0.00000   0.00000   0.00000   0.00000   0.00000   0.00000
    D2        3.14159   0.00000   0.00000   0.00000   0.00000   3.14159
    D3        3.14159   0.00000   0.00000   0.00000   0.00000   3.14159
    D4        0.00000   0.00000   0.00000   0.00000   0.00000   0.00000
    D5        3.14159   0.00000   0.00000   0.00000   0.00000   3.14159
    D6        0.00000   0.00000   0.00000   0.00000   0.00000   0.00000
    D7        0.00000   0.00000   0.00000   0.00000   0.00000   0.00000
    D8        3.14159   0.00000   0.00000   0.00000   0.00000   3.14159
    D9        0.00000   0.00000   0.00000   0.00000   0.00000   0.00000
   D10        3.14159   0.00000   0.00000   0.00000   0.00000   3.14159
   D11        3.14159   0.00000   0.00000   0.00000   0.00000   3.14159
   D12        0.00000   0.00000   0.00000   0.00000   0.00000   0.00000
   D13        3.14159   0.00000   0.00000   0.00000   0.00000   3.14159
   D14        0.00000   0.00000   0.00000   0.00000   0.00000   0.00000
   D15        0.00000   0.00000   0.00000   0.00000   0.00000   0.00000
   D16        3.14159   0.00000   0.00000   0.00000   0.00000   3.14159
         Item               Value     Threshold  Converged?
 Maximum Force            0.000797     0.000450     NO 
 RMS     Force            0.000317     0.000300     NO 
 Maximum Displacement     0.002729     0.001800     NO 
 RMS     Displacement     0.000795     0.001200     YES
 Predicted change in Energy=-5.432727D-06
 GradGradGradGradGradGradGradGradGradGradGradGradGradGradGradGradGradGrad

                          Input orientation:                          
 ---------------------------------------------------------------------
 Center     Atomic     Atomic              Coordinates (Angstroms)
 Number     Number      Type              X           Y           Z
 ---------------------------------------------------------------------
    1          7             0        0.365147    0.000000    1.383610
    2          1             0        0.357095    0.000000   -1.800705
    3          6             0       -1.157219    0.000000   -0.293318
    4          1             0       -2.039915    0.000000   -0.913924
    5          6             0       -0.978419    0.000000    1.064713
    6          1             0       -1.736268    0.000000    1.835097
    7          1             0        2.060507    0.000000    0.088589
    8          6             0        0.988158    0.000000    0.226804
    9          7             0        0.115914    0.000000   -0.822116
 ---------------------------------------------------------------------
                    Distance matrix (angstroms):
                    1          2          3          4          5
     1  N    0.000000
     2  H    3.184325   0.000000
     3  C    2.264881   2.136671   0.000000
     4  H    3.326107   2.555785   1.079029   0.000000
     5  C    1.380892   3.161363   1.369751   2.245391   0.000000
[...]
   8   6    -0.10   0.00   0.00    -0.14   0.15   0.00     0.15   0.06   0.00
   9   7    -0.02   0.04   0.00     0.01   0.07   0.00    -0.30   0.02   0.00
                    16                     17                     18
                    A'                     A'                     A'
 Frequencies --  1570.0599              1622.9881              3314.6777
 Red. masses --     3.3536                 3.6401                 1.0925
 Frc consts  --     4.8707                 5.6493                 7.0720
 IR Inten    --    22.9241                12.6688                 5.4782
 Atom AN      X      Y      Z        X      Y      Z        X      Y      Z
   1   7    -0.02  -0.12   0.00    -0.01   0.19   0.00     0.00   0.00   0.00
   2   1     0.21  -0.14   0.00     0.48   0.02   0.00     0.00  -0.01   0.00
   3   6     0.00   0.26   0.00     0.10   0.21   0.00    -0.03  -0.01   0.00
   4   1     0.33  -0.50   0.00     0.29  -0.14   0.00     0.33   0.13   0.00
   5   6     0.00  -0.14   0.00    -0.14  -0.23   0.00     0.04  -0.07   0.00
   6   1     0.04  -0.16   0.00     0.50   0.12   0.00    -0.46   0.77   0.00
   7   1    -0.23  -0.54   0.00     0.27   0.30   0.00    -0.24   0.09   0.00
   8   6     0.07   0.28   0.00     0.03  -0.24   0.00     0.02  -0.01   0.00
   9   7    -0.07  -0.12   0.00    -0.09   0.01   0.00     0.00   0.00   0.00
                    19                     20                     21
                    A'                     A'                     A'
 Frequencies --  3317.8123              3343.5575              3728.1029
 Red. masses --     1.0976                 1.1059                 1.0820
 Frc consts  --     7.1186                 7.2840                 8.8608
 IR Inten    --     0.9960                 1.6230                74.0244
 Atom AN      X      Y      Z        X      Y      Z        X      Y      Z
   1   7     0.00   0.00   0.00     0.00   0.00   0.00     0.00   0.00   0.00
   2   1    -0.01   0.01   0.00    -0.01  -0.02   0.00    -0.01   1.00   0.00
   3   6    -0.01  -0.01   0.00    -0.08  -0.03   0.00     0.00   0.00   0.00
   4   1     0.15   0.06   0.00     0.85   0.35   0.00     0.01   0.00   0.00
   5   6     0.01  -0.02   0.00    -0.02   0.04   0.00     0.00   0.00   0.00
   6   1    -0.11   0.18   0.00     0.19  -0.33   0.00     0.00   0.00   0.00
   7   1     0.90  -0.33   0.00    -0.06   0.02   0.00    -0.01   0.00   0.00
   8   6    -0.08   0.03   0.00     0.01   0.00   0.00     0.00   0.00   0.00
   9   7     0.00   0.00   0.00     0.00   0.00   0.00     0.00  -0.08   0.00

 -------------------
 - Thermochemistry -
 -------------------
 Temperature   298.150 Kelvin.  Pressure   1.00000 Atm.
 Atom  1 has atomic number  7 and mass  14.00307
 Atom  2 has atomic number  1 and mass   1.00783
 Atom  3 has atomic number  6 and mass  12.00000
 Atom  4 has atomic number  1 and mass   1.00783
 Atom  5 has atomic number  6 and mass  12.00000
 Atom  6 has atomic number  1 and mass   1.00783
 Atom  7 has atomic number  1 and mass   1.00783
 Atom  8 has atomic number  6 and mass  12.00000
 Atom  9 has atomic number  7 and mass  14.00307
 Molecular mass:    68.03745 amu.
 Principal axes and moments of inertia in atomic units:
                           1         2         3
     EIGENVALUES --   184.87824 192.36031 377.23855
           X            0.48836   0.87264   0.00000
           Y            0.87264  -0.48836   0.00000
           Z            0.00000   0.00000   1.00000
 This molecule is an asymmetric top.
 Rotational symmetry number  1.
 Rotational temperatures (Kelvin)      0.46849     0.45027     0.22960
 Rotational constants (GHZ):           9.76178     9.38209     4.78408
 Zero-point vibrational energy     190564.9 (Joules/Mol)
                                   45.54611 (Kcal/Mol)
 Warning -- explicit consideration of   1 degrees of freedom as
           vibrations may cause significant error
 Vibrational temperatures:    710.86   922.36   986.47  1029.02  1170.68
          (Kelvin)           1204.01  1329.79  1382.51  1601.91  1638.71
                             1713.12  1720.60  1902.36  2043.53  2172.12
                             2258.96  2335.12  4769.08  4773.59  4810.63
                             5363.90
 
 Zero-point correction=                           0.072582 (Hartree/Particle)
 Thermal correction to Energy=                    0.076350
 Thermal correction to Enthalpy=                  0.077294
 Thermal correction to Gibbs Free Energy=         0.046303
 Sum of electronic and zero-point Energies=           -225.460497
 Sum of electronic and thermal Energies=              -225.456729
 Sum of electronic and thermal Enthalpies=            -225.455785
 Sum of electronic and thermal Free Energies=         -225.486776
 
                     E (Thermal)             CV                S
                      KCal/Mol        Cal/Mol-Kelvin    Cal/Mol-Kelvin
 Total                   47.911             13.290             65.227
 Electronic               0.000              0.000              0.000
 Translational            0.889              2.981             38.570
 Rotational               0.889              2.981             24.110
 Vibrational             46.133              7.328              2.547
 Vibration  1             0.850              1.263              0.673
                       Q            Log10(Q)             Ln(Q)
 Total Bot       0.503662D-21        -21.297861        -49.040137
 Total V=0       0.122357D+13         12.087630         27.832796
 Vib (Bot)       0.550690D-33        -33.259093        -76.581892
 Vib (Bot)  1    0.334396D+00         -0.475739         -1.095430
 Vib (V=0)       0.133782D+01          0.126398          0.291041
 Vib (V=0)  1    0.110152D+01          0.041990          0.096687
 Electronic      0.100000D+01          0.000000          0.000000
 Translational   0.220586D+08          7.343577         16.909211
 Rotational      0.414625D+05          4.617655         10.632544
 ***** Axes restored to original set *****
 -------------------------------------------------------------------
 Center     Atomic                   Forces (Hartrees/Bohr)
 Number     Number              X              Y              Z
 -------------------------------------------------------------------
    1          7           0.000225259    0.000000000    0.000110999
    2          1          -0.000017497    0.000000000    0.000018371
    3          6           0.000249356    0.000000000   -0.000196656
    4          1          -0.000002357    0.000000000    0.000024579
    5          6          -0.000333985    0.000000000    0.000001451
    6          1           0.000053224    0.000000000    0.000008580
    7          1          -0.000000841    0.000000000   -0.000002047
    8          6          -0.000100824    0.000000000   -0.000180254
    9          7          -0.000072334    0.000000000    0.000214976
 -------------------------------------------------------------------
 Cartesian Forces:  Max     0.000333985 RMS     0.000117652

 GradGradGradGradGradGradGradGradGradGradGradGradGradGradGradGradGradGrad
 Berny optimization.
 Internal  Forces:  Max     0.000203720 RMS     0.000060482
 Search for a local minimum.
 Step number   1 out of a maximum of   2
 All quantities printed in internal units (Hartrees-Bohrs-Radians)
 Second derivative matrix not updated -- analytic derivatives used.
     Eigenvalues ---    0.00461   0.01008   0.02008   0.02739   0.05794
     Eigenvalues ---    0.06181   0.10453   0.11029   0.11614   0.12558
     Eigenvalues ---    0.24158   0.26236   0.36963   0.38641   0.38933
     Eigenvalues ---    0.39163   0.43679   0.46881   0.49532   0.51284
     Eigenvalues ---    0.611431000.000001000.000001000.000001000.00000
     Eigenvalues --- 1000.000001000.000001000.000001000.000001000.00000
     Eigenvalues --- 1000.000001000.000001000.000001000.000001000.00000
     Eigenvalues --- 1000.000001000.000001000.00000
 Angle between quadratic step and forces=  27.03 degrees.
 Linear search not attempted -- first point.
 Iteration  1 RMS(Cart)=  0.00015554 RMS(Int)=  0.00000003
 Iteration  2 RMS(Cart)=  0.00000003 RMS(Int)=  0.00000000
 Variable       Old X    -DE/DX   Delta X   Delta X   Delta X     New X
                                 (Linear)    (Quad)   (Total)
    R1        2.60951   0.00020   0.00000   0.00065   0.00065   2.61016
    R2        2.48292   0.00004   0.00000   0.00008   0.00008   2.48300
    R3        1.90460  -0.00002   0.00000  -0.00004  -0.00004   1.90456
    R4        2.03907  -0.00001   0.00000  -0.00002  -0.00002   2.03905
    R5        2.58845   0.00005   0.00000   0.00009   0.00009   2.58855
    R6        2.60515  -0.00019   0.00000  -0.00052  -0.00052   2.60463
    R7        2.04215  -0.00003   0.00000  -0.00011  -0.00011   2.04204
    R8        2.04321   0.00000   0.00000   0.00000   0.00000   2.04321
    R9        2.57796  -0.00014   0.00000  -0.00035  -0.00035   2.57761
    A1        1.83178  -0.00008   0.00000  -0.00019  -0.00019   1.83159
    A2        2.31449  -0.00004   0.00000  -0.00035  -0.00035   2.31415
    A3        2.13513   0.00000   0.00000   0.00020   0.00020   2.13533
    A4        1.83356   0.00004   0.00000   0.00015   0.00015   1.83371
    A5        1.93474  -0.00008   0.00000  -0.00026  -0.00026   1.93448
    A6        2.11495  -0.00001   0.00000  -0.00035  -0.00035   2.11461
    A7        2.23349   0.00008   0.00000   0.00061   0.00061   2.23410
    A8        2.19300  -0.00002   0.00000  -0.00007  -0.00007   2.19293
    A9        1.95388   0.00004   0.00000   0.00009   0.00009   1.95397
   A10        2.13631  -0.00002   0.00000  -0.00003  -0.00003   2.13628
   A11        2.20611  -0.00005   0.00000  -0.00021  -0.00021   2.20590
   A12        2.20626  -0.00003   0.00000   0.00000   0.00000   2.20626
   A13        1.87082   0.00008   0.00000   0.00020   0.00020   1.87102
    D1        0.00000   0.00000   0.00000   0.00000   0.00000   0.00000
    D2        3.14159   0.00000   0.00000   0.00000   0.00000   3.14159
    D3        3.14159   0.00000   0.00000   0.00000   0.00000   3.14159
    D4        0.00000   0.00000   0.00000   0.00000   0.00000   0.00000
    D5        3.14159   0.00000   0.00000   0.00000   0.00000   3.14159
    D6        0.00000   0.00000   0.00000   0.00000   0.00000   0.00000
    D7        0.00000   0.00000   0.00000   0.00000   0.00000   0.00000
    D8        3.14159   0.00000   0.00000   0.00000   0.00000   3.14159
    D9        0.00000   0.00000   0.00000   0.00000   0.00000   0.00000
   D10        3.14159   0.00000   0.00000   0.00000   0.00000   3.14159
   D11        3.14159   0.00000   0.00000   0.00000   0.00000   3.14159
   D12        0.00000   0.00000   0.00000   0.00000   0.00000   0.00000
   D13        3.14159   0.00000   0.00000   0.00000   0.00000   3.14159
   D14        0.00000   0.00000   0.00000   0.00000   0.00000   0.00000
   D15        0.00000   0.00000   0.00000   0.00000   0.00000   0.00000
   D16        3.14159   0.00000   0.00000   0.00000   0.00000   3.14159
         Item               Value     Threshold  Converged?
 Maximum Force            0.000204     0.000450     YES
 RMS     Force            0.000060     0.000300     YES
 Maximum Displacement     0.000436     0.001800     YES
 RMS     Displacement     0.000156     0.001200     YES
 Predicted change in Energy=-2.179649D-07
 Optimization completed.
    -- Stationary point found.
                           ----------------------------
                           !   Optimized Parameters   !
                           ! (Angstroms and Degrees)  !
 --------------------------                            --------------------------
 ! Name  Definition              Value          Derivative Info.                !
 --------------------------------------------------------------------------------
 ! R1    R(1,5)                  1.3809         -DE/DX =    0.0002              !
 ! R2    R(1,8)                  1.3139         -DE/DX =    0.0                 !
 ! R3    R(2,9)                  1.0079         -DE/DX =    0.0                 !
 ! R4    R(3,4)                  1.079          -DE/DX =    0.0                 !
 ! R5    R(3,5)                  1.3698         -DE/DX =    0.0                 !
 ! R6    R(3,9)                  1.3786         -DE/DX =   -0.0002              !
 ! R7    R(5,6)                  1.0807         -DE/DX =    0.0                 !
 ! R8    R(7,8)                  1.0812         -DE/DX =    0.0                 !
 ! R9    R(8,9)                  1.3642         -DE/DX =   -0.0001              !
 ! A1    A(5,1,8)              104.953          -DE/DX =   -0.0001              !
 ! A2    A(4,3,5)              132.6108         -DE/DX =    0.0                 !
 ! A3    A(4,3,9)              122.3341         -DE/DX =    0.0                 !
 ! A4    A(5,3,9)              105.0551         -DE/DX =    0.0                 !
 ! A5    A(1,5,3)              110.8527         -DE/DX =   -0.0001              !
 ! A6    A(1,5,6)              121.1779         -DE/DX =    0.0                 !
 ! A7    A(3,5,6)              127.9694         -DE/DX =    0.0001              !
 ! A8    A(1,8,7)              125.6495         -DE/DX =    0.0                 !
 ! A9    A(1,8,9)              111.9491         -DE/DX =    0.0                 !
 ! A10   A(7,8,9)              122.4014         -DE/DX =    0.0                 !
 ! A11   A(2,9,3)              126.4007         -DE/DX =   -0.0001              !
 ! A12   A(2,9,8)              126.4092         -DE/DX =    0.0                 !
 ! A13   A(3,9,8)              107.1901         -DE/DX =    0.0001              !
 ! D1    D(8,1,5,3)              0.0            -DE/DX =    0.0                 !
 ! D2    D(8,1,5,6)            180.0            -DE/DX =    0.0                 !
 ! D3    D(5,1,8,7)            180.0            -DE/DX =    0.0                 !
 ! D4    D(5,1,8,9)              0.0            -DE/DX =    0.0                 !
 ! D5    D(4,3,5,1)            180.0            -DE/DX =    0.0                 !
 ! D6    D(4,3,5,6)              0.0            -DE/DX =    0.0                 !
 ! D7    D(9,3,5,1)              0.0            -DE/DX =    0.0                 !
 ! D8    D(9,3,5,6)            180.0            -DE/DX =    0.0                 !
 ! D9    D(4,3,9,2)              0.0            -DE/DX =    0.0                 !
 ! D10   D(4,3,9,8)            180.0            -DE/DX =    0.0                 !
 ! D11   D(5,3,9,2)            180.0            -DE/DX =    0.0                 !
 ! D12   D(5,3,9,8)              0.0            -DE/DX =    0.0                 !
 ! D13   D(1,8,9,2)            180.0            -DE/DX =    0.0                 !
 ! D14   D(1,8,9,3)              0.0            -DE/DX =    0.0                 !
 ! D15   D(7,8,9,2)              0.0            -DE/DX =    0.0                 !
 ! D16   D(7,8,9,3)            180.0            -DE/DX =    0.0                 !
 --------------------------------------------------------------------------------
 GradGradGradGradGradGradGradGradGradGradGradGradGradGradGradGradGradGrad

 1\1\GINC-QUASAR\Freq\RMP3-FC\6-31G(d)\C3H4N2\RDJ3\08-Jan-2005\0\\#N GE
 OM=ALLCHECK GUESS=READ SCRF=CHECK GENCHK RMP3(FC)/6-31G(D) FREQ\\1H im
 idazole C3H4N2 casno=288324 method=62 basis=1\\0,1\N,0.5005923559,0.,1
 .1300345778\H,0.4925402897,0.,-2.0542803926\C,-1.0217735749,0.,-0.5468
 931726\H,-1.9044698456,0.,-1.1674991463\C,-0.842973203,0.,0.8111377737
 \H,-1.6008227587,0.,1.5815212846\H,2.1959520443,0.,-0.164986052\C,1.12
 36034676,0.,-0.0267715482\N,0.2513590915,0.,-1.0756908651\\Version=SGI
 64-G03RevC.02\State=1-A'\HF=-224.8123583\MP2=-225.5190097\MP3=-225.533
 0794\RMSD=2.484e-09\RMSF=1.177e-04\Dipole=-0.1319836,0.,-1.5199702\Dip
 oleDeriv=-0.3863562,0.,0.0413628,0.,-0.3278671,0.,-0.0183664,0.,-0.579
 5842,0.1973241,0.,-0.0054664,0.,0.3639896,0.,-0.0063221,0.,0.2338519,0
 .0575637,0.,-0.2146829,0.,-0.1085354,0.,-0.0556237,0.,0.183143,0.02374
 92,0.,-0.0397836,0.,0.1808735,0.,-0.0602286,0.,0.0486356,0.1739276,0.,
 -0.0911843,0.,-0.1151418,0.,-0.0882878,0.,0.1005581,-0.003748,0.,0.063
 9965,0.,0.1477745,0.,0.0738744,0.,0.0310805,-0.0231815,0.,0.0296875,0.
 ,0.1509819,0.,0.0320862,0.,0.0697649,0.1727819,0.,0.1110103,0.,0.03442
 2,0.,0.0579202,0.,0.5920714,-0.2129218,0.,0.1047649,0.,-0.3266138,0.,0
 .0651339,0.,-0.6793064\PG=CS [SG(C3H4N2)]\NImag=0\\0.51584248,0.,0.103
 61809,-0.06504582,0.,0.61630958,-0.00312872,0.,-0.00843903,0.08603679,
 0.,0.00728798,0.,0.,0.01093340,-0.00395338,0.,-0.00307680,-0.10062320,
 0.,0.46903610,-0.03041059,0.,-0.01620515,0.00736158,0.,-0.00280971,0.7
 8749493,0.,0.01406694,0.,0.,-0.00912127,0.,0.,0.09684132,-0.09078173,0
 .,-0.01764174,0.02929072,0.,-0.00103891,0.15756002,0.,0.79074863,0.001
 90494,0.,0.00106393,0.00002055,0.,0.00004354,-0.26649286,0.,-0.1437350
 7,0.28041308,0.,0.00782725,0.,0.,-0.00088191,0.,0.,-0.01740095,0.,0.,0
 .01749587,-0.00375937,0.,-0.00574409,-0.00085037,0.,0.00022687,-0.1548
 0913,0.,-0.17188867,0.15825620,0.,0.16408065,-0.27084581,0.,-0.0419491
 9,-0.00904598,0.,0.00016626,-0.10839217,0.,-0.02302426,0.00544725,0.,-
 0.02269811,0.69058670,0.,-0.06714336,0.,0.,0.00276730,0.,0.,-0.0545874
 0,0.,0.,-0.00417249,0.,0.,0.12234853,-0.05180728,0.,-0.12082028,0.0034
 4877,0.,0.00087833,-0.03664316,0.,-0.42342911,0.00120630,0.,0.00231142
 ,-0.15433528,0.,0.84378311,-0.01873151,0.,0.02233605,0.00084553,0.,-0.
 00002888,0.00934186,0.,-0.00581065,-0.00027438,0.,0.00055796,-0.202720
 99,0.,0.15151969,0.21780778,0.,-0.00616158,0.,0.,0.00216624,0.,0.,-0.0
 0305488,0.,0.,-0.00162061,0.,0.,-0.02602871,0.,0.,0.02248400,-0.007962
 23,0.,0.01296209,0.00131145,0.,0.00020390,0.02131333,0.,-0.00769745,-0
 .00037287,0.,-0.00031934,0.15529502,0.,-0.22643104,-0.16463927,0.,0.22
 622790,-0.00825794,0.,0.00289595,-0.00066108,0.,-0.00046085,0.00083467
 ,0.,-0.00338344,-0.00034924,0.,0.00041857,0.00098356,0.,0.00278637,-0.
 00032613,0.,-0.00022617,0.38173853,0.,-0.00592149,0.,0.,-0.00105128,0.
 ,0.,0.00303565,0.,0.,0.00188647,0.,0.,0.00741661,0.,0.,0.00111731,0.,0
 .,0.02116186,0.03062328,0.,0.00162807,0.00040622,0.,0.00025744,-0.0012
 5686,0.,-0.00595330,-0.00109233,0.,0.00101704,0.00331351,0.,-0.0048318
 1,0.00149465,0.,0.00071132,-0.03983917,0.,0.06564398,-0.17644237,0.,0.
 12602084,0.01895686,0.,0.01382554,-0.09287935,0.,0.00458468,-0.0033687
 1,0.,0.00417466,-0.08945062,0.,0.01583082,-0.00675849,0.,-0.00356631,-
 0.36137453,0.,0.03722075,0.93624716,0.,-0.07600055,0.,0.,-0.01017896,0
 .,0.,0.01495064,0.,0.,0.00297963,0.,0.,0.01032789,0.,0.,0.00527730,0.,
 0.,-0.02442506,0.,0.,0.13238510,0.15327468,0.,-0.37600518,-0.01772996,
 0.,-0.01119949,-0.04184569,0.,-0.01701696,0.00449208,0.,-0.00480901,0.
 07968509,0.,0.00309080,-0.00238053,0.,0.00009541,0.03280499,0.,-0.0663
 9261,-0.08252936,0.,0.70767254,-0.00991325,0.,-0.02070655,-0.10039288,
 0.,0.09384022,-0.30686818,0.,0.07528387,-0.01731152,0.,0.01870155,-0.0
 1654922,0.,0.06802371,0.00080926,0.,-0.00115211,-0.01259967,0.,-0.0308
 6840,-0.22494444,0.,-0.12574948,0.68780175,0.,0.02241576,0.,0.,-0.0019
 2019,0.,0.,-0.04472704,0.,0.,-0.00611072,0.,0.,0.00907443,0.,0.,0.0058
 1907,0.,0.,-0.00322017,0.,0.,-0.05531148,0.,0.,0.07397917,0.03940954,0
 .,-0.10761462,0.09318203,0.,-0.45528474,0.07472885,0.,-0.14609538,-0.0
 1986599,0.,0.01512333,0.00352347,0.,-0.07454026,-0.00304455,0.,-0.0057
 5225,0.00500004,0.,0.00792329,-0.11554287,0.,-0.23545404,-0.07739143,0
 .,1.00171305\\-0.00022526,0.,-0.00011100,0.00001750,0.,-0.00001837,-0.
 00024936,0.,0.00019666,0.00000236,0.,-0.00002458,0.00033399,0.,-0.0000
 0145,-0.00005322,0.,-0.00000858,0.00000084,0.,0.00000205,0.00010082,0.
 ,0.00018025,0.00007233,0.,-0.00021498\\\@


 EDUCATION WITHOUT COMMON SENSE IS A LOAD OF BOOKS ON THE BACK OF AN ASS.
 Job cpu time:  0 days  5 hours  1 minutes 30.6 seconds.
 File lengths (MBytes):  RWF=    448 Int=      0 D2E=      0 Chk=     14 Scr=      1
 Normal termination of Gaussian 03 at Sat Jan  8 09:20:50 2005.
