 Entering Gaussian System, Link 0=g09
 Initial command:
 /usr/local/gaussian/g09.b01.em64t.linda/g09/l1.exe /tmp/rdj3/g09-26718/Gau-26761.inp -scrdir=/tmp/rdj3/g09-26718/
 Entering Link 1 = /usr/local/gaussian/g09.b01.em64t.linda/g09/l1.exe PID=     26762.
  
 Copyright (c) 1988,1990,1992,1993,1995,1998,2003,2009,2010,
            Gaussian, Inc.  All Rights Reserved.
  
 This is part of the Gaussian(R) 09 program.  It is based on
 the Gaussian(R) 03 system (copyright 2003, Gaussian, Inc.),
 the Gaussian(R) 98 system (copyright 1998, Gaussian, Inc.),
 the Gaussian(R) 94 system (copyright 1995, Gaussian, Inc.),
 the Gaussian 92(TM) system (copyright 1992, Gaussian, Inc.),
 the Gaussian 90(TM) system (copyright 1990, Gaussian, Inc.),
 the Gaussian 88(TM) system (copyright 1988, Gaussian, Inc.),
 the Gaussian 86(TM) system (copyright 1986, Carnegie Mellon
 University), and the Gaussian 82(TM) system (copyright 1983,
 Carnegie Mellon University). Gaussian is a federally registered
 trademark of Gaussian, Inc.
  
 This software contains proprietary and confidential information,
 including trade secrets, belonging to Gaussian, Inc.
  
 This software is provided under written license and may be
 used, copied, transmitted, or stored only in accord with that
 written license.
  
 The following legend is applicable only to US Government
 contracts under FAR:
  
                    RESTRICTED RIGHTS LEGEND
  
 Use, reproduction and disclosure by the US Government is
 subject to restrictions as set forth in subparagraphs (a)
 and (c) of the Commercial Computer Software - Restricted
 Rights clause in FAR 52.227-19.
  
 Gaussian, Inc.
 340 Quinnipiac St., Bldg. 40, Wallingford CT 06492
  
  
 ---------------------------------------------------------------
 Warning -- This program may not be used in any manner that
 competes with the business of Gaussian, Inc. or will provide
 assistance to any competitor of Gaussian, Inc.  The licensee
 of this program is prohibited from giving any competitor of
 Gaussian, Inc. access to this program.  By using this program,
 the user acknowledges that Gaussian, Inc. is engaged in the
 business of creating and licensing software in the field of
 computational chemistry and represents and warrants to the
 licensee that it is not a competitor of Gaussian, Inc. and that
 it will not use this program in any manner prohibited above.
 ---------------------------------------------------------------
  

 Cite this work as:
 Gaussian 09, Revision B.01,
 M. J. Frisch, G. W. Trucks, H. B. Schlegel, G. E. Scuseria, 
 M. A. Robb, J. R. Cheeseman, G. Scalmani, V. Barone, B. Mennucci, 
 G. A. Petersson, H. Nakatsuji, M. Caricato, X. Li, H. P. Hratchian, 
 A. F. Izmaylov, J. Bloino, G. Zheng, J. L. Sonnenberg, M. Hada, 
 M. Ehara, K. Toyota, R. Fukuda, J. Hasegawa, M. Ishida, T. Nakajima, 
 Y. Honda, O. Kitao, H. Nakai, T. Vreven, J. A. Montgomery, Jr., 
 J. E. Peralta, F. Ogliaro, M. Bearpark, J. J. Heyd, E. Brothers, 
 K. N. Kudin, V. N. Staroverov, T. Keith, R. Kobayashi, J. Normand, 
 K. Raghavachari, A. Rendell, J. C. Burant, S. S. Iyengar, J. Tomasi, 
 M. Cossi, N. Rega, J. M. Millam, M. Klene, J. E. Knox, J. B. Cross, 
 V. Bakken, C. Adamo, J. Jaramillo, R. Gomperts, R. E. Stratmann, 
 O. Yazyev, A. J. Austin, R. Cammi, C. Pomelli, J. W. Ochterski, 
 R. L. Martin, K. Morokuma, V. G. Zakrzewski, G. A. Voth, 
 P. Salvador, J. J. Dannenberg, S. Dapprich, A. D. Daniels, 
 O. Farkas, J. B. Foresman, J. V. Ortiz, J. Cioslowski, 
 and D. J. Fox, Gaussian, Inc., Wallingford CT, 2010.
 
 ******************************************
 Gaussian 09:  EM64L-G09RevB.01 12-Aug-2010
                 6-Sep-2012 
 ******************************************
 %NProc=8
 Will use up to    8 processors via shared memory.
 %mem=424000000
 ------------------------
 #MP3/6-31G(d,p) opt freq
 ------------------------
 1/18=20,19=15,38=1/1,3;
 2/9=110,12=2,17=6,18=5,40=1/2;
 3/5=1,6=6,7=101,11=9,16=1,25=1,30=1,71=1/1,2,3;
 4//1;
 5/5=2,38=5/2;
 8/6=4,9=120000,10=2/1,4;
 9/5=2,15=1/13;
 11/28=-10,29=200,42=3/11;
 10/5=8/2;
 6/7=2,8=2,9=2,10=2/1;
 7/12=3/1,2,3,16;
 1/18=20,19=15/3(2);
 2/9=110/2;
 99//99;
 2/9=110/2;
 3/5=1,6=6,7=101,11=9,16=1,25=1,30=1,71=1/1,2,3;
 4/5=5,16=3/1;
 5/5=2,38=5/2;
 8/6=4,9=120000,10=2/1,4;
 9/5=2,15=1/13;
 11/28=-10,29=200,42=3/11;
 10/5=8/2;
 7/12=3/1,2,3,16;
 1/18=20,19=15/3(-9);
 2/9=110/2;
 6/7=2,8=2,9=2,10=2/1;
 99//99;
 ---------------------------------------------------------------------
 1himidaz 1H-Imidazole casno=288324 state=1 config=1 method=62 basis=4
 ---------------------------------------------------------------------
 Symbolic Z-matrix:
 Charge =  0 Multiplicity = 1
 N                    -0.74106  -0.96596   0. 
 H                    -0.01273   2.08825   0. 
 C                     1.10986   0.28827   0. 
 H                     2.10334   0.68144   0. 
 C                     0.63018  -0.97392   0. 
 H                     1.18224  -1.89044   0. 
 H                    -2.07716   0.65597   0. 
 C                    -1.07476   0.2791    0. 
 N                     0.        1.09512   0. 
 

 GradGradGradGradGradGradGradGradGradGradGradGradGradGradGradGradGradGrad
 Berny optimization.
 Initialization pass.
                           ----------------------------
                           !    Initial Parameters    !
                           ! (Angstroms and Degrees)  !
 --------------------------                            --------------------------
 ! Name  Definition              Value          Derivative Info.                !
 --------------------------------------------------------------------------------
 ! R1    R(1,5)                  1.3713         estimate D2E/DX2                !
 ! R2    R(1,8)                  1.289          estimate D2E/DX2                !
 ! R3    R(2,9)                  0.9932         estimate D2E/DX2                !
 ! R4    R(3,4)                  1.0684         estimate D2E/DX2                !
 ! R5    R(3,5)                  1.3503         estimate D2E/DX2                !
 ! R6    R(3,9)                  1.3721         estimate D2E/DX2                !
 ! R7    R(5,6)                  1.0699         estimate D2E/DX2                !
 ! R8    R(7,8)                  1.0709         estimate D2E/DX2                !
 ! R9    R(8,9)                  1.3494         estimate D2E/DX2                !
 ! A1    A(5,1,8)              105.3363         estimate D2E/DX2                !
 ! A2    A(4,3,5)              132.3996         estimate D2E/DX2                !
 ! A3    A(4,3,9)              122.3927         estimate D2E/DX2                !
 ! A4    A(5,3,9)              105.2077         estimate D2E/DX2                !
 ! A5    A(1,5,3)              110.476          estimate D2E/DX2                !
 ! A6    A(1,5,6)              121.3948         estimate D2E/DX2                !
 ! A7    A(3,5,6)              128.1292         estimate D2E/DX2                !
 ! A8    A(1,8,7)              125.6083         estimate D2E/DX2                !
 ! A9    A(1,8,9)              112.2043         estimate D2E/DX2                !
 ! A10   A(7,8,9)              122.1873         estimate D2E/DX2                !
 ! A11   A(2,9,3)              126.7509         estimate D2E/DX2                !
 ! A12   A(2,9,8)              126.4734         estimate D2E/DX2                !
 ! A13   A(3,9,8)              106.7757         estimate D2E/DX2                !
 ! D1    D(8,1,5,3)              0.0            estimate D2E/DX2                !
 ! D2    D(8,1,5,6)            180.0            estimate D2E/DX2                !
 ! D3    D(5,1,8,7)            180.0            estimate D2E/DX2                !
 ! D4    D(5,1,8,9)              0.0            estimate D2E/DX2                !
 ! D5    D(4,3,5,1)            180.0            estimate D2E/DX2                !
 ! D6    D(4,3,5,6)              0.0            estimate D2E/DX2                !
 ! D7    D(9,3,5,1)              0.0            estimate D2E/DX2                !
 ! D8    D(9,3,5,6)            180.0            estimate D2E/DX2                !
 ! D9    D(4,3,9,2)              0.0            estimate D2E/DX2                !
 ! D10   D(4,3,9,8)            180.0            estimate D2E/DX2                !
 ! D11   D(5,3,9,2)            180.0            estimate D2E/DX2                !
 ! D12   D(5,3,9,8)              0.0            estimate D2E/DX2                !
 ! D13   D(1,8,9,2)            180.0            estimate D2E/DX2                !
 ! D14   D(1,8,9,3)              0.0            estimate D2E/DX2                !
 ! D15   D(7,8,9,2)              0.0            estimate D2E/DX2                !
 ! D16   D(7,8,9,3)            180.0            estimate D2E/DX2                !
 --------------------------------------------------------------------------------
 Trust Radius=3.00D-01 FncErr=1.00D-07 GrdErr=1.00D-07
 Number of steps in this run=     48 maximum allowed number of steps=    100.
 GradGradGradGradGradGradGradGradGradGradGradGradGradGradGradGradGradGrad

                          Input orientation:                          
 ---------------------------------------------------------------------
 Center     Atomic      Atomic             Coordinates (Angstroms)
 Number     Number       Type             X           Y           Z
 ---------------------------------------------------------------------
      1          7           0       -0.741059   -0.965959    0.000000
      2          1           0       -0.012734    2.088247    0.000000
      3          6           0        1.109862    0.288272    0.000000
      4          1           0        2.103339    0.681436    0.000000
      5          6           0        0.630182   -0.973920    0.000000
      6          1           0        1.182239   -1.890444    0.000000
      7          1           0       -2.077162    0.655969    0.000000
      8          6           0       -1.074756    0.279096    0.000000
      9          7           0        0.000000    1.095117    0.000000
 ---------------------------------------------------------------------
                    Distance matrix (angstroms):
                    1          2          3          4          5
     1  N    0.000000
     2  H    3.139846   0.000000
     3  C    2.235845   2.121351   0.000000
     4  H    3.287021   2.541040   1.068445   0.000000
     5  C    1.371264   3.128931   1.350267   2.215941   0.000000
     6  H    2.133951   4.154268   2.179918   2.731848   1.069945
     7  H    2.101386   2.512625   3.208165   4.180579   3.160103
     8  C    1.288998   2.097837   2.184637   3.203461   2.115860
     9  N    2.190252   0.993212   1.372149   2.143634   2.162879
                    6          7          8          9
     6  H    0.000000
     7  H    4.136171   0.000000
     8  C    3.130644   1.070911   0.000000
     9  N    3.211116   2.123076   1.349441   0.000000
 Stoichiometry    C3H4N2
 Framework group  CS[SG(C3H4N2)]
 Deg. of freedom    15
 Full point group                 CS      NOp   2
 Largest Abelian subgroup         CS      NOp   2
 Largest concise Abelian subgroup C1      NOp   1
                         Standard orientation:                         
 ---------------------------------------------------------------------
 Center     Atomic      Atomic             Coordinates (Angstroms)
 Number     Number       Type             X           Y           Z
 ---------------------------------------------------------------------
      1          7           0       -0.741059   -0.965959    0.000000
      2          1           0       -0.012734    2.088247    0.000000
      3          6           0        1.109862    0.288272    0.000000
      4          1           0        2.103339    0.681436    0.000000
      5          6           0        0.630182   -0.973920    0.000000
      6          1           0        1.182239   -1.890444    0.000000
      7          1           0       -2.077162    0.655969    0.000000
      8          6           0       -1.074756    0.279096    0.000000
      9          7           0        0.000000    1.095117    0.000000
 ---------------------------------------------------------------------
 Rotational constants (GHZ):      9.9280198      9.6396664      4.8908592
 Standard basis: 6-31G(d,p) (6D, 7F)
 There are    71 symmetry adapted basis functions of A'  symmetry.
 There are    24 symmetry adapted basis functions of A"  symmetry.
 Integral buffers will be    131072 words long.
 Raffenetti 1 integral format.
 Two-electron integral symmetry is turned on.
    95 basis functions,   168 primitive gaussians,    95 cartesian basis functions
    18 alpha electrons       18 beta electrons
       nuclear repulsion energy       164.9791768920 Hartrees.
 NAtoms=    9 NActive=    9 NUniq=    9 SFac= 1.00D+00 NAtFMM=   50 NAOKFM=F Big=F
 One-electron integrals computed using PRISM.
 NBasis=    95 RedAO= T  NBF=    71    24
 NBsUse=    95 1.00D-06 NBFU=    71    24
 Harris functional with IExCor=  205 diagonalized for initial guess.
 ExpMin= 1.61D-01 ExpMax= 4.17D+03 ExpMxC= 6.27D+02 IAcc=1 IRadAn=         1 AccDes= 0.00D+00
 HarFok:  IExCor=  205 AccDes= 0.00D+00 IRadAn=         1 IDoV= 1
 ScaDFX=  1.000000  1.000000  1.000000  1.000000
 FoFCou: FMM=F IPFlag=           0 FMFlag=      100000 FMFlg1=           0
         NFxFlg=           0 DoJE=T BraDBF=F KetDBF=T FulRan=T
         Omega=  0.000000  0.000000  1.000000  0.000000  0.000000 ICntrl=     500 IOpCl=  0
         NMat0=    1 NMatS0=    1 NMatT0=    0 NMatD0=    1 NMtDS0=    0 NMtDT0=    0
         I1Cent=           4 NGrid=           0.
 Petite list used in FoFCou.
 Initial guess orbital symmetries:
       Occupied  (A') (A') (A') (A') (A') (A') (A') (A') (A') (A')
                 (A') (A') (A') (A") (A') (A') (A") (A")
       Virtual   (A") (A") (A') (A') (A') (A') (A') (A') (A') (A')
                 (A') (A') (A") (A') (A') (A") (A") (A') (A') (A')
                 (A") (A') (A') (A") (A') (A') (A') (A') (A') (A')
                 (A') (A") (A') (A') (A") (A") (A") (A') (A") (A')
                 (A') (A') (A') (A') (A') (A") (A') (A') (A") (A")
                 (A') (A") (A") (A') (A') (A') (A") (A') (A') (A")
                 (A') (A") (A') (A") (A') (A') (A') (A') (A') (A')
                 (A') (A') (A') (A') (A') (A') (A')
 The electronic state of the initial guess is 1-A'.
 Requested convergence on RMS density matrix=1.00D-08 within 128 cycles.
 Requested convergence on MAX density matrix=1.00D-06.
 Requested convergence on             energy=1.00D-06.
 No special actions if energy rises.
 Keep R1 ints in memory in canonical form, NReq=11265822.
 SCF Done:  E(RHF) =  -224.824297242     A.U. after   13 cycles
             Convg  =    0.5673D-08             -V/T =  2.0013
 ExpMin= 1.61D-01 ExpMax= 4.17D+03 ExpMxC= 6.27D+02 IAcc=1 IRadAn=         1 AccDes= 0.00D+00
 HarFok:  IExCor=  205 AccDes= 0.00D+00 IRadAn=         1 IDoV=-2
 ScaDFX=  1.000000  1.000000  1.000000  1.000000
 Range of M.O.s used for correlation:     6    95
 NBasis=    95 NAE=    18 NBE=    18 NFC=     5 NFV=     0
 NROrb=     90 NOA=    13 NOB=    13 NVA=    77 NVB=    77
 Semi-Direct transformation.
 ModeAB=           2 MOrb=            13 LenV=     423677613
 LASXX=      2227956 LTotXX=     2227956 LenRXX=     2227956
 LTotAB=     2314453 MaxLAS=     5335200 LenRXY=     5335200
 NonZer=     5465070 LenScr=     8939520 LnRSAI=           0
 LnScr1=           0 LExtra=           0 Total=     16502676
 MaxDsk=          -1 SrtSym=           F ITran=            4
 JobTyp=0 Pass  1:  I=   1 to  13.
 (rs|ai) integrals will be sorted in core.
 Spin components of T(2) and E(2):
     alpha-alpha T2 =       0.3284586882D-01 E2=     -0.9632762590D-01
     alpha-beta  T2 =       0.1749101902D+00 E2=     -0.5329052666D+00
     beta-beta   T2 =       0.3284586882D-01 E2=     -0.9632762590D-01
 ANorm=    0.1113823113D+01
 E2 =    -0.7255605184D+00 EUMP2 =    -0.22554985775994D+03
 R2 and R3 integrals will be kept in memory, NReq=    21618160.
 DD1Dir will call FoFMem   1 times, MxPair=       182
 NAB=    91 NAA=     0 NBB=     0.
 E3=       -0.16702506D-01        EUMP3=      -0.22556656027D+03
 Largest amplitude= 6.39D-02
 Discarding MO integrals.
          IDoAtm=111111111
          Differentiating once with respect to electric field.
                with respect to dipole field.
          Differentiating once with respect to nuclear coordinates.
          Keep R1 ints in memory in canonical form, NReq=11220176.
          There are     1 degrees of freedom in the 1st order CPHF.  IDoFFX=0.
 LinEq1:  Iter=  0 NonCon=     1 RMS=3.85D-03 Max=6.80D-02
 AX will form     1 AO Fock derivatives at one time.
 LinEq1:  Iter=  1 NonCon=     1 RMS=1.08D-03 Max=1.11D-02
 LinEq1:  Iter=  2 NonCon=     1 RMS=3.61D-04 Max=5.77D-03
 LinEq1:  Iter=  3 NonCon=     1 RMS=1.06D-04 Max=1.36D-03
 LinEq1:  Iter=  4 NonCon=     1 RMS=4.18D-05 Max=7.48D-04
 LinEq1:  Iter=  5 NonCon=     1 RMS=1.30D-05 Max=1.36D-04
 LinEq1:  Iter=  6 NonCon=     1 RMS=4.43D-06 Max=5.74D-05
 LinEq1:  Iter=  7 NonCon=     1 RMS=1.76D-06 Max=2.35D-05
 LinEq1:  Iter=  8 NonCon=     1 RMS=3.49D-07 Max=4.17D-06
 LinEq1:  Iter=  9 NonCon=     1 RMS=6.99D-08 Max=4.84D-07
 LinEq1:  Iter= 10 NonCon=     1 RMS=3.05D-08 Max=4.44D-07
 LinEq1:  Iter= 11 NonCon=     1 RMS=7.16D-09 Max=5.57D-08
 LinEq1:  Iter= 12 NonCon=     1 RMS=1.59D-09 Max=1.56D-08
 LinEq1:  Iter= 13 NonCon=     1 RMS=5.52D-10 Max=7.23D-09
 LinEq1:  Iter= 14 NonCon=     1 RMS=1.46D-10 Max=1.20D-09
 LinEq1:  Iter= 15 NonCon=     0 RMS=1.96D-11 Max=2.03D-10
 Linear equations converged to 1.000D-10 1.000D-09 after    15 iterations.
 End of Minotr Frequency-dependent properties file   721 does not exist.
 End of Minotr Frequency-dependent properties file   722 does not exist.

 **********************************************************************

            Population analysis using the SCF density.

 **********************************************************************

 Orbital symmetries:
       Occupied  (A') (A') (A') (A') (A') (A') (A') (A') (A') (A')
                 (A') (A') (A') (A") (A') (A') (A") (A")
       Virtual   (A") (A') (A") (A') (A') (A') (A') (A') (A') (A')
                 (A') (A') (A") (A') (A") (A') (A") (A') (A') (A')
                 (A") (A') (A') (A') (A') (A") (A') (A') (A') (A')
                 (A') (A') (A") (A') (A") (A") (A') (A") (A') (A")
                 (A') (A') (A') (A') (A') (A") (A') (A") (A') (A")
                 (A') (A") (A') (A") (A") (A') (A') (A') (A') (A")
                 (A') (A") (A') (A") (A') (A') (A') (A') (A') (A')
                 (A') (A') (A') (A') (A') (A') (A')
 The electronic state is 1-A'.
 Alpha  occ. eigenvalues --  -15.61940 -15.53673 -11.28724 -11.25442 -11.23357
 Alpha  occ. eigenvalues --   -1.34598  -1.16644  -1.00882  -0.82618  -0.79755
 Alpha  occ. eigenvalues --   -0.75897  -0.60733  -0.59831  -0.59732  -0.56596
 Alpha  occ. eigenvalues --   -0.42761  -0.39315  -0.31932
 Alpha virt. eigenvalues --    0.19518   0.22133   0.24979   0.28562   0.29993
 Alpha virt. eigenvalues --    0.32007   0.39824   0.41954   0.48849   0.51758
 Alpha virt. eigenvalues --    0.68510   0.71096   0.76532   0.79973   0.80691
 Alpha virt. eigenvalues --    0.83664   0.87708   0.88734   0.89440   0.94859
 Alpha virt. eigenvalues --    1.01898   1.02967   1.04968   1.08221   1.10962
 Alpha virt. eigenvalues --    1.11558   1.14261   1.15577   1.25261   1.27865
 Alpha virt. eigenvalues --    1.43938   1.49281   1.50632   1.55023   1.61511
 Alpha virt. eigenvalues --    1.62930   1.70723   1.74001   1.77351   1.78807
 Alpha virt. eigenvalues --    2.02637   2.18846   2.20465   2.26100   2.28777
 Alpha virt. eigenvalues --    2.32768   2.39191   2.43101   2.45605   2.52319
 Alpha virt. eigenvalues --    2.55094   2.58371   2.72078   2.72781   2.78105
 Alpha virt. eigenvalues --    2.79278   2.80264   2.86307   2.89375   2.95916
 Alpha virt. eigenvalues --    2.96588   3.04986   3.13387   3.14980   3.25647
 Alpha virt. eigenvalues --    3.32566   3.44507   3.59939   3.65755   3.70531
 Alpha virt. eigenvalues --    4.03251   4.19111   4.40325   4.54592   4.65036
 Alpha virt. eigenvalues --    4.83823   5.15833
          Condensed to atoms (all electrons):
              1          2          3          4          5          6
     1  N    6.735963   0.004099  -0.091267   0.003227   0.454482  -0.031582
     2  H    0.004099   0.350006  -0.018384  -0.000286   0.003806  -0.000068
     3  C   -0.091267  -0.018384   4.845097   0.392875   0.654359  -0.041415
     4  H    0.003227  -0.000286   0.392875   0.481267  -0.015235   0.001199
     5  C    0.454482   0.003806   0.654359  -0.015235   4.703838   0.411949
     6  H   -0.031582  -0.000068  -0.041415   0.001199   0.411949   0.504271
     7  H   -0.029327   0.000415   0.002693  -0.000044   0.004955  -0.000066
     8  C    0.585355  -0.018267  -0.116366   0.003456  -0.129218   0.005597
     9  N   -0.101713   0.358606   0.332693  -0.034478  -0.092940   0.002644
              7          8          9
     1  N   -0.029327   0.585355  -0.101713
     2  H    0.000415  -0.018267   0.358606
     3  C    0.002693  -0.116366   0.332693
     4  H   -0.000044   0.003456  -0.034478
     5  C    0.004955  -0.129218  -0.092940
     6  H   -0.000066   0.005597   0.002644
     7  H    0.491386   0.419229  -0.050308
     8  C    0.419229   4.549961   0.371483
     9  N   -0.050308   0.371483   6.853892
 Mulliken atomic charges:
              1
     1  N   -0.529238
     2  H    0.320073
     3  C    0.039715
     4  H    0.168018
     5  C    0.004004
     6  H    0.147472
     7  H    0.161066
     8  C    0.328768
     9  N   -0.639878
 Sum of Mulliken atomic charges =   0.00000
 Mulliken charges with hydrogens summed into heavy atoms:
              1
     1  N   -0.529238
     3  C    0.207733
     5  C    0.151476
     8  C    0.489834
     9  N   -0.319805
 Sum of Mulliken charges with hydrogens summed into heavy atoms =   0.00000
 Electronic spatial extent (au):  <R**2>=            279.9835
 Charge=              0.0000 electrons
 Dipole moment (field-independent basis, Debye):
    X=              1.1435    Y=              3.6820    Z=              0.0000  Tot=              3.8555
 Quadrupole moment (field-independent basis, Debye-Ang):
   XX=            -26.0125   YY=            -25.4574   ZZ=            -31.6532
   XY=             -3.5503   XZ=              0.0000   YZ=              0.0000
 Traceless Quadrupole moment (field-independent basis, Debye-Ang):
   XX=              1.6952   YY=              2.2503   ZZ=             -3.9455
   XY=             -3.5503   XZ=              0.0000   YZ=              0.0000
 Octapole moment (field-independent basis, Debye-Ang**2):
  XXX=              0.2921  YYY=             16.2401  ZZZ=              0.0000  XYY=              5.7126
  XXY=              6.7719  XXZ=              0.0000  XZZ=             -1.1200  YZZ=              1.1419
  YYZ=              0.0000  XYZ=              0.0000
 Hexadecapole moment (field-independent basis, Debye-Ang**3):
 XXXX=           -150.3469 YYYY=           -133.0903 ZZZZ=            -31.1914 XXXY=             -3.2228
 XXXZ=              0.0000 YYYX=             -9.3258 YYYZ=              0.0000 ZZZX=              0.0000
 ZZZY=              0.0000 XXYY=            -55.5019 XXZZ=            -37.3289 YYZZ=            -34.8878
 XXYZ=              0.0000 YYXZ=              0.0000 ZZXY=              0.5188
 N-N= 1.649791768920D+02 E-N=-8.554419953477D+02  KE= 2.245236344387D+02
 Symmetry A'   KE= 2.167444968876D+02
 Symmetry A"   KE= 7.779137551157D+00
 Calling FoFJK, ICntrl=      2127 FMM=F ISym2X=1 I1Cent= 0 IOpClX= 0 NMat=1 NMatS=1 NMatT=0.
 ***** Axes restored to original set *****
 -------------------------------------------------------------------
 Center     Atomic                   Forces (Hartrees/Bohr)
 Number     Number              X              Y              Z
 -------------------------------------------------------------------
      1        7          -0.004144363   -0.030487682    0.000000000
      2        1           0.000360154    0.008424519    0.000000000
      3        6           0.011500535    0.014191795    0.000000000
      4        1           0.003478867    0.001669780    0.000000000
      5        6           0.000874146   -0.015808053    0.000000000
      6        1           0.002074737   -0.003044607    0.000000000
      7        1          -0.003720962    0.001783405    0.000000000
      8        6          -0.017339444    0.017233089    0.000000000
      9        7           0.006916332    0.006037755    0.000000000
 -------------------------------------------------------------------
 Cartesian Forces:  Max     0.030487682 RMS     0.009288626

 GradGradGradGradGradGradGradGradGradGradGradGradGradGradGradGradGradGrad
 Berny optimization.
 Internal  Forces:  Max     0.029195778 RMS     0.007220303
 Search for a local minimum.
 Step number   1 out of a maximum of   48
 All quantities printed in internal units (Hartrees-Bohrs-Radians)
 Mixed Optimization -- RFO/linear search
 Second derivative matrix not updated -- first step.
 ITU=  0
     Eigenvalues ---    0.02198   0.02341   0.02379   0.02551   0.02603
     Eigenvalues ---    0.02705   0.16000   0.16000   0.16000   0.16000
     Eigenvalues ---    0.22000   0.22911   0.37115   0.37237   0.37427
     Eigenvalues ---    0.45111   0.47811   0.48902   0.51454   0.54834
     Eigenvalues ---    0.67122
 RFO step:  Lambda=-3.34345041D-03 EMin= 2.19829082D-02
 Linear search not attempted -- first point.
 Iteration  1 RMS(Cart)=  0.01508720 RMS(Int)=  0.00001765
 Iteration  2 RMS(Cart)=  0.00001668 RMS(Int)=  0.00001069
 Iteration  3 RMS(Cart)=  0.00000000 RMS(Int)=  0.00001069
 ClnCor:  largest displacement from symmetrization is 2.73D-11 for atom     4.
 Variable       Old X    -DE/DX   Delta X   Delta X   Delta X     New X
                                 (Linear)    (Quad)   (Total)
    R1        2.59131   0.01110   0.00000   0.02236   0.02238   2.61369
    R2        2.43585   0.02920   0.00000   0.04280   0.04281   2.47866
    R3        1.87690   0.00842   0.00000   0.01710   0.01710   1.89400
    R4        2.01907   0.00385   0.00000   0.01019   0.01019   2.02926
    R5        2.55164   0.02252   0.00000   0.03922   0.03921   2.59085
    R6        2.59299   0.00852   0.00000   0.01508   0.01507   2.60805
    R7        2.02190   0.00368   0.00000   0.00979   0.00979   2.03169
    R8        2.02373   0.00411   0.00000   0.01098   0.01098   2.03471
    R9        2.55007   0.01687   0.00000   0.03106   0.03105   2.58113
    A1        1.83847  -0.00346   0.00000  -0.00703  -0.00699   1.83147
    A2        2.31081  -0.00054   0.00000   0.00186   0.00187   2.31268
    A3        2.13616  -0.00109   0.00000  -0.00151  -0.00150   2.13466
    A4        1.83622   0.00164   0.00000  -0.00035  -0.00038   1.83584
    A5        1.92817   0.00162   0.00000   0.00452   0.00452   1.93269
    A6        2.11874  -0.00060   0.00000  -0.00098  -0.00098   2.11775
    A7        2.23628  -0.00102   0.00000  -0.00354  -0.00354   2.23274
    A8        2.19228   0.00090   0.00000   0.00229   0.00228   2.19456
    A9        1.95834  -0.00108   0.00000  -0.00011  -0.00010   1.95823
   A10        2.13257   0.00018   0.00000  -0.00217  -0.00218   2.13039
   A11        2.21222  -0.00108   0.00000  -0.00418  -0.00417   2.20805
   A12        2.20738  -0.00021   0.00000   0.00120   0.00121   2.20859
   A13        1.86359   0.00129   0.00000   0.00298   0.00295   1.86654
    D1        0.00000   0.00000   0.00000   0.00000   0.00000   0.00000
    D2        3.14159   0.00000   0.00000   0.00000   0.00000   3.14159
    D3        3.14159   0.00000   0.00000   0.00000   0.00000   3.14159
    D4        0.00000   0.00000   0.00000   0.00000   0.00000   0.00000
    D5        3.14159   0.00000   0.00000   0.00000   0.00000   3.14159
    D6        0.00000   0.00000   0.00000   0.00000   0.00000   0.00000
    D7        0.00000   0.00000   0.00000   0.00000   0.00000   0.00000
    D8        3.14159   0.00000   0.00000   0.00000   0.00000   3.14159
    D9        0.00000   0.00000   0.00000   0.00000   0.00000   0.00000
   D10        3.14159   0.00000   0.00000   0.00000   0.00000   3.14159
   D11        3.14159   0.00000   0.00000   0.00000   0.00000   3.14159
   D12        0.00000   0.00000   0.00000   0.00000   0.00000   0.00000
   D13        3.14159   0.00000   0.00000   0.00000   0.00000   3.14159
   D14        0.00000   0.00000   0.00000   0.00000   0.00000   0.00000
   D15        0.00000   0.00000   0.00000   0.00000   0.00000   0.00000
   D16        3.14159   0.00000   0.00000   0.00000   0.00000   3.14159
         Item               Value     Threshold  Converged?
 Maximum Force            0.029196     0.000450     NO 
 RMS     Force            0.007220     0.000300     NO 
 Maximum Displacement     0.040144     0.001800     NO 
 RMS     Displacement     0.015082     0.001200     NO 
 Predicted change in Energy=-1.681222D-03
 GradGradGradGradGradGradGradGradGradGradGradGradGradGradGradGradGradGrad

                          Input orientation:                          
 ---------------------------------------------------------------------
 Center     Atomic      Atomic             Coordinates (Angstroms)
 Number     Number       Type             X           Y           Z
 ---------------------------------------------------------------------
      1          7           0       -0.750531   -0.987202    0.000000
      2          1           0       -0.008090    2.106435    0.000000
      3          6           0        1.118778    0.293848    0.000000
      4          1           0        2.116266    0.691526    0.000000
      5          6           0        0.632575   -0.988062    0.000000
      6          1           0        1.191168   -1.906686    0.000000
      7          1           0       -2.094082    0.663386    0.000000
      8          6           0       -1.087798    0.280348    0.000000
      9          7           0        0.001625    1.104221    0.000000
 ---------------------------------------------------------------------
                    Distance matrix (angstroms):
                    1          2          3          4          5
     1  N    0.000000
     2  H    3.181479   0.000000
     3  C    2.266143   2.134315   0.000000
     4  H    3.322146   2.552422   1.073839   0.000000
     5  C    1.383106   3.160120   1.371017   2.241061   0.000000
     6  H    2.148406   4.188479   2.201725   2.757991   1.075126
     7  H    2.128279   2.536484   3.234042   4.210443   3.187780
     8  C    1.311653   2.121406   2.206618   3.230340   2.137416
     9  N    2.222564   1.002260   1.380122   2.154536   2.185348
                    6          7          8          9
     6  H    0.000000
     7  H    4.171108   0.000000
     8  C    3.158609   1.076720   0.000000
     9  N    3.237372   2.141571   1.365874   0.000000
 Stoichiometry    C3H4N2
 Framework group  CS[SG(C3H4N2)]
 Deg. of freedom    15
 Full point group                 CS      NOp   2
 Largest Abelian subgroup         CS      NOp   2
 Largest concise Abelian subgroup C1      NOp   1
                         Standard orientation:                         
 ---------------------------------------------------------------------
 Center     Atomic      Atomic             Coordinates (Angstroms)
 Number     Number       Type             X           Y           Z
 ---------------------------------------------------------------------
      1          7           0       -0.746158   -0.986306    0.000000
      2          1           0       -0.012588    2.109446    0.000000
      3          6           0        1.119471    0.300097    0.000000
      4          1           0        2.115815    0.700632    0.000000
      5          6           0        0.636944   -0.983201    0.000000
      6          1           0        1.198168   -1.900221    0.000000
      7          1           0       -2.094435    0.660424    0.000000
      8          6           0       -1.087058    0.280272    0.000000
      9          7           0        0.000000    1.107265    0.000000
 ---------------------------------------------------------------------
 Rotational constants (GHZ):      9.7667318      9.3704210      4.7822364
 Standard basis: 6-31G(d,p) (6D, 7F)
 There are    71 symmetry adapted basis functions of A'  symmetry.
 There are    24 symmetry adapted basis functions of A"  symmetry.
 Integral buffers will be    131072 words long.
 Raffenetti 1 integral format.
 Two-electron integral symmetry is turned on.
    95 basis functions,   168 primitive gaussians,    95 cartesian basis functions
    18 alpha electrons       18 beta electrons
       nuclear repulsion energy       163.1676094722 Hartrees.
 NAtoms=    9 NActive=    9 NUniq=    9 SFac= 1.00D+00 NAtFMM=   50 NAOKFM=F Big=F
 One-electron integrals computed using PRISM.
 NBasis=    95 RedAO= T  NBF=    71    24
 NBsUse=    95 1.00D-06 NBFU=    71    24
 Initial guess read from the read-write file.
 B after Tr=     0.000000    0.000000    0.000000
         Rot=    1.000000    0.000000    0.000000    0.000000 Ang=   0.00 deg.
 Initial guess orbital symmetries:
       Occupied  (A') (A') (A') (A') (A') (A') (A') (A') (A') (A')
                 (A') (A') (A') (A") (A') (A') (A") (A")
       Virtual   (A") (A') (A") (A') (A') (A') (A') (A') (A') (A')
                 (A') (A') (A") (A') (A") (A') (A") (A') (A') (A')
                 (A") (A') (A') (A') (A') (A") (A') (A') (A') (A')
                 (A') (A') (A") (A') (A") (A") (A') (A") (A') (A")
                 (A') (A') (A') (A') (A') (A") (A') (A") (A') (A")
                 (A') (A") (A') (A") (A") (A') (A') (A') (A') (A")
                 (A') (A") (A') (A") (A') (A') (A') (A') (A') (A')
                 (A') (A') (A') (A') (A') (A') (A')
 Harris functional with IExCor=  205 diagonalized for initial guess.
 ExpMin= 1.61D-01 ExpMax= 4.17D+03 ExpMxC= 6.27D+02 IAcc=1 IRadAn=         1 AccDes= 0.00D+00
 HarFok:  IExCor=  205 AccDes= 0.00D+00 IRadAn=         1 IDoV= 1
 ScaDFX=  1.000000  1.000000  1.000000  1.000000
 FoFCou: FMM=F IPFlag=           0 FMFlag=      100000 FMFlg1=           0
         NFxFlg=           0 DoJE=T BraDBF=F KetDBF=T FulRan=T
         Omega=  0.000000  0.000000  1.000000  0.000000  0.000000 ICntrl=     500 IOpCl=  0
         NMat0=    1 NMatS0=    1 NMatT0=    0 NMatD0=    1 NMtDS0=    0 NMtDT0=    0
         I1Cent=           4 NGrid=           0.
 Petite list used in FoFCou.
 Requested convergence on RMS density matrix=1.00D-08 within 128 cycles.
 Requested convergence on MAX density matrix=1.00D-06.
 Requested convergence on             energy=1.00D-06.
 No special actions if energy rises.
 Keep R1 ints in memory in canonical form, NReq=11265822.
 SCF Done:  E(RHF) =  -224.822448235     A.U. after   11 cycles
             Convg  =    0.5349D-08             -V/T =  2.0026
 ExpMin= 1.61D-01 ExpMax= 4.17D+03 ExpMxC= 6.27D+02 IAcc=1 IRadAn=         1 AccDes= 0.00D+00
 HarFok:  IExCor=  205 AccDes= 0.00D+00 IRadAn=         1 IDoV=-2
 ScaDFX=  1.000000  1.000000  1.000000  1.000000
 Range of M.O.s used for correlation:     6    95
 NBasis=    95 NAE=    18 NBE=    18 NFC=     5 NFV=     0
 NROrb=     90 NOA=    13 NOB=    13 NVA=    77 NVB=    77
 Semi-Direct transformation.
 ModeAB=           2 MOrb=            13 LenV=     423677748
 LASXX=      2227956 LTotXX=     2227956 LenRXX=     2227956
 LTotAB=     2314453 MaxLAS=     5335200 LenRXY=     5335200
 NonZer=     5461560 LenScr=     8933376 LnRSAI=           0
 LnScr1=           0 LExtra=           0 Total=     16496532
 MaxDsk=          -1 SrtSym=           F ITran=            4
 JobTyp=0 Pass  1:  I=   1 to  13.
 (rs|ai) integrals will be sorted in core.
 Spin components of T(2) and E(2):
     alpha-alpha T2 =       0.3347377572D-01 E2=     -0.9675516807D-01
     alpha-beta  T2 =       0.1787055939D+00 E2=     -0.5362994973D+00
     beta-beta   T2 =       0.3347377572D-01 E2=     -0.9675516807D-01
 ANorm=    0.1116088323D+01
 E2 =    -0.7298098334D+00 EUMP2 =    -0.22555225806876D+03
 R2 and R3 integrals will be kept in memory, NReq=    21618160.
 DD1Dir will call FoFMem   1 times, MxPair=       182
 NAB=    91 NAA=     0 NBB=     0.
 E3=       -0.15861755D-01        EUMP3=      -0.22556811982D+03
 Largest amplitude= 6.56D-02
 Discarding MO integrals.
          IDoAtm=111111111
          Differentiating once with respect to electric field.
                with respect to dipole field.
          Differentiating once with respect to nuclear coordinates.
          Keep R1 ints in memory in canonical form, NReq=11220176.
          There are     1 degrees of freedom in the 1st order CPHF.  IDoFFX=0.
 LinEq1:  Iter=  0 NonCon=     1 RMS=3.94D-03 Max=7.06D-02
 AX will form     1 AO Fock derivatives at one time.
 LinEq1:  Iter=  1 NonCon=     1 RMS=1.12D-03 Max=1.18D-02
 LinEq1:  Iter=  2 NonCon=     1 RMS=3.81D-04 Max=6.43D-03
 LinEq1:  Iter=  3 NonCon=     1 RMS=1.16D-04 Max=1.56D-03
 LinEq1:  Iter=  4 NonCon=     1 RMS=4.81D-05 Max=8.08D-04
 LinEq1:  Iter=  5 NonCon=     1 RMS=1.46D-05 Max=1.52D-04
 LinEq1:  Iter=  6 NonCon=     1 RMS=5.44D-06 Max=7.29D-05
 LinEq1:  Iter=  7 NonCon=     1 RMS=2.09D-06 Max=2.58D-05
 LinEq1:  Iter=  8 NonCon=     1 RMS=3.95D-07 Max=4.07D-06
 LinEq1:  Iter=  9 NonCon=     1 RMS=8.46D-08 Max=8.95D-07
 LinEq1:  Iter= 10 NonCon=     1 RMS=3.44D-08 Max=4.85D-07
 LinEq1:  Iter= 11 NonCon=     1 RMS=9.08D-09 Max=1.06D-07
 LinEq1:  Iter= 12 NonCon=     1 RMS=2.08D-09 Max=1.96D-08
 LinEq1:  Iter= 13 NonCon=     1 RMS=7.97D-10 Max=9.13D-09
 LinEq1:  Iter= 14 NonCon=     1 RMS=1.83D-10 Max=1.43D-09
 LinEq1:  Iter= 15 NonCon=     0 RMS=2.42D-11 Max=2.64D-10
 Linear equations converged to 1.000D-10 1.000D-09 after    15 iterations.
 End of Minotr Frequency-dependent properties file   721 does not exist.
 End of Minotr Frequency-dependent properties file   722 does not exist.
 Calling FoFJK, ICntrl=      2127 FMM=F ISym2X=1 I1Cent= 0 IOpClX= 0 NMat=1 NMatS=1 NMatT=0.
 ***** Axes restored to original set *****
 -------------------------------------------------------------------
 Center     Atomic                   Forces (Hartrees/Bohr)
 Number     Number              X              Y              Z
 -------------------------------------------------------------------
      1        7           0.002054634   -0.001258823    0.000000000
      2        1          -0.000089719   -0.000572096    0.000000000
      3        6          -0.000898847   -0.000081473    0.000000000
      4        1          -0.000389193   -0.000156598    0.000000000
      5        6          -0.001103339    0.002054222    0.000000000
      6        1          -0.000147930    0.000394406    0.000000000
      7        1           0.000758527   -0.000387688    0.000000000
      8        6          -0.000920006    0.003147070    0.000000000
      9        7           0.000735874   -0.003139021    0.000000000
 -------------------------------------------------------------------
 Cartesian Forces:  Max     0.003147070 RMS     0.001132316

 GradGradGradGradGradGradGradGradGradGradGradGradGradGradGradGradGradGrad
 Berny optimization.
 Using GEDIIS/GDIIS optimizer.
 Internal  Forces:  Max     0.001939215 RMS     0.000692663
 Search for a local minimum.
 Step number   2 out of a maximum of   48
 All quantities printed in internal units (Hartrees-Bohrs-Radians)
 Mixed Optimization -- En-DIIS/RFO-DIIS
 Update second derivatives using D2CorX and points    1    2
 DE= -1.56D-03 DEPred=-1.68D-03 R= 9.28D-01
 SS=  1.41D+00  RLast= 7.62D-02 DXNew= 5.0454D-01 2.2850D-01
 Trust test= 9.28D-01 RLast= 7.62D-02 DXMaxT set to 3.00D-01
 ITU=  1  0
 Use linear search instead of GDIIS.
     Eigenvalues ---    0.02199   0.02341   0.02380   0.02552   0.02603
     Eigenvalues ---    0.02706   0.15997   0.16000   0.16000   0.16008
     Eigenvalues ---    0.21848   0.22930   0.37169   0.37311   0.37557
     Eigenvalues ---    0.45184   0.47962   0.49160   0.51857   0.58680
     Eigenvalues ---    0.65211
 RFO step:  Lambda=-3.34568759D-05 EMin= 2.19891555D-02
 Quartic linear search produced a step of -0.04837.
 Iteration  1 RMS(Cart)=  0.00183073 RMS(Int)=  0.00000228
 Iteration  2 RMS(Cart)=  0.00000252 RMS(Int)=  0.00000104
 Iteration  3 RMS(Cart)=  0.00000000 RMS(Int)=  0.00000104
 ClnCor:  largest displacement from symmetrization is 2.09D-11 for atom     4.
 Variable       Old X    -DE/DX   Delta X   Delta X   Delta X     New X
                                 (Linear)    (Quad)   (Total)
    R1        2.61369  -0.00140  -0.00108  -0.00130  -0.00238   2.61131
    R2        2.47866   0.00092  -0.00207   0.00391   0.00183   2.48050
    R3        1.89400  -0.00057  -0.00083  -0.00016  -0.00099   1.89301
    R4        2.02926  -0.00042  -0.00049  -0.00051  -0.00100   2.02826
    R5        2.59085  -0.00189  -0.00190  -0.00133  -0.00323   2.58762
    R6        2.60805  -0.00194  -0.00073  -0.00306  -0.00379   2.60426
    R7        2.03169  -0.00041  -0.00047  -0.00052  -0.00099   2.03070
    R8        2.03471  -0.00085  -0.00053  -0.00157  -0.00210   2.03261
    R9        2.58113  -0.00159  -0.00150  -0.00088  -0.00238   2.57874
    A1        1.83147  -0.00038   0.00034  -0.00073  -0.00040   1.83107
    A2        2.31268   0.00014  -0.00009   0.00131   0.00122   2.31390
    A3        2.13466   0.00014   0.00007   0.00116   0.00123   2.13589
    A4        1.83584  -0.00028   0.00002  -0.00247  -0.00245   1.83340
    A5        1.93269   0.00064  -0.00022   0.00250   0.00228   1.93498
    A6        2.11775  -0.00024   0.00005  -0.00071  -0.00067   2.11709
    A7        2.23274  -0.00040   0.00017  -0.00179  -0.00162   2.23112
    A8        2.19456   0.00042  -0.00011   0.00137   0.00126   2.19582
    A9        1.95823  -0.00103   0.00001  -0.00363  -0.00362   1.95461
   A10        2.13039   0.00061   0.00011   0.00226   0.00237   2.13276
   A11        2.20805  -0.00044   0.00020  -0.00176  -0.00156   2.20650
   A12        2.20859  -0.00062  -0.00006  -0.00256  -0.00262   2.20597
   A13        1.86654   0.00105  -0.00014   0.00432   0.00418   1.87072
    D1        0.00000   0.00000   0.00000   0.00000   0.00000   0.00000
    D2        3.14159   0.00000   0.00000   0.00000   0.00000   3.14159
    D3        3.14159   0.00000   0.00000   0.00000   0.00000   3.14159
    D4        0.00000   0.00000   0.00000   0.00000   0.00000   0.00000
    D5        3.14159   0.00000   0.00000   0.00000   0.00000   3.14159
    D6        0.00000   0.00000   0.00000   0.00000   0.00000   0.00000
    D7        0.00000   0.00000   0.00000   0.00000   0.00000   0.00000
    D8        3.14159   0.00000   0.00000   0.00000   0.00000   3.14159
    D9        0.00000   0.00000   0.00000   0.00000   0.00000   0.00000
   D10        3.14159   0.00000   0.00000   0.00000   0.00000   3.14159
   D11        3.14159   0.00000   0.00000   0.00000   0.00000   3.14159
   D12        0.00000   0.00000   0.00000   0.00000   0.00000   0.00000
   D13        3.14159   0.00000   0.00000   0.00000   0.00000   3.14159
   D14        0.00000   0.00000   0.00000   0.00000   0.00000   0.00000
   D15        0.00000   0.00000   0.00000   0.00000   0.00000   0.00000
   D16        3.14159   0.00000   0.00000   0.00000   0.00000   3.14159
         Item               Value     Threshold  Converged?
 Maximum Force            0.001939     0.000450     NO 
 RMS     Force            0.000693     0.000300     NO 
 Maximum Displacement     0.006491     0.001800     NO 
 RMS     Displacement     0.001831     0.001200     NO 
 Predicted change in Energy=-2.044443D-05
 GradGradGradGradGradGradGradGradGradGradGradGradGradGradGradGradGradGrad

                          Input orientation:                          
 ---------------------------------------------------------------------
 Center     Atomic      Atomic             Coordinates (Angstroms)
 Number     Number       Type             X           Y           Z
 ---------------------------------------------------------------------
      1          7           0       -0.749867   -0.987035    0.000000
      2          1           0       -0.007528    2.103000    0.000000
      3          6           0        1.118820    0.293758    0.000000
      4          1           0        2.115719    0.691486    0.000000
      5          6           0        0.631979   -0.986081    0.000000
      6          1           0        1.190893   -1.903895    0.000000
      7          1           0       -2.093659    0.664129    0.000000
      8          6           0       -1.088544    0.281144    0.000000
      9          7           0        0.002098    1.101307    0.000000
 ---------------------------------------------------------------------
                    Distance matrix (angstroms):
                    1          2          3          4          5
     1  N    0.000000
     2  H    3.177953   0.000000
     3  C    2.265485   2.131200   0.000000
     4  H    3.320996   2.549617   1.073310   0.000000
     5  C    1.381847   3.154582   1.369308   2.239579   0.000000
     6  H    2.146434   4.182274   2.198835   2.755232   1.074600
     7  H    2.128878   2.534224   3.233759   4.209467   3.186267
     8  C    1.312624   2.118432   2.207400   3.230430   2.136834
     9  N    2.219601   1.001739   1.378116   2.152985   2.180353
                    6          7          8          9
     6  H    0.000000
     7  H    4.169296   0.000000
     8  C    3.157567   1.075608   0.000000
     9  N    3.231791   2.140870   1.364613   0.000000
 Stoichiometry    C3H4N2
 Framework group  CS[SG(C3H4N2)]
 Deg. of freedom    15
 Full point group                 CS      NOp   2
 Largest Abelian subgroup         CS      NOp   2
 Largest concise Abelian subgroup C1      NOp   1
                         Standard orientation:                         
 ---------------------------------------------------------------------
 Center     Atomic      Atomic             Coordinates (Angstroms)
 Number     Number       Type             X           Y           Z
 ---------------------------------------------------------------------
      1          7           0       -0.745083   -0.986371    0.000000
      2          1           0       -0.012925    2.106092    0.000000
      3          6           0        1.119376    0.300570    0.000000
      4          1           0        2.114959    0.701580    0.000000
      5          6           0        0.636753   -0.980866    0.000000
      6          1           0        1.198687   -1.896833    0.000000
      7          1           0       -2.094306    0.660358    0.000000
      8          6           0       -1.087935    0.280686    0.000000
      9          7           0        0.000000    1.104437    0.000000
 ---------------------------------------------------------------------
 Rotational constants (GHZ):      9.7764163      9.3908534      4.7898785
 Standard basis: 6-31G(d,p) (6D, 7F)
 There are    71 symmetry adapted basis functions of A'  symmetry.
 There are    24 symmetry adapted basis functions of A"  symmetry.
 Integral buffers will be    131072 words long.
 Raffenetti 1 integral format.
 Two-electron integral symmetry is turned on.
    95 basis functions,   168 primitive gaussians,    95 cartesian basis functions
    18 alpha electrons       18 beta electrons
       nuclear repulsion energy       163.2916658172 Hartrees.
 NAtoms=    9 NActive=    9 NUniq=    9 SFac= 1.00D+00 NAtFMM=   50 NAOKFM=F Big=F
 One-electron integrals computed using PRISM.
 NBasis=    95 RedAO= T  NBF=    71    24
 NBsUse=    95 1.00D-06 NBFU=    71    24
 Initial guess read from the read-write file.
 B after Tr=     0.000000    0.000000    0.000000
         Rot=    1.000000    0.000000    0.000000    0.000000 Ang=   0.00 deg.
 Initial guess orbital symmetries:
       Occupied  (A') (A') (A') (A') (A') (A') (A') (A') (A') (A')
                 (A') (A') (A') (A") (A') (A') (A") (A")
       Virtual   (A") (A') (A") (A') (A') (A') (A') (A') (A') (A')
                 (A') (A') (A") (A') (A") (A') (A") (A') (A') (A')
                 (A") (A') (A') (A') (A') (A") (A') (A') (A') (A')
                 (A') (A') (A") (A') (A") (A") (A') (A") (A') (A")
                 (A') (A') (A') (A') (A') (A") (A') (A") (A') (A")
                 (A') (A") (A') (A") (A") (A') (A') (A') (A') (A")
                 (A') (A") (A') (A") (A') (A') (A') (A') (A') (A')
                 (A') (A') (A') (A') (A') (A') (A')
 Requested convergence on RMS density matrix=1.00D-08 within 128 cycles.
 Requested convergence on MAX density matrix=1.00D-06.
 Requested convergence on             energy=1.00D-06.
 No special actions if energy rises.
 Keep R1 ints in memory in canonical form, NReq=11265822.
 SCF Done:  E(RHF) =  -224.822604066     A.U. after   10 cycles
             Convg  =    0.2395D-08             -V/T =  2.0025
 ExpMin= 1.61D-01 ExpMax= 4.17D+03 ExpMxC= 6.27D+02 IAcc=1 IRadAn=         1 AccDes= 0.00D+00
 HarFok:  IExCor=  205 AccDes= 0.00D+00 IRadAn=         1 IDoV=-2
 ScaDFX=  1.000000  1.000000  1.000000  1.000000
 Range of M.O.s used for correlation:     6    95
 NBasis=    95 NAE=    18 NBE=    18 NFC=     5 NFV=     0
 NROrb=     90 NOA=    13 NOB=    13 NVA=    77 NVB=    77
 Semi-Direct transformation.
 ModeAB=           2 MOrb=            13 LenV=     423677748
 LASXX=      2227956 LTotXX=     2227956 LenRXX=     2227956
 LTotAB=     2314453 MaxLAS=     5335200 LenRXY=     5335200
 NonZer=     5461560 LenScr=     8933376 LnRSAI=           0
 LnScr1=           0 LExtra=           0 Total=     16496532
 MaxDsk=          -1 SrtSym=           F ITran=            4
 JobTyp=0 Pass  1:  I=   1 to  13.
 (rs|ai) integrals will be sorted in core.
 Spin components of T(2) and E(2):
     alpha-alpha T2 =       0.3345400114D-01 E2=     -0.9676058066D-01
     alpha-beta  T2 =       0.1785088640D+00 E2=     -0.5361528155D+00
     beta-beta   T2 =       0.3345400114D-01 E2=     -0.9676058066D-01
 ANorm=    0.1115982467D+01
 E2 =    -0.7296739769D+00 EUMP2 =    -0.22555227804311D+03
 R2 and R3 integrals will be kept in memory, NReq=    21618160.
 DD1Dir will call FoFMem   1 times, MxPair=       182
 NAB=    91 NAA=     0 NBB=     0.
 E3=       -0.15863854D-01        EUMP3=      -0.22556814190D+03
 Largest amplitude= 6.55D-02
 Discarding MO integrals.
          IDoAtm=111111111
          Differentiating once with respect to electric field.
                with respect to dipole field.
          Differentiating once with respect to nuclear coordinates.
          Keep R1 ints in memory in canonical form, NReq=11220176.
          There are     1 degrees of freedom in the 1st order CPHF.  IDoFFX=0.
 LinEq1:  Iter=  0 NonCon=     1 RMS=3.93D-03 Max=7.04D-02
 AX will form     1 AO Fock derivatives at one time.
 LinEq1:  Iter=  1 NonCon=     1 RMS=1.11D-03 Max=1.17D-02
 LinEq1:  Iter=  2 NonCon=     1 RMS=3.80D-04 Max=6.47D-03
 LinEq1:  Iter=  3 NonCon=     1 RMS=1.16D-04 Max=1.57D-03
 LinEq1:  Iter=  4 NonCon=     1 RMS=4.81D-05 Max=8.04D-04
 LinEq1:  Iter=  5 NonCon=     1 RMS=1.46D-05 Max=1.52D-04
 LinEq1:  Iter=  6 NonCon=     1 RMS=5.41D-06 Max=7.23D-05
 LinEq1:  Iter=  7 NonCon=     1 RMS=2.08D-06 Max=2.57D-05
 LinEq1:  Iter=  8 NonCon=     1 RMS=3.95D-07 Max=4.00D-06
 LinEq1:  Iter=  9 NonCon=     1 RMS=8.82D-08 Max=9.72D-07
 LinEq1:  Iter= 10 NonCon=     1 RMS=3.59D-08 Max=5.11D-07
 LinEq1:  Iter= 11 NonCon=     1 RMS=9.25D-09 Max=1.11D-07
 LinEq1:  Iter= 12 NonCon=     1 RMS=2.20D-09 Max=1.95D-08
 LinEq1:  Iter= 13 NonCon=     1 RMS=8.61D-10 Max=9.23D-09
 LinEq1:  Iter= 14 NonCon=     1 RMS=1.83D-10 Max=1.44D-09
 LinEq1:  Iter= 15 NonCon=     0 RMS=2.40D-11 Max=2.60D-10
 Linear equations converged to 1.000D-10 1.000D-09 after    15 iterations.
 End of Minotr Frequency-dependent properties file   721 does not exist.
 End of Minotr Frequency-dependent properties file   722 does not exist.
 Calling FoFJK, ICntrl=      2127 FMM=F ISym2X=1 I1Cent= 0 IOpClX= 0 NMat=1 NMatS=1 NMatT=0.
 ***** Axes restored to original set *****
 -------------------------------------------------------------------
 Center     Atomic                   Forces (Hartrees/Bohr)
 Number     Number              X              Y              Z
 -------------------------------------------------------------------
      1        7           0.000906527   -0.000828849    0.000000000
      2        1          -0.000053240    0.000048766    0.000000000
      3        6          -0.000430922    0.000294577    0.000000000
      4        1          -0.000073143   -0.000010856    0.000000000
      5        6          -0.000729449   -0.000267678    0.000000000
      6        1           0.000026720   -0.000049906    0.000000000
      7        1           0.000085412   -0.000069797    0.000000000
      8        6           0.000318283    0.001166005    0.000000000
      9        7          -0.000050189   -0.000282262    0.000000000
 -------------------------------------------------------------------
 Cartesian Forces:  Max     0.001166005 RMS     0.000382686

 GradGradGradGradGradGradGradGradGradGradGradGradGradGradGradGradGradGrad
 Berny optimization.
 Using GEDIIS/GDIIS optimizer.
 Internal  Forces:  Max     0.000838713 RMS     0.000230650
 Search for a local minimum.
 Step number   3 out of a maximum of   48
 All quantities printed in internal units (Hartrees-Bohrs-Radians)
 Mixed Optimization -- En-DIIS/RFO-DIIS
 Swaping is turned off.
 Update second derivatives using D2CorX and points    1    2    3
 DE= -2.21D-05 DEPred=-2.04D-05 R= 1.08D+00
 SS=  1.41D+00  RLast= 1.06D-02 DXNew= 5.0454D-01 3.1662D-02
 Trust test= 1.08D+00 RLast= 1.06D-02 DXMaxT set to 3.00D-01
 ITU=  1  1  0
     Eigenvalues ---    0.02199   0.02341   0.02380   0.02552   0.02603
     Eigenvalues ---    0.02705   0.15892   0.16000   0.16000   0.16007
     Eigenvalues ---    0.22887   0.25324   0.35611   0.37354   0.37395
     Eigenvalues ---    0.40972   0.45251   0.48896   0.51434   0.55560
     Eigenvalues ---    0.68189
 En-DIIS/RFO-DIIS IScMMF=        0 using points:     3    2
 RFO step:  Lambda=-3.02251097D-06.
 DidBck=F Rises=F RFO-DIIS coefs:    1.07368   -0.07368
 Iteration  1 RMS(Cart)=  0.00057284 RMS(Int)=  0.00000007
 Iteration  2 RMS(Cart)=  0.00000007 RMS(Int)=  0.00000004
 ClnCor:  largest displacement from symmetrization is 5.23D-12 for atom     4.
 Variable       Old X    -DE/DX   Delta X   Delta X   Delta X     New X
                                  (DIIS)     (GDIIS)  (Total)
    R1        2.61131  -0.00079  -0.00018  -0.00170  -0.00188   2.60943
    R2        2.48050   0.00084   0.00014   0.00150   0.00163   2.48213
    R3        1.89301   0.00005  -0.00007   0.00011   0.00003   1.89304
    R4        2.02826  -0.00007  -0.00007  -0.00023  -0.00030   2.02796
    R5        2.58762   0.00026  -0.00024   0.00041   0.00017   2.58779
    R6        2.60426  -0.00032  -0.00028  -0.00086  -0.00114   2.60312
    R7        2.03070   0.00006  -0.00007   0.00014   0.00007   2.03077
    R8        2.03261  -0.00010  -0.00015  -0.00036  -0.00052   2.03209
    R9        2.57874  -0.00057  -0.00018  -0.00112  -0.00130   2.57744
    A1        1.83107  -0.00010  -0.00003  -0.00023  -0.00025   1.83082
    A2        2.31390  -0.00011   0.00009  -0.00033  -0.00024   2.31366
    A3        2.13589  -0.00015   0.00009  -0.00057  -0.00048   2.13541
    A4        1.83340   0.00026  -0.00018   0.00091   0.00073   1.83412
    A5        1.93498  -0.00009   0.00017  -0.00040  -0.00023   1.93475
    A6        2.11709   0.00004  -0.00005   0.00020   0.00015   2.11724
    A7        2.23112   0.00005  -0.00012   0.00020   0.00008   2.23120
    A8        2.19582  -0.00008   0.00009  -0.00047  -0.00037   2.19544
    A9        1.95461   0.00008  -0.00027   0.00042   0.00016   1.95476
   A10        2.13276  -0.00001   0.00017   0.00005   0.00022   2.13298
   A11        2.20650   0.00013  -0.00011   0.00071   0.00059   2.20709
   A12        2.20597   0.00003  -0.00019   0.00000  -0.00019   2.20577
   A13        1.87072  -0.00015   0.00031  -0.00070  -0.00040   1.87033
    D1        0.00000   0.00000   0.00000   0.00000   0.00000   0.00000
    D2        3.14159   0.00000   0.00000   0.00000   0.00000   3.14159
    D3        3.14159   0.00000   0.00000   0.00000   0.00000   3.14159
    D4        0.00000   0.00000   0.00000   0.00000   0.00000   0.00000
    D5        3.14159   0.00000   0.00000   0.00000   0.00000   3.14159
    D6        0.00000   0.00000   0.00000   0.00000   0.00000   0.00000
    D7        0.00000   0.00000   0.00000   0.00000   0.00000   0.00000
    D8        3.14159   0.00000   0.00000   0.00000   0.00000   3.14159
    D9        0.00000   0.00000   0.00000   0.00000   0.00000   0.00000
   D10        3.14159   0.00000   0.00000   0.00000   0.00000   3.14159
   D11        3.14159   0.00000   0.00000   0.00000   0.00000   3.14159
   D12        0.00000   0.00000   0.00000   0.00000   0.00000   0.00000
   D13        3.14159   0.00000   0.00000   0.00000   0.00000   3.14159
   D14        0.00000   0.00000   0.00000   0.00000   0.00000   0.00000
   D15        0.00000   0.00000   0.00000   0.00000   0.00000   0.00000
   D16        3.14159   0.00000   0.00000   0.00000   0.00000   3.14159
         Item               Value     Threshold  Converged?
 Maximum Force            0.000839     0.000450     NO 
 RMS     Force            0.000231     0.000300     YES
 Maximum Displacement     0.001736     0.001800     YES
 RMS     Displacement     0.000573     0.001200     YES
 Predicted change in Energy=-2.300672D-06
 GradGradGradGradGradGradGradGradGradGradGradGradGradGradGradGradGradGrad

                          Input orientation:                          
 ---------------------------------------------------------------------
 Center     Atomic      Atomic             Coordinates (Angstroms)
 Number     Number       Type             X           Y           Z
 ---------------------------------------------------------------------
      1          7           0       -0.749187   -0.987451    0.000000
      2          1           0       -0.007680    2.103087    0.000000
      3          6           0        1.118091    0.293763    0.000000
      4          1           0        2.114800    0.691536    0.000000
      5          6           0        0.631664   -0.986333    0.000000
      6          1           0        1.190844   -1.904029    0.000000
      7          1           0       -2.092866    0.664254    0.000000
      8          6           0       -1.087915    0.281608    0.000000
      9          7           0        0.002161    1.101379    0.000000
 ---------------------------------------------------------------------
                    Distance matrix (angstroms):
                    1          2          3          4          5
     1  N    0.000000
     2  H    3.178248   0.000000
     3  C    2.264561   2.130965   0.000000
     4  H    3.319853   2.548999   1.073151   0.000000
     5  C    1.380852   3.154881   1.369400   2.239406   0.000000
     6  H    2.145655   4.182515   2.198996   2.755114   1.074638
     7  H    2.129226   2.533425   3.232260   4.207754   3.185514
     8  C    1.313487   2.117710   2.206039   3.228843   2.136499
     9  N    2.219850   1.001756   1.377513   2.152026   2.180554
                    6          7          8          9
     6  H    0.000000
     7  H    4.168792   0.000000
     8  C    3.157491   1.075334   0.000000
     9  N    3.231941   2.140144   1.363925   0.000000
 Stoichiometry    C3H4N2
 Framework group  CS[SG(C3H4N2)]
 Deg. of freedom    15
 Full point group                 CS      NOp   2
 Largest Abelian subgroup         CS      NOp   2
 Largest concise Abelian subgroup C1      NOp   1
                         Standard orientation:                         
 ---------------------------------------------------------------------
 Center     Atomic      Atomic             Coordinates (Angstroms)
 Number     Number       Type             X           Y           Z
 ---------------------------------------------------------------------
      1          7           0       -0.744471   -0.986755    0.000000
      2          1           0       -0.013136    2.106206    0.000000
      3          6           0        1.118581    0.300596    0.000000
      4          1           0        2.113976    0.701647    0.000000
      5          6           0        0.636369   -0.981093    0.000000
      6          1           0        1.198565   -1.896944    0.000000
      7          1           0       -2.093577    0.660520    0.000000
      8          6           0       -1.087373    0.281182    0.000000
      9          7           0        0.000000    1.104536    0.000000
 ---------------------------------------------------------------------
 Rotational constants (GHZ):      9.7826248      9.3918271      4.7916218
 Standard basis: 6-31G(d,p) (6D, 7F)
 There are    71 symmetry adapted basis functions of A'  symmetry.
 There are    24 symmetry adapted basis functions of A"  symmetry.
 Integral buffers will be    131072 words long.
 Raffenetti 1 integral format.
 Two-electron integral symmetry is turned on.
    95 basis functions,   168 primitive gaussians,    95 cartesian basis functions
    18 alpha electrons       18 beta electrons
       nuclear repulsion energy       163.3198425938 Hartrees.
 NAtoms=    9 NActive=    9 NUniq=    9 SFac= 1.00D+00 NAtFMM=   50 NAOKFM=F Big=F
 One-electron integrals computed using PRISM.
 NBasis=    95 RedAO= T  NBF=    71    24
 NBsUse=    95 1.00D-06 NBFU=    71    24
 Initial guess read from the read-write file.
 B after Tr=     0.000000    0.000000    0.000000
         Rot=    1.000000    0.000000    0.000000    0.000000 Ang=   0.00 deg.
 Initial guess orbital symmetries:
       Occupied  (A') (A') (A') (A') (A') (A') (A') (A') (A') (A')
                 (A') (A') (A') (A") (A') (A') (A") (A")
       Virtual   (A") (A') (A") (A') (A') (A') (A') (A') (A') (A')
                 (A') (A') (A") (A') (A") (A') (A") (A') (A') (A')
                 (A") (A') (A') (A') (A') (A") (A') (A') (A') (A')
                 (A') (A') (A") (A') (A") (A") (A') (A") (A') (A")
                 (A') (A') (A') (A') (A') (A") (A') (A") (A') (A")
                 (A') (A") (A') (A") (A") (A') (A') (A') (A') (A")
                 (A') (A") (A') (A") (A') (A') (A') (A') (A') (A')
                 (A') (A') (A') (A') (A') (A') (A')
 Requested convergence on RMS density matrix=1.00D-08 within 128 cycles.
 Requested convergence on MAX density matrix=1.00D-06.
 Requested convergence on             energy=1.00D-06.
 No special actions if energy rises.
 Keep R1 ints in memory in canonical form, NReq=11265822.
 SCF Done:  E(RHF) =  -224.822611584     A.U. after    9 cycles
             Convg  =    0.5205D-08             -V/T =  2.0025
 ExpMin= 1.61D-01 ExpMax= 4.17D+03 ExpMxC= 6.27D+02 IAcc=1 IRadAn=         1 AccDes= 0.00D+00
 HarFok:  IExCor=  205 AccDes= 0.00D+00 IRadAn=         1 IDoV=-2
 ScaDFX=  1.000000  1.000000  1.000000  1.000000
 Range of M.O.s used for correlation:     6    95
 NBasis=    95 NAE=    18 NBE=    18 NFC=     5 NFV=     0
 NROrb=     90 NOA=    13 NOB=    13 NVA=    77 NVB=    77
 Semi-Direct transformation.
 ModeAB=           2 MOrb=            13 LenV=     423677748
 LASXX=      2227956 LTotXX=     2227956 LenRXX=     2227956
 LTotAB=     2314453 MaxLAS=     5335200 LenRXY=     5335200
 NonZer=     5461560 LenScr=     8933376 LnRSAI=           0
 LnScr1=           0 LExtra=           0 Total=     16496532
 MaxDsk=          -1 SrtSym=           F ITran=            4
 JobTyp=0 Pass  1:  I=   1 to  13.
 (rs|ai) integrals will be sorted in core.
 Spin components of T(2) and E(2):
     alpha-alpha T2 =       0.3345594805D-01 E2=     -0.9677139856D-01
     alpha-beta  T2 =       0.1784875641D+00 E2=     -0.5361433443D+00
     beta-beta   T2 =       0.3345594805D-01 E2=     -0.9677139856D-01
 ANorm=    0.1115974668D+01
 E2 =    -0.7296861414D+00 EUMP2 =    -0.22555229772511D+03
 R2 and R3 integrals will be kept in memory, NReq=    21618160.
 DD1Dir will call FoFMem   1 times, MxPair=       182
 NAB=    91 NAA=     0 NBB=     0.
 E3=       -0.15846314D-01        EUMP3=      -0.22556814404D+03
 Largest amplitude= 6.55D-02
 Discarding MO integrals.
          IDoAtm=111111111
          Differentiating once with respect to electric field.
                with respect to dipole field.
          Differentiating once with respect to nuclear coordinates.
          Keep R1 ints in memory in canonical form, NReq=11220176.
          There are     1 degrees of freedom in the 1st order CPHF.  IDoFFX=0.
 LinEq1:  Iter=  0 NonCon=     1 RMS=3.93D-03 Max=7.04D-02
 AX will form     1 AO Fock derivatives at one time.
 LinEq1:  Iter=  1 NonCon=     1 RMS=1.11D-03 Max=1.17D-02
 LinEq1:  Iter=  2 NonCon=     1 RMS=3.80D-04 Max=6.49D-03
 LinEq1:  Iter=  3 NonCon=     1 RMS=1.16D-04 Max=1.57D-03
 LinEq1:  Iter=  4 NonCon=     1 RMS=4.82D-05 Max=8.03D-04
 LinEq1:  Iter=  5 NonCon=     1 RMS=1.46D-05 Max=1.53D-04
 LinEq1:  Iter=  6 NonCon=     1 RMS=5.42D-06 Max=7.27D-05
 LinEq1:  Iter=  7 NonCon=     1 RMS=2.09D-06 Max=2.57D-05
 LinEq1:  Iter=  8 NonCon=     1 RMS=3.95D-07 Max=3.99D-06
 LinEq1:  Iter=  9 NonCon=     1 RMS=8.91D-08 Max=1.01D-06
 LinEq1:  Iter= 10 NonCon=     1 RMS=3.62D-08 Max=5.17D-07
 LinEq1:  Iter= 11 NonCon=     1 RMS=9.33D-09 Max=1.13D-07
 LinEq1:  Iter= 12 NonCon=     1 RMS=2.24D-09 Max=1.95D-08
 LinEq1:  Iter= 13 NonCon=     1 RMS=8.80D-10 Max=9.15D-09
 LinEq1:  Iter= 14 NonCon=     1 RMS=1.83D-10 Max=1.45D-09
 LinEq1:  Iter= 15 NonCon=     0 RMS=2.40D-11 Max=2.59D-10
 Linear equations converged to 1.000D-10 1.000D-09 after    15 iterations.
 End of Minotr Frequency-dependent properties file   721 does not exist.
 End of Minotr Frequency-dependent properties file   722 does not exist.
 Calling FoFJK, ICntrl=      2127 FMM=F ISym2X=1 I1Cent= 0 IOpClX= 0 NMat=1 NMatS=1 NMatT=0.
 ***** Axes restored to original set *****
 -------------------------------------------------------------------
 Center     Atomic                   Forces (Hartrees/Bohr)
 Number     Number              X              Y              Z
 -------------------------------------------------------------------
      1        7           0.000057550   -0.000025320    0.000000000
      2        1          -0.000006324    0.000024993    0.000000000
      3        6           0.000285698    0.000184433    0.000000000
      4        1           0.000067865    0.000008749    0.000000000
      5        6          -0.000221483   -0.000178116    0.000000000
      6        1           0.000050223   -0.000013441    0.000000000
      7        1          -0.000100387   -0.000013070    0.000000000
      8        6          -0.000048139    0.000121698    0.000000000
      9        7          -0.000085003   -0.000109925    0.000000000
 -------------------------------------------------------------------
 Cartesian Forces:  Max     0.000285698 RMS     0.000097203

 GradGradGradGradGradGradGradGradGradGradGradGradGradGradGradGradGradGrad
 Berny optimization.
 Using GEDIIS/GDIIS optimizer.
 Internal  Forces:  Max     0.000216956 RMS     0.000060521
 Search for a local minimum.
 Step number   4 out of a maximum of   48
 All quantities printed in internal units (Hartrees-Bohrs-Radians)
 Mixed Optimization -- En-DIIS/RFO-DIIS
 Swaping is turned off.
 Update second derivatives using D2CorX and points    1    2    3    4
 DE= -2.14D-06 DEPred=-2.30D-06 R= 9.31D-01
 SS=  1.41D+00  RLast= 3.36D-03 DXNew= 5.0454D-01 1.0084D-02
 Trust test= 9.31D-01 RLast= 3.36D-03 DXMaxT set to 3.00D-01
 ITU=  1  1  1  0
     Eigenvalues ---    0.02199   0.02340   0.02380   0.02552   0.02603
     Eigenvalues ---    0.02705   0.15302   0.16000   0.16003   0.16066
     Eigenvalues ---    0.22812   0.24190   0.37225   0.37384   0.37870
     Eigenvalues ---    0.45154   0.46302   0.48880   0.51166   0.57082
     Eigenvalues ---    0.63738
 En-DIIS/RFO-DIIS IScMMF=        0 using points:     4    3    2
 RFO step:  Lambda=-2.20197731D-07.
 DidBck=F Rises=F RFO-DIIS coefs:    0.92594    0.08868   -0.01462
 Iteration  1 RMS(Cart)=  0.00018279 RMS(Int)=  0.00000003
 Iteration  2 RMS(Cart)=  0.00000002 RMS(Int)=  0.00000002
 ClnCor:  largest displacement from symmetrization is 1.99D-12 for atom     4.
 Variable       Old X    -DE/DX   Delta X   Delta X   Delta X     New X
                                  (DIIS)     (GDIIS)  (Total)
    R1        2.60943  -0.00001   0.00010  -0.00026  -0.00015   2.60928
    R2        2.48213   0.00006  -0.00009   0.00028   0.00019   2.48232
    R3        1.89304   0.00003  -0.00002   0.00007   0.00005   1.89310
    R4        2.02796   0.00007   0.00001   0.00013   0.00014   2.02810
    R5        2.58779   0.00022  -0.00006   0.00046   0.00040   2.58819
    R6        2.60312   0.00014   0.00003   0.00016   0.00018   2.60331
    R7        2.03077   0.00004  -0.00002   0.00012   0.00010   2.03087
    R8        2.03209   0.00009   0.00001   0.00018   0.00018   2.03227
    R9        2.57744   0.00004   0.00006  -0.00010  -0.00003   2.57741
    A1        1.83082   0.00006   0.00001   0.00013   0.00015   1.83097
    A2        2.31366   0.00004   0.00004   0.00007   0.00010   2.31376
    A3        2.13541   0.00008   0.00005   0.00023   0.00028   2.13569
    A4        1.83412  -0.00012  -0.00009  -0.00030  -0.00039   1.83373
    A5        1.93475   0.00003   0.00005   0.00008   0.00013   1.93488
    A6        2.11724   0.00002  -0.00002   0.00017   0.00015   2.11739
    A7        2.23120  -0.00005  -0.00003  -0.00025  -0.00028   2.23092
    A8        2.19544  -0.00002   0.00005  -0.00022  -0.00017   2.19527
    A9        1.95476  -0.00005  -0.00006  -0.00020  -0.00027   1.95449
   A10        2.13298   0.00008   0.00002   0.00042   0.00044   2.13342
   A11        2.20709  -0.00004  -0.00007  -0.00006  -0.00013   2.20696
   A12        2.20577  -0.00005  -0.00002  -0.00023  -0.00025   2.20552
   A13        1.87033   0.00009   0.00009   0.00029   0.00038   1.87071
    D1        0.00000   0.00000   0.00000   0.00000   0.00000   0.00000
    D2        3.14159   0.00000   0.00000   0.00000   0.00000   3.14159
    D3        3.14159   0.00000   0.00000   0.00000   0.00000   3.14159
    D4        0.00000   0.00000   0.00000   0.00000   0.00000   0.00000
    D5        3.14159   0.00000   0.00000   0.00000   0.00000   3.14159
    D6        0.00000   0.00000   0.00000   0.00000   0.00000   0.00000
    D7        0.00000   0.00000   0.00000   0.00000   0.00000   0.00000
    D8        3.14159   0.00000   0.00000   0.00000   0.00000   3.14159
    D9        0.00000   0.00000   0.00000   0.00000   0.00000   0.00000
   D10        3.14159   0.00000   0.00000   0.00000   0.00000   3.14159
   D11        3.14159   0.00000   0.00000   0.00000   0.00000   3.14159
   D12        0.00000   0.00000   0.00000   0.00000   0.00000   0.00000
   D13        3.14159   0.00000   0.00000   0.00000   0.00000   3.14159
   D14        0.00000   0.00000   0.00000   0.00000   0.00000   0.00000
   D15        0.00000   0.00000   0.00000   0.00000   0.00000   0.00000
   D16        3.14159   0.00000   0.00000   0.00000   0.00000   3.14159
         Item               Value     Threshold  Converged?
 Maximum Force            0.000217     0.000450     YES
 RMS     Force            0.000061     0.000300     YES
 Maximum Displacement     0.000656     0.001800     YES
 RMS     Displacement     0.000183     0.001200     YES
 Predicted change in Energy=-1.848150D-07
 Optimization completed.
    -- Stationary point found.
                           ----------------------------
                           !   Optimized Parameters   !
                           ! (Angstroms and Degrees)  !
 --------------------------                            --------------------------
 ! Name  Definition              Value          Derivative Info.                !
 --------------------------------------------------------------------------------
 ! R1    R(1,5)                  1.3809         -DE/DX =    0.0                 !
 ! R2    R(1,8)                  1.3135         -DE/DX =    0.0001              !
 ! R3    R(2,9)                  1.0018         -DE/DX =    0.0                 !
 ! R4    R(3,4)                  1.0732         -DE/DX =    0.0001              !
 ! R5    R(3,5)                  1.3694         -DE/DX =    0.0002              !
 ! R6    R(3,9)                  1.3775         -DE/DX =    0.0001              !
 ! R7    R(5,6)                  1.0746         -DE/DX =    0.0                 !
 ! R8    R(7,8)                  1.0753         -DE/DX =    0.0001              !
 ! R9    R(8,9)                  1.3639         -DE/DX =    0.0                 !
 ! A1    A(5,1,8)              104.8982         -DE/DX =    0.0001              !
 ! A2    A(4,3,5)              132.5627         -DE/DX =    0.0                 !
 ! A3    A(4,3,9)              122.3499         -DE/DX =    0.0001              !
 ! A4    A(5,3,9)              105.0875         -DE/DX =   -0.0001              !
 ! A5    A(1,5,3)              110.8528         -DE/DX =    0.0                 !
 ! A6    A(1,5,6)              121.3088         -DE/DX =    0.0                 !
 ! A7    A(3,5,6)              127.8384         -DE/DX =    0.0                 !
 ! A8    A(1,8,7)              125.7895         -DE/DX =    0.0                 !
 ! A9    A(1,8,9)              111.9997         -DE/DX =   -0.0001              !
 ! A10   A(7,8,9)              122.2108         -DE/DX =    0.0001              !
 ! A11   A(2,9,3)              126.4567         -DE/DX =    0.0                 !
 ! A12   A(2,9,8)              126.3815         -DE/DX =   -0.0001              !
 ! A13   A(3,9,8)              107.1618         -DE/DX =    0.0001              !
 ! D1    D(8,1,5,3)              0.0            -DE/DX =    0.0                 !
 ! D2    D(8,1,5,6)            180.0            -DE/DX =    0.0                 !
 ! D3    D(5,1,8,7)            180.0            -DE/DX =    0.0                 !
 ! D4    D(5,1,8,9)              0.0            -DE/DX =    0.0                 !
 ! D5    D(4,3,5,1)            180.0            -DE/DX =    0.0                 !
 ! D6    D(4,3,5,6)              0.0            -DE/DX =    0.0                 !
 ! D7    D(9,3,5,1)              0.0            -DE/DX =    0.0                 !
 ! D8    D(9,3,5,6)            180.0            -DE/DX =    0.0                 !
 ! D9    D(4,3,9,2)              0.0            -DE/DX =    0.0                 !
 ! D10   D(4,3,9,8)            180.0            -DE/DX =    0.0                 !
 ! D11   D(5,3,9,2)            180.0            -DE/DX =    0.0                 !
 ! D12   D(5,3,9,8)              0.0            -DE/DX =    0.0                 !
 ! D13   D(1,8,9,2)            180.0            -DE/DX =    0.0                 !
 ! D14   D(1,8,9,3)              0.0            -DE/DX =    0.0                 !
 ! D15   D(7,8,9,2)              0.0            -DE/DX =    0.0                 !
 ! D16   D(7,8,9,3)            180.0            -DE/DX =    0.0                 !
 --------------------------------------------------------------------------------
 GradGradGradGradGradGradGradGradGradGradGradGradGradGradGradGradGradGrad

                          Input orientation:                          
 ---------------------------------------------------------------------
 Center     Atomic      Atomic             Coordinates (Angstroms)
 Number     Number       Type             X           Y           Z
 ---------------------------------------------------------------------
      1          7           0       -0.749187   -0.987451    0.000000
      2          1           0       -0.007680    2.103087    0.000000
      3          6           0        1.118091    0.293763    0.000000
      4          1           0        2.114800    0.691536    0.000000
      5          6           0        0.631664   -0.986333    0.000000
      6          1           0        1.190844   -1.904029    0.000000
      7          1           0       -2.092866    0.664254    0.000000
      8          6           0       -1.087915    0.281608    0.000000
      9          7           0        0.002161    1.101379    0.000000
 ---------------------------------------------------------------------
                    Distance matrix (angstroms):
                    1          2          3          4          5
     1  N    0.000000
     2  H    3.178248   0.000000
     3  C    2.264561   2.130965   0.000000
     4  H    3.319853   2.548999   1.073151   0.000000
     5  C    1.380852   3.154881   1.369400   2.239406   0.000000
     6  H    2.145655   4.182515   2.198996   2.755114   1.074638
     7  H    2.129226   2.533425   3.232260   4.207754   3.185514
     8  C    1.313487   2.117710   2.206039   3.228843   2.136499
     9  N    2.219850   1.001756   1.377513   2.152026   2.180554
                    6          7          8          9
     6  H    0.000000
     7  H    4.168792   0.000000
     8  C    3.157491   1.075334   0.000000
     9  N    3.231941   2.140144   1.363925   0.000000
 Stoichiometry    C3H4N2
 Framework group  CS[SG(C3H4N2)]
 Deg. of freedom    15
 Full point group                 CS      NOp   2
 Largest Abelian subgroup         CS      NOp   2
 Largest concise Abelian subgroup C1      NOp   1
                         Standard orientation:                         
 ---------------------------------------------------------------------
 Center     Atomic      Atomic             Coordinates (Angstroms)
 Number     Number       Type             X           Y           Z
 ---------------------------------------------------------------------
      1          7           0       -0.744471   -0.986755    0.000000
      2          1           0       -0.013136    2.106206    0.000000
      3          6           0        1.118581    0.300596    0.000000
      4          1           0        2.113976    0.701647    0.000000
      5          6           0        0.636369   -0.981093    0.000000
      6          1           0        1.198565   -1.896944    0.000000
      7          1           0       -2.093577    0.660520    0.000000
      8          6           0       -1.087373    0.281182    0.000000
      9          7           0        0.000000    1.104536    0.000000
 ---------------------------------------------------------------------
 Rotational constants (GHZ):      9.7826248      9.3918271      4.7916218

 **********************************************************************

            Population analysis using the SCF density.

 **********************************************************************

 Orbital symmetries:
       Occupied  (A') (A') (A') (A') (A') (A') (A') (A') (A') (A')
                 (A') (A') (A') (A") (A') (A') (A") (A")
       Virtual   (A") (A') (A") (A') (A') (A') (A') (A') (A') (A')
                 (A') (A') (A") (A') (A") (A') (A") (A') (A') (A')
                 (A") (A') (A') (A') (A') (A") (A') (A') (A') (A')
                 (A') (A') (A") (A') (A") (A") (A') (A") (A') (A")
                 (A') (A') (A') (A') (A') (A") (A') (A") (A') (A")
                 (A') (A") (A') (A") (A") (A') (A') (A') (A') (A")
                 (A') (A") (A') (A") (A') (A') (A') (A') (A') (A')
                 (A') (A') (A') (A') (A') (A') (A')
 The electronic state is 1-A'.
 Alpha  occ. eigenvalues --  -15.62353 -15.54315 -11.29314 -11.25888 -11.23864
 Alpha  occ. eigenvalues --   -1.33486  -1.16057  -1.00237  -0.82388  -0.79397
 Alpha  occ. eigenvalues --   -0.75424  -0.60306  -0.59767  -0.59077  -0.56329
 Alpha  occ. eigenvalues --   -0.42962  -0.39129  -0.31525
 Alpha virt. eigenvalues --    0.18861   0.21902   0.24284   0.28278   0.29776
 Alpha virt. eigenvalues --    0.31832   0.39520   0.41208   0.48639   0.51527
[...]
     9   7    -0.07  -0.12   0.00    -0.09   0.01   0.00     0.00   0.00   0.00
                    19                     20                     21
                    A'                     A'                     A'
 Frequencies --  3359.2374              3387.3912              3807.4661
 Red. masses --     1.0965                 1.1053                 1.0818
 Frc consts  --     7.2899                 7.4721                 9.2399
 IR Inten    --     0.2257                 1.9882                74.9188
  Atom  AN      X      Y      Z        X      Y      Z        X      Y      Z
     1   7     0.00   0.00   0.00     0.00   0.00   0.00     0.00   0.00   0.00
     2   1    -0.01   0.01   0.00    -0.01  -0.02   0.00    -0.01   1.00   0.00
     3   6    -0.02  -0.01   0.00    -0.08  -0.03   0.00     0.00   0.00   0.00
     4   1     0.23   0.09   0.00     0.85   0.34   0.00     0.01   0.00   0.00
     5   6     0.02  -0.03   0.00    -0.02   0.04   0.00     0.00   0.00   0.00
     6   1    -0.22   0.36   0.00     0.19  -0.33   0.00     0.00   0.00   0.00
     7   1     0.81  -0.30   0.00    -0.06   0.02   0.00    -0.01   0.00   0.00
     8   6    -0.07   0.03   0.00     0.01   0.00   0.00     0.00   0.00   0.00
     9   7     0.00   0.00   0.00     0.00   0.00   0.00     0.00  -0.08   0.00

 -------------------
 - Thermochemistry -
 -------------------
 Temperature   298.150 Kelvin.  Pressure   1.00000 Atm.
 Atom     1 has atomic number  7 and mass  14.00307
 Atom     2 has atomic number  1 and mass   1.00783
 Atom     3 has atomic number  6 and mass  12.00000
 Atom     4 has atomic number  1 and mass   1.00783
 Atom     5 has atomic number  6 and mass  12.00000
 Atom     6 has atomic number  1 and mass   1.00783
 Atom     7 has atomic number  1 and mass   1.00783
 Atom     8 has atomic number  6 and mass  12.00000
 Atom     9 has atomic number  7 and mass  14.00307
 Molecular mass:    68.03745 amu.
 Principal axes and moments of inertia in atomic units:
                           1         2         3
     Eigenvalues --   184.48435 192.16082 376.64517
           X            0.48759   0.87307   0.00000
           Y            0.87307  -0.48759   0.00000
           Z            0.00000   0.00000   1.00000
 This molecule is an asymmetric top.
 Rotational symmetry number  1.
 Rotational temperatures (Kelvin)      0.46949     0.45074     0.22996
 Rotational constants (GHZ):           9.78262     9.39183     4.79162
 Zero-point vibrational energy     192381.1 (Joules/Mol)
                                   45.98019 (Kcal/Mol)
 Warning -- explicit consideration of   1 degrees of freedom as
           vibrations may cause significant error
 Vibrational temperatures:    724.64   922.50   986.74  1048.79  1186.59
          (Kelvin)           1227.09  1328.02  1380.94  1604.76  1640.92
                             1713.41  1721.75  1913.59  2052.58  2189.28
                             2273.06  2346.61  4829.97  4833.19  4873.69
                             5478.09
 
 Zero-point correction=                           0.073274 (Hartree/Particle)
 Thermal correction to Energy=                    0.077022
 Thermal correction to Enthalpy=                  0.077966
 Thermal correction to Gibbs Free Energy=         0.047006
 Sum of electronic and zero-point Energies=           -225.494870
 Sum of electronic and thermal Energies=              -225.491122
 Sum of electronic and thermal Enthalpies=            -225.490178
 Sum of electronic and thermal Free Energies=         -225.521138
 
                     E (Thermal)             CV                S
                      KCal/Mol        Cal/Mol-Kelvin    Cal/Mol-Kelvin
 Total                   48.332             13.188             65.161
 Electronic               0.000              0.000              0.000
 Translational            0.889              2.981             38.570
 Rotational               0.889              2.981             24.105
 Vibrational             46.554              7.226              2.486
 Vibration     1          0.859              1.242              0.649
                       Q            Log10(Q)             Ln(Q)
 Total Bot       0.239282D-21        -21.621090        -49.784399
 Total V=0       0.120943D+13         12.082582         27.821174
 Vib (Bot)       0.262245D-33        -33.581292        -77.323782
 Vib (Bot)    1  0.325263D+00         -0.487766         -1.123122
 Vib (V=0)       0.132550D+01          0.122380          0.281791
 Vib (V=0)    1  0.109649D+01          0.040003          0.092111
 Electronic      0.100000D+01          0.000000          0.000000
 Translational   0.220586D+08          7.343577         16.909211
 Rotational      0.413642D+05          4.616625         10.630171
 ***** Axes restored to original set *****
 -------------------------------------------------------------------
 Center     Atomic                   Forces (Hartrees/Bohr)
 Number     Number              X              Y              Z
 -------------------------------------------------------------------
      1        7           0.000057542   -0.000025328    0.000000000
      2        1          -0.000006322    0.000024988    0.000000000
      3        6           0.000285710    0.000184436    0.000000000
      4        1           0.000067873    0.000008752    0.000000000
      5        6          -0.000221487   -0.000178131    0.000000000
      6        1           0.000050225   -0.000013441    0.000000000
      7        1          -0.000100381   -0.000013073    0.000000000
      8        6          -0.000048126    0.000121710    0.000000000
      9        7          -0.000085033   -0.000109913    0.000000000
 -------------------------------------------------------------------
 Cartesian Forces:  Max     0.000285710 RMS     0.000097207

 GradGradGradGradGradGradGradGradGradGradGradGradGradGradGradGradGradGrad
 Berny optimization.
 Internal  Forces:  Max     0.000216972 RMS     0.000060523
 Search for a local minimum.
 Step number   1 out of a maximum of    2
 All quantities printed in internal units (Hartrees-Bohrs-Radians)
 Second derivative matrix not updated -- analytic derivatives used.
 ITU=  0
     Eigenvalues ---    0.00482   0.01049   0.02049   0.02781   0.05769
     Eigenvalues ---    0.06149   0.10446   0.11128   0.11657   0.12654
     Eigenvalues ---    0.24089   0.26242   0.37016   0.39560   0.39866
     Eigenvalues ---    0.40176   0.43739   0.46942   0.51184   0.51751
     Eigenvalues ---    0.61217
 Angle between quadratic step and forces=  28.90 degrees.
 Linear search not attempted -- first point.
 Iteration  1 RMS(Cart)=  0.00020198 RMS(Int)=  0.00000003
 Iteration  2 RMS(Cart)=  0.00000004 RMS(Int)=  0.00000001
 ClnCor:  largest displacement from symmetrization is 6.46D-13 for atom     8.
 Variable       Old X    -DE/DX   Delta X   Delta X   Delta X     New X
                                 (Linear)    (Quad)   (Total)
    R1        2.60943  -0.00001   0.00000  -0.00025  -0.00025   2.60919
    R2        2.48213   0.00006   0.00000   0.00018   0.00018   2.48231
    R3        1.89304   0.00003   0.00000   0.00007   0.00007   1.89311
    R4        2.02796   0.00007   0.00000   0.00014   0.00014   2.02810
    R5        2.58779   0.00022   0.00000   0.00052   0.00052   2.58831
    R6        2.60312   0.00014   0.00000   0.00027   0.00027   2.60340
    R7        2.03077   0.00004   0.00000   0.00011   0.00011   2.03088
    R8        2.03209   0.00009   0.00000   0.00020   0.00020   2.03229
    R9        2.57744   0.00004   0.00000  -0.00005  -0.00005   2.57739
    A1        1.83082   0.00006   0.00000   0.00013   0.00013   1.83095
    A2        2.31366   0.00004   0.00000   0.00017   0.00017   2.31382
    A3        2.13541   0.00008   0.00000   0.00029   0.00029   2.13570
    A4        1.83412  -0.00012   0.00000  -0.00046  -0.00046   1.83367
    A5        1.93475   0.00003   0.00000   0.00017   0.00017   1.93492
    A6        2.11724   0.00002   0.00000   0.00027   0.00027   2.11751
    A7        2.23120  -0.00005   0.00000  -0.00044  -0.00044   2.23076
    A8        2.19544  -0.00002   0.00000  -0.00027  -0.00027   2.19517
    A9        1.95476  -0.00005   0.00000  -0.00021  -0.00021   1.95455
   A10        2.13298   0.00008   0.00000   0.00049   0.00049   2.13347
   A11        2.20709  -0.00004   0.00000  -0.00013  -0.00013   2.20696
   A12        2.20577  -0.00005   0.00000  -0.00023  -0.00023   2.20554
   A13        1.87033   0.00009   0.00000   0.00036   0.00036   1.87069
    D1        0.00000   0.00000   0.00000   0.00000   0.00000   0.00000
    D2        3.14159   0.00000   0.00000   0.00000   0.00000   3.14159
    D3        3.14159   0.00000   0.00000   0.00000   0.00000   3.14159
    D4        0.00000   0.00000   0.00000   0.00000   0.00000   0.00000
    D5        3.14159   0.00000   0.00000   0.00000   0.00000   3.14159
    D6        0.00000   0.00000   0.00000   0.00000   0.00000   0.00000
    D7        0.00000   0.00000   0.00000   0.00000   0.00000   0.00000
    D8        3.14159   0.00000   0.00000   0.00000   0.00000   3.14159
    D9        0.00000   0.00000   0.00000   0.00000   0.00000   0.00000
   D10        3.14159   0.00000   0.00000   0.00000   0.00000   3.14159
   D11        3.14159   0.00000   0.00000   0.00000   0.00000   3.14159
   D12        0.00000   0.00000   0.00000   0.00000   0.00000   0.00000
   D13        3.14159   0.00000   0.00000   0.00000   0.00000   3.14159
   D14        0.00000   0.00000   0.00000   0.00000   0.00000   0.00000
   D15        0.00000   0.00000   0.00000   0.00000   0.00000   0.00000
   D16        3.14159   0.00000   0.00000   0.00000   0.00000   3.14159
         Item               Value     Threshold  Converged?
 Maximum Force            0.000217     0.000450     YES
 RMS     Force            0.000061     0.000300     YES
 Maximum Displacement     0.000723     0.001800     YES
 RMS     Displacement     0.000202     0.001200     YES
 Predicted change in Energy=-2.137284D-07
 Optimization completed.
    -- Stationary point found.
                           ----------------------------
                           !   Optimized Parameters   !
                           ! (Angstroms and Degrees)  !
 --------------------------                            --------------------------
 ! Name  Definition              Value          Derivative Info.                !
 --------------------------------------------------------------------------------
 ! R1    R(1,5)                  1.3809         -DE/DX =    0.0                 !
 ! R2    R(1,8)                  1.3135         -DE/DX =    0.0001              !
 ! R3    R(2,9)                  1.0018         -DE/DX =    0.0                 !
 ! R4    R(3,4)                  1.0732         -DE/DX =    0.0001              !
 ! R5    R(3,5)                  1.3694         -DE/DX =    0.0002              !
 ! R6    R(3,9)                  1.3775         -DE/DX =    0.0001              !
 ! R7    R(5,6)                  1.0746         -DE/DX =    0.0                 !
 ! R8    R(7,8)                  1.0753         -DE/DX =    0.0001              !
 ! R9    R(8,9)                  1.3639         -DE/DX =    0.0                 !
 ! A1    A(5,1,8)              104.8982         -DE/DX =    0.0001              !
 ! A2    A(4,3,5)              132.5627         -DE/DX =    0.0                 !
 ! A3    A(4,3,9)              122.3499         -DE/DX =    0.0001              !
 ! A4    A(5,3,9)              105.0875         -DE/DX =   -0.0001              !
 ! A5    A(1,5,3)              110.8528         -DE/DX =    0.0                 !
 ! A6    A(1,5,6)              121.3088         -DE/DX =    0.0                 !
 ! A7    A(3,5,6)              127.8384         -DE/DX =    0.0                 !
 ! A8    A(1,8,7)              125.7895         -DE/DX =    0.0                 !
 ! A9    A(1,8,9)              111.9997         -DE/DX =   -0.0001              !
 ! A10   A(7,8,9)              122.2108         -DE/DX =    0.0001              !
 ! A11   A(2,9,3)              126.4567         -DE/DX =    0.0                 !
 ! A12   A(2,9,8)              126.3815         -DE/DX =   -0.0001              !
 ! A13   A(3,9,8)              107.1618         -DE/DX =    0.0001              !
 ! D1    D(8,1,5,3)              0.0            -DE/DX =    0.0                 !
 ! D2    D(8,1,5,6)            180.0            -DE/DX =    0.0                 !
 ! D3    D(5,1,8,7)            180.0            -DE/DX =    0.0                 !
 ! D4    D(5,1,8,9)              0.0            -DE/DX =    0.0                 !
 ! D5    D(4,3,5,1)            180.0            -DE/DX =    0.0                 !
 ! D6    D(4,3,5,6)              0.0            -DE/DX =    0.0                 !
 ! D7    D(9,3,5,1)              0.0            -DE/DX =    0.0                 !
 ! D8    D(9,3,5,6)            180.0            -DE/DX =    0.0                 !
 ! D9    D(4,3,9,2)              0.0            -DE/DX =    0.0                 !
 ! D10   D(4,3,9,8)            180.0            -DE/DX =    0.0                 !
 ! D11   D(5,3,9,2)            180.0            -DE/DX =    0.0                 !
 ! D12   D(5,3,9,8)              0.0            -DE/DX =    0.0                 !
 ! D13   D(1,8,9,2)            180.0            -DE/DX =    0.0                 !
 ! D14   D(1,8,9,3)              0.0            -DE/DX =    0.0                 !
 ! D15   D(7,8,9,2)              0.0            -DE/DX =    0.0                 !
 ! D16   D(7,8,9,3)            180.0            -DE/DX =    0.0                 !
 --------------------------------------------------------------------------------
 GradGradGradGradGradGradGradGradGradGradGradGradGradGradGradGradGradGrad

 1\1\GINC-N373\Freq\RMP3-FC\6-31G(d,p)\C3H4N2\RDJ3\06-Sep-2012\0\\#N Ge
 om=AllCheck Guess=TCheck SCRF=Check GenChk RMP3(FC)/6-31G(d,p) Freq\\1
 himidaz 1H-Imidazole casno=288324 state=1 config=1 method=62 basis=4\\
 0,1\N,-0.7491871137,-0.9874513745,0.\H,-0.0076798035,2.1030867157,0.\C
 ,1.1180906077,0.2937629398,0.\H,2.1148000096,0.6915364706,0.\C,0.63166
 42126,-0.9863328437,0.\H,1.1908436249,-1.9040287349,0.\H,-2.092865875,
 0.6642541263,0.\C,-1.0879153664,0.2816076147,0.\N,0.0021607039,1.10137
 9086,0.\\Version=EM64L-G09RevB.01\State=1-A'\HF=-224.8226116\MP2=-225.
 5522977\MP3=-225.568144\RMSD=1.453e-09\RMSF=9.721e-05\ZeroPoint=0.0732
 741\Thermal=0.0770218\Dipole=0.4689285,1.4304039,0.\DipoleDeriv=-0.384
 0453,-0.0043709,0.,-0.0642373,-0.5689671,0.,0.,0.,-0.3260543,0.189964,
 0.0039859,0.,0.002774,0.2356172,0.,0.,0.,0.3515938,0.0053334,-0.178928
 9,0.,-0.0146264,0.2502278,0.,0.,0.,-0.1043827,-0.0028551,-0.0260539,0.
 ,-0.0475862,0.0606939,0.,0.,0.,0.1729072,0.1368161,-0.0957797,0.,-0.09
 21305,0.1487715,0.,0.,0.,-0.1066493,0.0200513,0.0642422,0.,0.0715519,-
 0.0086942,0.,0.,0.,0.1395756,-0.0101934,0.0432274,0.,0.0489953,0.04173
 3,0.,0.,0.,0.1436814,0.2356307,0.2017005,0.,0.1451603,0.540712,0.,0.,0
 .,0.0367096,-0.1912888,-0.0079778,0.,-0.0493899,-0.7001967,0.,0.,0.,-0
 .3075224\Quadrupole=1.0126893,1.6750129,-2.6877022,-2.4445353,0.,0.\Qu
 adrupoleDeriv=0.220483,-0.1225861,-0.0978969,-0.0506807,0.,0.,0.008602
 5,-0.0947138,0.0861113,0.1341184,0.,0.,0.,0.,0.,0.,0.8057945,0.9579674
 ,-0.0284743,0.0145993,0.013875,1.347064,0.,0.,-0.7402503,1.4726802,-0.
 73243,0.0368951,0.,0.,0.,0.,0.,0.,-0.0290453,1.5700027,2.1863493,-1.57
 34776,-0.6128717,0.6838848,0.,0.,-0.0164552,0.4139979,-0.3975428,0.552
 0404,0.,0.,0.,0.,0.,0.,-0.6068425,-0.0535277,0.5079238,-0.2351803,-0.2
 727436,-0.0401466,0.,0.,-0.3517741,0.4076084,-0.0558343,0.5637415,0.,0
 .,0.,0.,0.,0.,0.8300053,0.2653819,0.2684466,0.1115628,-0.3800094,-1.35
 99566,0.,0.,0.8243371,-1.5444812,0.7201442,1.3794559,0.,0.,0.,0.,0.,0.
 ,-0.4270723,0.3174553,0.577645,-0.4868788,-0.0907662,-0.2925906,0.,0.,
 0.3361557,-0.5083928,0.1722371,-0.1015864,0.,0.,0.,0.,0.,0.,0.4231357,
 -0.649829,-0.4591862,0.1919666,0.2672195,-0.1308912,0.,0.,-0.3668581,0
 .4114373,-0.0445792,-0.5441849,0.,0.,0.,0.,0.,0.,-0.7111981,0.2655325,
 -2.9278715,2.0018202,0.9260513,0.8501943,0.,0.,-0.1805208,0.6768762,-0
 .4963554,-1.4988158,0.,0.,0.,0.,0.,0.,0.2190526,-0.0594692,0.2801163,-
 0.2146376,-0.0654787,0.4231336,0.,0.,-0.4672793,0.6726884,-0.2054091,-
 0.0520427,0.,0.,0.,0.,0.,0.,-0.0346581,-1.1827787\PG=CS [SG(C3H4N2)]\N
 Imag=0\\0.49147103,-0.03538238,0.64103729,0.,0.,0.10307259,-0.00587896
 ,-0.00789753,0.,0.06214848,-0.00344969,-0.00005773,0.,-0.00458170,0.51
 505679,0.,0.,0.00725520,0.,0.,0.01128205,-0.05371180,-0.00764539,0.,0.
 01351349,-0.00669630,0.,0.86946401,-0.08206803,0.00598577,0.,0.0260030
 5,-0.00670922,0.,0.14268758,0.72583608,0.,0.,0.01383793,0.,0.,-0.00882
 692,0.,0.,0.09870810,0.00102652,-0.00053060,0.,0.00005696,0.00005367,0
 .,-0.33772768,-0.10906635,0.,0.35453383,-0.00543233,-0.00475014,0.,-0.
 00095916,0.00046398,0.,-0.12044813,-0.11288257,0.,0.11835902,0.1010917
 6,0.,0.,0.00787314,0.,0.,-0.00103089,0.,0.,-0.01872096,0.,0.,0.0182563
 0,-0.28405246,-0.00417097,0.,-0.00773553,0.00231772,0.,-0.13871111,-0.
 09046972,0.,0.00021980,-0.02257562,0.,0.63500954,-0.01355143,-0.107529
 92,0.,0.00552604,-0.00013883,0.,-0.10533941,-0.39583731,0.,0.00160236,
 0.00804100,0.,-0.10654470,0.91283589,0.,0.,-0.06679152,0.,0.,0.0027565
 7,0.,0.,-0.05526248,0.,0.,-0.00359522,0.,0.,0.12389839,-0.01368976,0.0
 2902901,0.,0.00110656,-0.00023303,0.,0.01216629,-0.01028613,0.,-0.0001
 6334,0.00065971,0.,-0.14017763,0.13420924,0.,0.14883507,-0.00135139,0.
 00785820,0.,0.00112624,-0.00007519,0.,0.01742684,-0.01005583,0.,-0.000
 46862,-0.00023669,0.,0.13785151,-0.30080527,0.,-0.14997195,0.30608521,
 0.,0.,-0.00614903,0.,0.,0.00217962,0.,0.,-0.00260675,0.,0.,-0.00187591
 ,0.,0.,-0.02718872,0.,0.,0.02321934,-0.00059084,0.00381303,0.,-0.00042
 418,-0.00016838,0.,-0.00032558,-0.00486384,0.,-0.00044925,0.00078480,0
 .,0.00239320,0.00101849,0.,0.00001736,-0.00004820,0.,0.35500017,0.0314
 7094,-0.00606920,0.,0.00079657,0.00031140,0.,-0.00255612,-0.00474520,0
 .,-0.00077083,0.00114874,0.,0.00156547,-0.00592950,0.,0.00170083,0.000
 39289,0.,-0.11024104,0.10307404,0.,0.,-0.00594102,0.,0.,-0.00120734,0.
 ,0.,0.00303807,0.,0.,0.00193539,0.,0.,0.00752825,0.,0.,0.00116175,0.,0
 .,0.02178724,-0.12365747,0.06589518,0.,0.01725217,0.00799395,0.,-0.097
 52889,0.02350398,0.,-0.00120695,0.00343819,0.,-0.06324028,0.03208359,0
 .,-0.00767645,-0.00208311,0.,-0.33771056,0.10303977,0.,0.89462274,0.09
 285681,-0.42998753,0.,-0.02417414,-0.00894535,0.,-0.02280354,-0.012409
 58,0.,0.00388165,-0.00693712,0.,0.09557759,-0.02311810,0.,-0.00073876,
 0.00121864,0.,0.09820997,-0.10124146,0.,-0.12707094,0.76235108,0.,0.,-
 0.07550736,0.,0.,-0.00986203,0.,0.,0.01484984,0.,0.,0.00299687,0.,0.,0
 .00979260,0.,0.,0.00533891,0.,0.,-0.02533719,0.,0.,0.13328170,-0.01090
 047,-0.04312411,0.,-0.08004143,0.00476508,0.,-0.26715069,0.10455450,0.
 ,-0.01629509,0.02617090,0.,-0.00370254,0.05100135,0.,-0.00042309,-0.00
 247608,0.,-0.01791884,-0.02500055,0.,-0.28086213,-0.11573459,0.,0.6773
 1639,0.01689772,-0.10648346,0.,0.00416033,-0.49990715,0.,0.10540114,-0
 .18919162,0.,-0.01306081,0.01406039,0.,-0.01357522,-0.08750153,0.,-0.0
 0435986,-0.00438990,0.,0.01149837,0.01305806,0.,-0.10677435,-0.1809395
 2,0.,-0.00018717,1.04130366,0.,0.,0.02233593,0.,0.,-0.00254510,0.,0.,-
 0.04501338,0.,0.,-0.00583605,0.,0.,0.00886593,0.,0.,0.00591862,0.,0.,-
 0.00296533,0.,0.,-0.05554750,0.,0.,0.07478647\\-0.00005754,0.00002533,
 0.,0.00000632,-0.00002499,0.,-0.00028571,-0.00018444,0.,-0.00006787,-0
 .00000875,0.,0.00022149,0.00017813,0.,-0.00005022,0.00001344,0.,0.0001
 0038,0.00001307,0.,0.00004813,-0.00012171,0.,0.00008503,0.00010991,0.\
 \\@


 A great many people think they are thinking when they
 are merely rearranging their prejudices.
                               -- William James
 Job cpu time:  0 days  4 hours 48 minutes 18.0 seconds.
 File lengths (MBytes):  RWF=    842 Int=      0 D2E=      0 Chk=     40 Scr=      1
 Normal termination of Gaussian 09 at Thu Sep  6 14:22:54 2012.
