 Entering Gaussian System, Link 0=g98
 Initial command:
 /usr/local/apps/g98/g98/l1.exe /wrk/rdj3/Gau-11650.inp -scrdir=/wrk/rdj3/
 Entering Link 1 = /usr/local/apps/g98/g98/l1.exe PID=     10884.
  
 Copyright (c) 1988,1990,1992,1993,1995,1998 Gaussian, Inc.
                  All Rights Reserved.
  
 This is part of the Gaussian(R) 98 program.  It is based on
 the Gaussian 94(TM) system (copyright 1995 Gaussian, Inc.),
 the Gaussian 92(TM) system (copyright 1992 Gaussian, Inc.),
 the Gaussian 90(TM) system (copyright 1990 Gaussian, Inc.),
 the Gaussian 88(TM) system (copyright 1988 Gaussian, Inc.),
 the Gaussian 86(TM) system (copyright 1986 Carnegie Mellon
 University), and the Gaussian 82(TM) system (copyright 1983
 Carnegie Mellon University). Gaussian is a federally registered
 trademark of Gaussian, Inc.
  
 This software contains proprietary and confidential information,
 including trade secrets, belonging to Gaussian, Inc.
  
 This software is provided under written license and may be
 used, copied, transmitted, or stored only in accord with that
 written license.
  
 The following legend is applicable only to US Government
 contracts under DFARS:
  
                    RESTRICTED RIGHTS LEGEND
  
 Use, duplication or disclosure by the US Government is subject
 to restrictions as set forth in subparagraph (c)(1)(ii) of the
 Rights in Technical Data and Computer Software clause at DFARS
 252.227-7013.
  
 Gaussian, Inc.
 Carnegie Office Park, Building 6, Pittsburgh, PA 15106 USA
  
 The following legend is applicable only to US Government
 contracts under FAR:
  
                    RESTRICTED RIGHTS LEGEND
  
 Use, reproduction and disclosure by the US Government is subject
 to restrictions as set forth in subparagraph (c) of the
 Commercial Computer Software - Restricted Rights clause at FAR
 52.227-19.
  
 Gaussian, Inc.
 Carnegie Office Park, Building 6, Pittsburgh, PA 15106 USA
  
  
 ---------------------------------------------------------------
 Warning -- This program may not be used in any manner that
 competes with the business of Gaussian, Inc. or will provide
 assistance to any competitor of Gaussian, Inc.  The licensee
 of this program is prohibited from giving any competitor of
 Gaussian, Inc. access to this program.  By using this program,
 the user acknowledges that Gaussian, Inc. is engaged in the
 business of creating and licensing software in the field of
 computational chemistry and represents and warrants to the
 licensee that it is not a competitor of Gaussian, Inc. and that
 it will not use this program in any manner prohibited above.
 ---------------------------------------------------------------
  

 Cite this work as:
 Gaussian 98, Revision A.4,
 M. J. Frisch, G. W. Trucks, H. B. Schlegel, G. E. Scuseria, 
 M. A. Robb, J. R. Cheeseman, V. G. Zakrzewski, J. A. Montgomery, Jr., 
 R. E. Stratmann, J. C. Burant, S. Dapprich, J. M. Millam, 
 A. D. Daniels, K. N. Kudin, M. C. Strain, O. Farkas, J. Tomasi, 
 V. Barone, M. Cossi, R. Cammi, B. Mennucci, C. Pomelli, C. Adamo, 
 S. Clifford, J. Ochterski, G. A. Petersson, P. Y. Ayala, Q. Cui, 
 K. Morokuma, D. K. Malick, A. D. Rabuck, K. Raghavachari, 
 J. B. Foresman, J. Cioslowski, J. V. Ortiz, B. B. Stefanov, G. Liu, 
 A. Liashenko, P. Piskorz, I. Komaromi, R. Gomperts, R. L. Martin, 
 D. J. Fox, T. Keith, M. A. Al-Laham, C. Y. Peng, A. Nanayakkara, 
 C. Gonzalez, M. Challacombe, P. M. W. Gill, B. Johnson, W. Chen, 
 M. W. Wong, J. L. Andres, C. Gonzalez, M. Head-Gordon, 
 E. S. Replogle, and J. A. Pople, 
 Gaussian, Inc., Pittsburgh PA, 1998.

 **********************************************
 Gaussian 98:  IBM-RS6000-G98RevA.4 11-Sep-1998
                   1-Feb-1999 
 **********************************************
 %mem=24000000
 --------------------
 #CCD/6-31G* OPT FREQ
 --------------------
 1/18=20,38=1/1,3;
 2/9=110,17=6,18=5/2;
 3/5=1,6=6,7=1,11=9,25=1,30=1/1,2,3;
 4//1;
 5/5=2,38=4/2;
 8/6=7,9=120000,10=1,23=2/1,4;
 9/5=6,15=1/13;
 11/28=-6,29=200,42=1/11;
 10/5=5/2;
 6/7=2,8=2,9=2,10=2/1;
 7/12=7/1,2,3,16;
 1/18=20/3(1);
 99//99;
 2/9=110/2;
 3/5=1,6=6,7=1,11=9,25=1,30=1/1,2,3;
 4/5=5,16=2/1;
 5/5=2,38=4/2;
 8/6=7,9=120000,10=1,23=2/1,4;
 9/5=6,15=1/13;
 11/28=-6,29=200,42=1/11;
 10/5=5/2;
 7/12=7/1,2,3,16;
 1/18=20/3(-9);
 2/9=110/2;
 6/7=2,8=2,9=2,10=2/1;
 99//99;
 --------------------------------
 1H imidazole C3H4N2 casno=288324
 --------------------------------
 Symbolic Z-matrix:
 Charge =  0 Multiplicity = 1
 N                     0.4985    0.        1.11074 
 H                     0.49364   0.       -2.0291 
 C                    -1.01355   0.       -0.53629 
 H                    -1.88968   0.       -1.14782 
 C                    -0.83766   0.        0.80248 
 H                    -1.58608   0.        1.5671 
 H                     2.17242   0.       -0.15962 
 C                     1.11015   0.       -0.0239 
 N                     0.25238   0.       -1.06564 

 GradGradGradGradGradGradGradGradGradGradGradGradGradGradGradGradGradGrad
 Berny optimization.
 Initialization pass.
                         ----------------------------
                         !    Initial Parameters    !
                         ! (Angstroms and Degrees)  !
 ------------------------                            -------------------------
 ! Name  Definition              Value          Derivative Info.             !
 -----------------------------------------------------------------------------
 ! R1    R(1,5)                  1.3713         estimate D2E/DX2             !
 ! R2    R(1,8)                  1.289          estimate D2E/DX2             !
 ! R3    R(2,9)                  0.9932         estimate D2E/DX2             !
 ! R4    R(3,4)                  1.0684         estimate D2E/DX2             !
 ! R5    R(3,5)                  1.3503         estimate D2E/DX2             !
 ! R6    R(3,9)                  1.3721         estimate D2E/DX2             !
 ! R7    R(5,6)                  1.0699         estimate D2E/DX2             !
 ! R8    R(7,8)                  1.0709         estimate D2E/DX2             !
 ! R9    R(8,9)                  1.3494         estimate D2E/DX2             !
 ! A1    A(5,1,8)              105.3363         estimate D2E/DX2             !
 ! A2    A(4,3,5)              132.3996         estimate D2E/DX2             !
 ! A3    A(4,3,9)              122.3928         estimate D2E/DX2             !
 ! A4    A(5,3,9)              105.2076         estimate D2E/DX2             !
 ! A5    A(1,5,3)              110.476          estimate D2E/DX2             !
 ! A6    A(1,5,6)              121.3948         estimate D2E/DX2             !
 ! A7    A(3,5,6)              128.1292         estimate D2E/DX2             !
 ! A8    A(1,8,7)              125.6084         estimate D2E/DX2             !
 ! A9    A(1,8,9)              112.2043         estimate D2E/DX2             !
 ! A10   A(7,8,9)              122.1873         estimate D2E/DX2             !
 ! A11   A(2,9,3)              126.7509         estimate D2E/DX2             !
 ! A12   A(2,9,8)              126.4734         estimate D2E/DX2             !
 ! A13   A(3,9,8)              106.7757         estimate D2E/DX2             !
 ! D1    D(8,1,5,3)              0.             estimate D2E/DX2             !
 ! D2    D(8,1,5,6)            180.             estimate D2E/DX2             !
 ! D3    D(5,1,8,7)            180.             estimate D2E/DX2             !
 ! D4    D(5,1,8,9)              0.             estimate D2E/DX2             !
 ! D5    D(4,3,5,1)            180.             estimate D2E/DX2             !
 ! D6    D(4,3,5,6)              0.             estimate D2E/DX2             !
 ! D7    D(9,3,5,1)              0.             estimate D2E/DX2             !
 ! D8    D(9,3,5,6)            180.             estimate D2E/DX2             !
 ! D9    D(4,3,9,2)              0.             estimate D2E/DX2             !
 ! D10   D(4,3,9,8)            180.             estimate D2E/DX2             !
 ! D11   D(5,3,9,2)            180.             estimate D2E/DX2             !
 ! D12   D(5,3,9,8)              0.             estimate D2E/DX2             !
 ! D13   D(1,8,9,2)            180.             estimate D2E/DX2             !
 ! D14   D(1,8,9,3)              0.             estimate D2E/DX2             !
 ! D15   D(7,8,9,2)              0.             estimate D2E/DX2             !
 ! D16   D(7,8,9,3)            180.             estimate D2E/DX2             !
 -----------------------------------------------------------------------------
 Trust Radius=3.00D-01 FncErr=1.00D-07 GrdErr=1.00D-07
 Number of steps in this run=  48 maximum allowed number of steps= 100.
 GradGradGradGradGradGradGradGradGradGradGradGradGradGradGradGradGradGrad

                          Input orientation:                          
 ---------------------------------------------------------------------
 Center     Atomic     Atomic              Coordinates (Angstroms)
 Number     Number      Type              X           Y           Z
 ---------------------------------------------------------------------
    1          7             0        0.498501    0.000000    1.110739
    2          1             0        0.493640    0.000000   -2.029103
    3          6             0       -1.013554    0.000000   -0.536287
    4          1             0       -1.889682    0.000000   -1.147820
    5          6             0       -0.837664    0.000000    0.802476
    6          1             0       -1.586080    0.000000    1.567105
    7          1             0        2.172423    0.000000   -0.159619
    8          6             0        1.110146    0.000000   -0.023900
    9          7             0        0.252376    0.000000   -1.065639
 ---------------------------------------------------------------------
                    Distance matrix (angstroms):
                    1          2          3          4          5
     1  N    0.000000
     2  H    3.139846   0.000000
     3  C    2.235845   2.121352   0.000000
     4  H    3.287021   2.541040   1.068444   0.000000
     5  C    1.371264   3.128931   1.350267   2.215941   0.000000
     6  H    2.133951   4.154268   2.179918   2.731847   1.069945
     7  H    2.101386   2.512625   3.208166   4.180579   3.160103
     8  C    1.288998   2.097837   2.184638   3.203461   2.115860
     9  N    2.190251   0.993213   1.372149   2.143634   2.162878
                    6          7          8          9
     6  H    0.000000
     7  H    4.136172   0.000000
     8  C    3.130643   1.070912   0.000000
     9  N    3.211115   2.123076   1.349441   0.000000
 Stoichiometry    C3H4N2
 Framework group  CS[SG(C3H4N2)]
 Deg. of freedom   15
 Full point group                 CS      NOp   2
 Largest Abelian subgroup         CS      NOp   2
 Largest concise Abelian subgroup C1      NOp   1
                         Standard orientation:                         
 ---------------------------------------------------------------------
 Center     Atomic     Atomic              Coordinates (Angstroms)
 Number     Number      Type              X           Y           Z
 ---------------------------------------------------------------------
    1          7             0       -0.741059   -0.965959    0.000000
    2          1             0       -0.012734    2.088247    0.000000
    3          6             0        1.109862    0.288272    0.000000
    4          1             0        2.103339    0.681436    0.000000
    5          6             0        0.630182   -0.973920    0.000000
    6          1             0        1.182239   -1.890444    0.000000
    7          1             0       -2.077162    0.655969    0.000000
    8          6             0       -1.074756    0.279096    0.000000
    9          7             0        0.000000    1.095117    0.000000
 ---------------------------------------------------------------------
 Rotational constants (GHZ):      9.9280220      9.6396700      4.8908607
 Isotopes: N-14,H-1,C-12,H-1,C-12,H-1,H-1,C-12,N-14
 Standard basis: 6-31G(d) (6D, 7F)
 There are    63 symmetry adapted basis functions of A'  symmetry.
 There are    20 symmetry adapted basis functions of A"  symmetry.
 Crude estimate of integral set expansion from redundant integrals=1.000.
 Integral buffers will be    262144 words long.
 Raffenetti 1 integral format.
 Two-electron integral symmetry is turned on.
    83 basis functions      156 primitive gaussians
    18 alpha electrons       18 beta electrons
       nuclear repulsion energy       164.9792003308 Hartrees.
 One-electron integrals computed using PRISM.
 NBasis=    83 RedAO= T  NBF=    63    20
 NBsUse=    83 1.00D-04 NBFU=    63    20
 Projected INDO Guess.
 Initial guess orbital symmetries:
       Occupied  (A') (A') (A') (A') (A') (A') (A') (A') (A') (A')
                 (A') (A") (A') (A') (A') (A') (A") (A")
       Virtual   (A") (A') (A') (A") (A') (A') (A') (A') (A') (A')
                 (A') (A') (A') (A') (A') (A') (A') (A') (A') (A')
                 (A') (A') (A') (A') (A') (A') (A') (A') (A') (A')
                 (A') (A') (A') (A') (A') (A') (A') (A') (A') (A')
                 (A') (A') (A') (A') (A') (A') (A') (A') (A') (A')
                 (A") (A") (A") (A") (A") (A") (A") (A") (A") (A")
                 (A") (A") (A") (A") (A")
 Requested convergence on RMS density matrix=1.00D-08 within  64 cycles.
 Requested convergence on MAX density matrix=1.00D-06.
 Keep R1 integrals in memory in canonical form, NReq=     6535303.
 SCF Done:  E(RHF) =  -224.814429221     A.U. after   15 cycles
             Convg  =    0.3626D-08             -V/T =  2.0013
             S**2   =   0.0000
 Range of M.O.s used for correlation:     6    83
 NBasis=    83 NAE=    18 NBE=    18 NFC=     5 NFV=     0
 NROrb=     78 NOA=    13 NOB=    13 NVA=    65 NVB=    65
 Estimate disk for full transformation    52918570 words.
 Spin components of T(2) and E(2):
     alpha-alpha T2 =       0.3249335598D-01 E2=     -0.9503403034D-01
     alpha-beta  T2 =       0.1709187774D+00 E2=     -0.5116582777D+00
     beta-beta   T2 =       0.3249335598D-01 E2=     -0.9503403034D-01
 ANorm=    0.1111712863D+01
 E2=       -0.7017263384D+00 EUMP2=       -0.22551615555984D+03
 Iterations=  50 Convergence= 0.100D-07
 Iteration Nr.   1
 **********************
 MP4(R+Q)=  0.16363218D-01
 E3=       -0.14967184D-01        EUMP3=      -0.22553112274D+03
 E4(DQ)=   -0.61128127D-03        UMP4(DQ)=   -0.22553173402D+03
 DE(CORR)= -0.70033030D+00        E(CORR)=    -0.22551475953D+03
 NORM(A)=   0.11104370D+01
 Iteration Nr.   2
 **********************
 DE(CORR)= -0.71505425D+00        E(CORR)=    -0.22552948347D+03
 NORM(A)=   0.11179845D+01
 Iteration Nr.   3
 **********************
 DE(CORR)= -0.71722182D+00        E(CORR)=    -0.22553165104D+03
 NORM(A)=   0.11188546D+01
 Iteration Nr.   4
 **********************
 DE(CORR)= -0.71816453D+00        E(CORR)=    -0.22553259376D+03
 NORM(A)=   0.11191640D+01
 Iteration Nr.   5
 **********************
 DE(CORR)= -0.71824040D+00        E(CORR)=    -0.22553266962D+03
 NORM(A)=   0.11192115D+01
 Iteration Nr.   6
 **********************
 DE(CORR)= -0.71824716D+00        E(CORR)=    -0.22553267638D+03
 NORM(A)=   0.11192107D+01
 Iteration Nr.   7
 **********************
 DE(CORR)= -0.71824733D+00        E(CORR)=    -0.22553267656D+03
 NORM(A)=   0.11192139D+01
 Iteration Nr.   8
 **********************
 DE(CORR)= -0.71824651D+00        E(CORR)=    -0.22553267573D+03
 NORM(A)=   0.11192144D+01
 Iteration Nr.   9
 **********************
 DE(CORR)= -0.71824679D+00        E(CORR)=    -0.22553267601D+03
 NORM(A)=   0.11192147D+01
 Iteration Nr.  10
 **********************
 DE(CORR)= -0.71824692D+00        E(CORR)=    -0.22553267614D+03
 NORM(A)=   0.11192148D+01
 Iteration Nr.  11
 **********************
 DE(CORR)= -0.71824700D+00        E(CORR)=    -0.22553267622D+03
 NORM(A)=   0.11192149D+01
 Iteration Nr.  12
 **********************
 DE(CORR)= -0.71824703D+00        E(CORR)=    -0.22553267625D+03
 NORM(A)=   0.11192149D+01
 Iteration Nr.  13
 **********************
 DE(CORR)= -0.71824704D+00        E(CORR)=    -0.22553267626D+03
 NORM(A)=   0.11192149D+01
 Iteration Nr.  14
 **********************
 DE(CORR)= -0.71824704D+00        E(CORR)=    -0.22553267626D+03
 NORM(A)=   0.11192149D+01
 Largest amplitude= 7.75D-02

 Z-AMPLITUDE ITERATIONS

 Iteration Nr.   1
 **********************
 DE(Z)  -0.69824434D+00          E(Z)=    -0.22551267356D+03
 NORM(A)=   0.11192275D+01
 Iteration Nr.   2
 **********************
 DE(Z)  -0.69824443D+00          E(Z)=    -0.22551267365D+03
 NORM(A)=   0.11191928D+01
 Iteration Nr.   3
 **********************
 DE(Z)  -0.69824419D+00          E(Z)=    -0.22551267341D+03
 NORM(A)=   0.11192237D+01
 Iteration Nr.   4
 **********************
 DE(Z)  -0.69824440D+00          E(Z)=    -0.22551267362D+03
 NORM(A)=   0.11192301D+01
 Iteration Nr.   5
 **********************
 DE(Z)  -0.69824445D+00          E(Z)=    -0.22551267367D+03
 NORM(A)=   0.11122159D+01
 Iteration Nr.   6
 **********************
 DE(Z)  -0.69819534D+00          E(Z)=    -0.22551262457D+03
 NORM(A)=   0.11122151D+01
 Iteration Nr.   7
 **********************
 DE(Z)  -0.69819538D+00          E(Z)=    -0.22551262460D+03
 NORM(A)=   0.11122148D+01
 Iteration Nr.   8
 **********************
 DE(Z)  -0.69819533D+00          E(Z)=    -0.22551262456D+03
 NORM(A)=   0.11122148D+01
 Iteration Nr.   9
 **********************
 DE(Z)  -0.69819532D+00          E(Z)=    -0.22551262454D+03
 NORM(A)=   0.11122148D+01
 Iteration Nr.  10
 **********************
 DE(Z)  -0.69819531D+00          E(Z)=    -0.22551262454D+03
 NORM(A)=   0.11122148D+01
 Iteration Nr.  11
 **********************
 DE(Z)  -0.69819531D+00          E(Z)=    -0.22551262453D+03
 NORM(A)=   0.11122148D+01
 Discarding MO integrals.
          Differentiating once with respect to electric field.
                with respect to dipole field.
          Differentiating once with respect to nuclear coordinates.
          Store integrals in memory, NReq=     6518293.
          There are   1 degrees of freedom in the 1st order CPHF.
   1 vectors were produced by pass  0.
 AX will form   1 AO Fock derivatives at one time.
   1 vectors were produced by pass  1.
   1 vectors were produced by pass  2.
   1 vectors were produced by pass  3.
   1 vectors were produced by pass  4.
   1 vectors were produced by pass  5.
   1 vectors were produced by pass  6.
   1 vectors were produced by pass  7.
   1 vectors were produced by pass  8.
   1 vectors were produced by pass  9.
   1 vectors were produced by pass 10.
   1 vectors were produced by pass 11.
   1 vectors were produced by pass 12.
   1 vectors were produced by pass 13.
   1 vectors were produced by pass 14.
 Inv2:  IOpt= 1 Iter= 1 AM= 3.77D-16 Conv= 1.00D-12.
 Inverted reduced A of dimension  15 with in-core refinement.

 **********************************************************************

            Population analysis using the SCF density.

 **********************************************************************

 Orbital Symmetries:
       Occupied  (A') (A') (A') (A') (A') (A') (A') (A') (A') (A')
                 (A') (A') (A') (A") (A') (A') (A") (A")
       Virtual   (A") (A') (A") (A') (A') (A') (A') (A') (A') (A')
                 (A') (A') (A") (A') (A") (A') (A") (A') (A') (A')
                 (A") (A') (A') (A') (A") (A') (A') (A') (A') (A')
                 (A') (A') (A') (A") (A") (A") (A') (A') (A") (A")
                 (A') (A') (A') (A') (A') (A') (A") (A") (A') (A')
                 (A") (A") (A') (A') (A") (A') (A') (A') (A') (A')
                 (A') (A') (A') (A') (A')
  The electronic state is 1-A'.
 Alpha  occ. eigenvalues --  -15.61963 -15.53669 -11.28737 -11.25455 -11.23352
 Alpha  occ. eigenvalues --   -1.34654  -1.16675  -1.00911  -0.82709  -0.79804
 Alpha  occ. eigenvalues --   -0.75973  -0.60845  -0.59945  -0.59747  -0.56695
 Alpha  occ. eigenvalues --   -0.42787  -0.39315  -0.31930
 Alpha virt. eigenvalues --    0.19652   0.22096   0.25074   0.28563   0.30017
 Alpha virt. eigenvalues --    0.32042   0.39877   0.42016   0.49012   0.51783
 Alpha virt. eigenvalues --    0.68646   0.71385   0.76548   0.80600   0.80690
 Alpha virt. eigenvalues --    0.84015   0.87695   0.88804   0.90130   0.95130
 Alpha virt. eigenvalues --    1.01939   1.04928   1.05452   1.10054   1.11643
 Alpha virt. eigenvalues --    1.13378   1.16300   1.18290   1.25599   1.28413
 Alpha virt. eigenvalues --    1.45179   1.50000   1.56251   1.58371   1.63247
 Alpha virt. eigenvalues --    1.66213   1.72282   1.78814   1.85204   1.86484
 Alpha virt. eigenvalues --    2.05206   2.19829   2.34119   2.38439   2.43930
 Alpha virt. eigenvalues --    2.47512   2.53904   2.58927   2.63123   2.64404
 Alpha virt. eigenvalues --    2.67610   2.76309   2.92024   2.96096   2.97037
 Alpha virt. eigenvalues --    3.07636   3.11609   3.36033   3.40698   3.47011
 Alpha virt. eigenvalues --    4.31636   4.44881   4.57152   4.65153   4.80629
          Condensed to atoms (all electrons):
              1          2          3          4          5          6
  1  N    6.721211   0.004001  -0.089018   0.003166   0.453120  -0.032614
  2  H    0.004001   0.305616  -0.016696  -0.000278   0.003750  -0.000060
  3  C   -0.089018  -0.016696   4.905267   0.381840   0.654209  -0.041924
  4  H    0.003166  -0.000278   0.381840   0.444000  -0.016455   0.001006
  5  C    0.453120   0.003750   0.654209  -0.016455   4.778643   0.400110
  6  H   -0.032614  -0.000060  -0.041924   0.001006   0.400110   0.465855
  7  H   -0.030790   0.000480   0.002561  -0.000029   0.005253  -0.000052
  8  C    0.584067  -0.016696  -0.114765   0.003611  -0.130902   0.005938
  9  N   -0.098940   0.320793   0.331660  -0.035706  -0.091764   0.002573
              7          8          9
  1  N   -0.030790   0.584067  -0.098940
  2  H    0.000480  -0.016696   0.320793
  3  C    0.002561  -0.114765   0.331660
  4  H   -0.000029   0.003611  -0.035706
  5  C    0.005253  -0.130902  -0.091764
  6  H   -0.000052   0.005938   0.002573
  7  H    0.454913   0.408004  -0.051203
  8  C    0.408004   4.625479   0.366901
  9  N   -0.051203   0.366901   6.968720
 Total atomic charges:
              1
  1  N   -0.514203
  2  H    0.399091
  3  C   -0.013134
  4  H    0.218846
  5  C   -0.055963
  6  H    0.199168
  7  H    0.210863
  8  C    0.268365
  9  N   -0.713033
 Sum of Mulliken charges=   0.00000
 Atomic charges with hydrogens summed into heavy atoms:
              1
  1  N   -0.514203
  2  H    0.000000
  3  C    0.205712
  4  H    0.000000
  5  C    0.143205
  6  H    0.000000
  7  H    0.000000
  8  C    0.479228
  9  N   -0.313942
 Sum of Mulliken charges=   0.00000
 Electronic spatial extent (au):  <R**2>=   280.0239
 Charge=     0.0000 electrons
 Dipole moment (Debye):
    X=     1.1470    Y=     3.6873    Z=     0.0000  Tot=     3.8616
 Quadrupole moment (Debye-Ang):
   XX=   -26.0205   YY=   -25.4537   ZZ=   -31.7040
   XY=    -3.5450   XZ=     0.0000   YZ=     0.0000
 Octapole moment (Debye-Ang**2):
  XXX=     0.3381  YYY=    16.2427  ZZZ=     0.0000  XYY=     5.6970
  XXY=     6.7468  XXZ=     0.0000  XZZ=    -1.1196  YZZ=     1.1342
  YYZ=     0.0000  XYZ=     0.0000
 Hexadecapole moment (Debye-Ang**3):
 XXXX=  -150.2604 YYYY=  -133.0903 ZZZZ=   -31.2985 XXXY=    -3.2451
 XXXZ=     0.0000 YYYX=    -9.2793 YYYZ=     0.0000 ZZZX=     0.0000
 ZZZY=     0.0000 XXYY=   -55.4348 XXZZ=   -37.2487 YYZZ=   -34.8248
 XXYZ=     0.0000 YYXZ=     0.0000 ZZXY=     0.5018
 N-N= 1.649792003308D+02 E-N=-8.553999844904D+02  KE= 2.245160466373D+02
 Symmetry A'   KE= 2.167297206127D+02
 Symmetry A"   KE= 7.786326024550D+00
 ***** Axes restored to original set *****
 -------------------------------------------------------------------
 Center     Atomic                   Forces (Hartrees/Bohr)
 Number     Number              X              Y              Z
 -------------------------------------------------------------------
    1          7          -0.002766351    0.000000000    0.031334209
    2          1           0.003335255    0.000000000   -0.015679452
    3          6          -0.003528822    0.000000000   -0.013093685
    4          1          -0.007788634    0.000000000   -0.005778285
    5          6          -0.001761279    0.000000000    0.010869351
    6          1          -0.006596485    0.000000000    0.007021757
    7          1           0.009839399    0.000000000   -0.001311147
    8          6           0.016244289    0.000000000   -0.012695385
    9          7          -0.006977372    0.000000000   -0.000667364
 -------------------------------------------------------------------
 Cartesian Forces:  Max     0.031334209 RMS     0.009251983

 GradGradGradGradGradGradGradGradGradGradGradGradGradGradGradGradGradGrad
 Berny optimization.
 Internal  Forces:  Max     0.030003233 RMS     0.008144270
 Search for a local minimum.
 Step number   1 out of a maximum of  48
 All quantities printed in internal units (Hartrees-Bohrs-Radians)
 Second derivative matrix not updated -- first step.
     Eigenvalues ---    0.02198   0.02341   0.02379   0.02551   0.02603
     Eigenvalues ---    0.02705   0.16000   0.16000   0.16000   0.16000
     Eigenvalues ---    0.22000   0.22911   0.37115   0.37237   0.37427
     Eigenvalues ---    0.45111   0.47811   0.48902   0.51454   0.54834
     Eigenvalues ---    0.671221000.000001000.000001000.000001000.00000
     Eigenvalues --- 1000.000001000.000001000.000001000.000001000.00000
     Eigenvalues --- 1000.000001000.000001000.000001000.000001000.00000
     Eigenvalues --- 1000.000001000.000001000.00000
 RFO step:  Lambda=-4.53694289D-03.
 Linear search not attempted -- first point.
 Iteration  1 RMS(Cart)=  0.01955215 RMS(Int)=  0.00001993
 Iteration  2 RMS(Cart)=  0.00002133 RMS(Int)=  0.00001084
 Iteration  3 RMS(Cart)=  0.00000000 RMS(Int)=  0.00001084
 Variable       Old X    -DE/DX   Delta X   Delta X   Delta X     New X
                                 (Linear)    (Quad)   (Total)
    R1        2.59131   0.01190   0.00000   0.02386   0.02387   2.61519
    R2        2.43585   0.03000   0.00000   0.04392   0.04393   2.47979
    R3        1.87690   0.01602   0.00000   0.03246   0.03246   1.90936
    R4        2.01907   0.00969   0.00000   0.02559   0.02559   2.04466
    R5        2.55164   0.02279   0.00000   0.03956   0.03956   2.59119
    R6        2.59299   0.00934   0.00000   0.01662   0.01660   2.60958
    R7        2.02190   0.00963   0.00000   0.02556   0.02556   2.04746
    R8        2.02373   0.00993   0.00000   0.02642   0.02642   2.05015
    R9        2.55007   0.01748   0.00000   0.03213   0.03212   2.58220
    A1        1.83847  -0.00317   0.00000  -0.00560  -0.00556   1.83290
    A2        2.31081  -0.00063   0.00000   0.00160   0.00161   2.31242
    A3        2.13616  -0.00119   0.00000  -0.00184  -0.00183   2.13433
    A4        1.83622   0.00182   0.00000   0.00024   0.00021   1.83643
    A5        1.92817   0.00140   0.00000   0.00341   0.00341   1.93158
    A6        2.11874  -0.00090   0.00000  -0.00292  -0.00292   2.11582
    A7        2.23628  -0.00050   0.00000  -0.00049  -0.00049   2.23578
    A8        2.19228   0.00077   0.00000   0.00102   0.00102   2.19330
    A9        1.95833  -0.00142   0.00000  -0.00139  -0.00138   1.95695
   A10        2.13257   0.00066   0.00000   0.00037   0.00036   2.13293
   A11        2.21222  -0.00122   0.00000  -0.00494  -0.00493   2.20729
   A12        2.20738  -0.00015   0.00000   0.00160   0.00161   2.20899
   A13        1.86359   0.00137   0.00000   0.00334   0.00332   1.86691
    D1        0.00000   0.00000   0.00000   0.00000   0.00000   0.00000
    D2        3.14159   0.00000   0.00000   0.00000   0.00000   3.14159
    D3        3.14159   0.00000   0.00000   0.00000   0.00000   3.14159
    D4        0.00000   0.00000   0.00000   0.00000   0.00000   0.00000
    D5        3.14159   0.00000   0.00000   0.00000   0.00000   3.14159
    D6        0.00000   0.00000   0.00000   0.00000   0.00000   0.00000
    D7        0.00000   0.00000   0.00000   0.00000   0.00000   0.00000
    D8        3.14159   0.00000   0.00000   0.00000   0.00000   3.14159
    D9        0.00000   0.00000   0.00000   0.00000   0.00000   0.00000
   D10        3.14159   0.00000   0.00000   0.00000   0.00000   3.14159
   D11        3.14159   0.00000   0.00000   0.00000   0.00000   3.14159
   D12        0.00000   0.00000   0.00000   0.00000   0.00000   0.00000
   D13        3.14159   0.00000   0.00000   0.00000   0.00000   3.14159
   D14        0.00000   0.00000   0.00000   0.00000   0.00000   0.00000
   D15        0.00000   0.00000   0.00000   0.00000   0.00000   0.00000
   D16        3.14159   0.00000   0.00000   0.00000   0.00000   3.14159
         Item               Value     Threshold  Converged?
 Maximum Force            0.030003     0.000450     NO 
 RMS     Force            0.008144     0.000300     NO 
 Maximum Displacement     0.052579     0.001800     NO 
 RMS     Displacement     0.019550     0.001200     NO 
 Predicted change in Energy=-2.249337D-03
 GradGradGradGradGradGradGradGradGradGradGradGradGradGradGradGradGradGrad

                          Input orientation:                          
 ---------------------------------------------------------------------
 Center     Atomic     Atomic              Coordinates (Angstroms)
 Number     Number      Type              X           Y           Z
 ---------------------------------------------------------------------
    1          7             0        0.502737    0.000000    1.133872
    2          1             0        0.494997    0.000000   -2.055745
    3          6             0       -1.021199    0.000000   -0.543246
    4          1             0       -1.906658    0.000000   -1.165063
    5          6             0       -0.844276    0.000000    0.816492
    6          1             0       -1.603495    0.000000    1.589467
    7          1             0        2.200247    0.000000   -0.161358
    8          6             0        1.124367    0.000000   -0.021796
    9          7             0        0.253383    0.000000   -1.074670
 ---------------------------------------------------------------------
                    Distance matrix (angstroms):
                    1          2          3          4          5
     1  N    0.000000
     2  H    3.189627   0.000000
     3  C    2.266077   2.141613   0.000000
     4  H    3.330208   2.561496   1.081986   0.000000
     5  C    1.383898   3.169132   1.371199   2.248381   0.000000
     6  H    2.154943   4.206096   2.210776   2.771163   1.083469
     7  H    2.135219   2.548838   3.244002   4.227776   3.197703
     8  C    1.312247   2.129098   2.208023   3.239471   2.139692
     9  N    2.222574   1.010389   1.380931   2.161931   2.186630
                    6          7          8          9
     6  H    0.000000
     7  H    4.187343   0.000000
     8  C    3.168186   1.084893   0.000000
     9  N    3.247403   2.150446   1.366440   0.000000
 Stoichiometry    C3H4N2
 Framework group  CS[SG(C3H4N2)]
 Deg. of freedom   15
 Full point group                 CS      NOp   2
 Largest Abelian subgroup         CS      NOp   2
 Largest concise Abelian subgroup C1      NOp   1
                         Standard orientation:                         
 ---------------------------------------------------------------------
 Center     Atomic     Atomic              Coordinates (Angstroms)
 Number     Number      Type              X           Y           Z
 ---------------------------------------------------------------------
    1          7             0       -0.746357   -0.986046    0.000000
    2          1             0       -0.011555    2.117788    0.000000
    3          6             0        1.119837    0.299421    0.000000
    4          1             0        2.123753    0.702965    0.000000
    5          6             0        0.637540   -0.984159    0.000000
    6          1             0        1.200513   -1.909883    0.000000
    7          1             0       -2.103826    0.662116    0.000000
    8          6             0       -1.088108    0.280918    0.000000
    9          7             0        0.000000    1.107465    0.000000
 ---------------------------------------------------------------------
 Rotational constants (GHZ):      9.7361575      9.3588941      4.7718995
 Isotopes: N-14,H-1,C-12,H-1,C-12,H-1,H-1,C-12,N-14
 Standard basis: 6-31G(d) (6D, 7F)
 There are    63 symmetry adapted basis functions of A'  symmetry.
 There are    20 symmetry adapted basis functions of A"  symmetry.
 Crude estimate of integral set expansion from redundant integrals=1.000.
 Integral buffers will be    262144 words long.
 Raffenetti 1 integral format.
 Two-electron integral symmetry is turned on.
    83 basis functions      156 primitive gaussians
    18 alpha electrons       18 beta electrons
       nuclear repulsion energy       162.9419867125 Hartrees.
 One-electron integrals computed using PRISM.
 NBasis=    83 RedAO= T  NBF=    63    20
 NBsUse=    83 1.00D-04 NBFU=    63    20
 Initial guess read from the read-write file:
 Initial guess orbital symmetries:
       Occupied  (A') (A') (A') (A') (A') (A') (A') (A') (A') (A')
                 (A') (A') (A') (A") (A') (A') (A") (A")
       Virtual   (A") (A') (A") (A') (A') (A') (A') (A') (A') (A')
                 (A') (A') (A") (A') (A") (A') (A") (A') (A') (A')
                 (A") (A') (A') (A') (A") (A') (A') (A') (A') (A')
                 (A') (A') (A') (A") (A") (A") (A') (A') (A") (A")
                 (A') (A') (A') (A') (A') (A') (A") (A") (A') (A')
                 (A") (A") (A') (A') (A") (A') (A') (A') (A') (A')
                 (A') (A') (A') (A') (A')
 Requested convergence on RMS density matrix=1.00D-08 within  64 cycles.
 Requested convergence on MAX density matrix=1.00D-06.
 Keep R1 integrals in memory in canonical form, NReq=     6535303.
 SCF Done:  E(RHF) =  -224.811945217     A.U. after   11 cycles
             Convg  =    0.8270D-08             -V/T =  2.0029
             S**2   =   0.0000
 Range of M.O.s used for correlation:     6    83
 NBasis=    83 NAE=    18 NBE=    18 NFC=     5 NFV=     0
 NROrb=     78 NOA=    13 NOB=    13 NVA=    65 NVB=    65
 Estimate disk for full transformation    52918570 words.
 Spin components of T(2) and E(2):
     alpha-alpha T2 =       0.3319982989D-01 E2=     -0.9555011654D-01
     alpha-beta  T2 =       0.1753645260D+00 E2=     -0.5159166993D+00
     beta-beta   T2 =       0.3319982989D-01 E2=     -0.9555011654D-01
 ANorm=    0.1114344734D+01
 E2=       -0.7070169324D+00 EUMP2=       -0.22551896214985D+03
 Iterations=  50 Convergence= 0.100D-07
 Iteration Nr.   1
 **********************
 MP4(R+Q)=  0.16924270D-01
 E3=       -0.14064379D-01        EUMP3=      -0.22553302653D+03
 E4(DQ)=   -0.71174315D-03        UMP4(DQ)=   -0.22553373827D+03
 DE(CORR)= -0.70415704D+00        E(CORR)=    -0.22551610226D+03
 NORM(A)=   0.11125722D+01
 Iteration Nr.   2
 **********************
 DE(CORR)= -0.71951435D+00        E(CORR)=    -0.22553145957D+03
 NORM(A)=   0.11205784D+01
 Iteration Nr.   3
 **********************
 DE(CORR)= -0.72173637D+00        E(CORR)=    -0.22553368159D+03
 NORM(A)=   0.11215303D+01
 Iteration Nr.   4
 **********************
 DE(CORR)= -0.72275462D+00        E(CORR)=    -0.22553469984D+03
 NORM(A)=   0.11218767D+01
 Iteration Nr.   5
 **********************
 DE(CORR)= -0.72283909D+00        E(CORR)=    -0.22553478431D+03
 NORM(A)=   0.11219318D+01
 Iteration Nr.   6
 **********************
 DE(CORR)= -0.72284690D+00        E(CORR)=    -0.22553479212D+03
 NORM(A)=   0.11219311D+01
 Iteration Nr.   7
 **********************
 DE(CORR)= -0.72284716D+00        E(CORR)=    -0.22553479237D+03
 NORM(A)=   0.11219347D+01
 Iteration Nr.   8
 **********************
 DE(CORR)= -0.72284620D+00        E(CORR)=    -0.22553479142D+03
 NORM(A)=   0.11219353D+01
 Iteration Nr.   9
 **********************
 DE(CORR)= -0.72284652D+00        E(CORR)=    -0.22553479174D+03
 NORM(A)=   0.11219356D+01
 Iteration Nr.  10
 **********************
 DE(CORR)= -0.72284667D+00        E(CORR)=    -0.22553479188D+03
 NORM(A)=   0.11219358D+01
 Iteration Nr.  11
 **********************
 DE(CORR)= -0.72284675D+00        E(CORR)=    -0.22553479197D+03
 NORM(A)=   0.11219359D+01
 Iteration Nr.  12
 **********************
 DE(CORR)= -0.72284679D+00        E(CORR)=    -0.22553479201D+03
 NORM(A)=   0.11219359D+01
 Iteration Nr.  13
 **********************
 DE(CORR)= -0.72284680D+00        E(CORR)=    -0.22553479202D+03
 NORM(A)=   0.11219359D+01
 Iteration Nr.  14
 **********************
 DE(CORR)= -0.72284681D+00        E(CORR)=    -0.22553479203D+03
 NORM(A)=   0.11219359D+01
 Largest amplitude= 7.93D-02

 Z-AMPLITUDE ITERATIONS

 Iteration Nr.   1
 **********************
 DE(Z)  -0.70210350D+00          E(Z)=    -0.22551404872D+03
 NORM(A)=   0.11219126D+01
 Iteration Nr.   2
 **********************
 DE(Z)  -0.70210355D+00          E(Z)=    -0.22551404876D+03
 NORM(A)=   0.11218696D+01
 Iteration Nr.   3
 **********************
 DE(Z)  -0.70210361D+00          E(Z)=    -0.22551404883D+03
 NORM(A)=   0.11225252D+01
 Iteration Nr.   4
 **********************
 DE(Z)  -0.70210235D+00          E(Z)=    -0.22551404756D+03
 NORM(A)=   0.11205325D+01
 Iteration Nr.   5
 **********************
 DE(Z)  -0.70210639D+00          E(Z)=    -0.22551405160D+03
 NORM(A)=   0.11145863D+01
 Iteration Nr.   6
 **********************
 DE(Z)  -0.70211895D+00          E(Z)=    -0.22551406416D+03
 NORM(A)=   0.11145861D+01
 Iteration Nr.   7
 **********************
 DE(Z)  -0.70211894D+00          E(Z)=    -0.22551406416D+03
 NORM(A)=   0.11145860D+01
 Iteration Nr.   8
 **********************
 DE(Z)  -0.70211890D+00          E(Z)=    -0.22551406412D+03
 NORM(A)=   0.11145859D+01
 Iteration Nr.   9
 **********************
 DE(Z)  -0.70211889D+00          E(Z)=    -0.22551406411D+03
 NORM(A)=   0.11145859D+01
 Iteration Nr.  10
 **********************
 DE(Z)  -0.70211889D+00          E(Z)=    -0.22551406411D+03
 NORM(A)=   0.11145859D+01
 Discarding MO integrals.
          Differentiating once with respect to electric field.
                with respect to dipole field.
          Differentiating once with respect to nuclear coordinates.
          Store integrals in memory, NReq=     6518293.
          There are   1 degrees of freedom in the 1st order CPHF.
   1 vectors were produced by pass  0.
 AX will form   1 AO Fock derivatives at one time.
   1 vectors were produced by pass  1.
   1 vectors were produced by pass  2.
   1 vectors were produced by pass  3.
   1 vectors were produced by pass  4.
   1 vectors were produced by pass  5.
   1 vectors were produced by pass  6.
   1 vectors were produced by pass  7.
   1 vectors were produced by pass  8.
   1 vectors were produced by pass  9.
   1 vectors were produced by pass 10.
   1 vectors were produced by pass 11.
   1 vectors were produced by pass 12.
   1 vectors were produced by pass 13.
   1 vectors were produced by pass 14.
 Inv2:  IOpt= 1 Iter= 1 AM= 4.82D-16 Conv= 1.00D-12.
 Inverted reduced A of dimension  15 with in-core refinement.
 ***** Axes restored to original set *****
 -------------------------------------------------------------------
 Center     Atomic                   Forces (Hartrees/Bohr)
 Number     Number              X              Y              Z
 -------------------------------------------------------------------
    1          7          -0.001936157    0.000000000    0.001193107
    2          1          -0.000118172    0.000000000    0.000564884
    3          6           0.000725357    0.000000000    0.000262493
    4          1           0.000527192    0.000000000    0.000321387
    5          6           0.001341163    0.000000000   -0.002062863
    6          1           0.000478887    0.000000000   -0.000451104
    7          1          -0.001005092    0.000000000    0.000282995
    8          6           0.001369472    0.000000000   -0.002921239
    9          7          -0.001382649    0.000000000    0.002810339
 -------------------------------------------------------------------
 Cartesian Forces:  Max     0.002921239 RMS     0.001126739

 GradGradGradGradGradGradGradGradGradGradGradGradGradGradGradGradGradGrad
 Berny optimization.
 Internal  Forces:  Max     0.002101846 RMS     0.000717698
 Search for a local minimum.
 Step number   2 out of a maximum of  48
 All quantities printed in internal units (Hartrees-Bohrs-Radians)
 Update second derivatives using information from points  1  2
 Trust test= 9.41D-01 RLast= 9.24D-02 DXMaxT set to 3.00D-01
     Eigenvalues ---    0.02199   0.02341   0.02380   0.02552   0.02603
     Eigenvalues ---    0.02706   0.15995   0.16000   0.16000   0.16004
     Eigenvalues ---    0.21888   0.22902   0.37169   0.37342   0.37868
     Eigenvalues ---    0.45178   0.47812   0.49350   0.51875   0.57881
     Eigenvalues ---    0.656431000.000001000.000001000.000001000.00000
     Eigenvalues --- 1000.000001000.000001000.000001000.000001000.00000
     Eigenvalues --- 1000.000001000.000001000.000001000.000001000.00000
     Eigenvalues --- 1000.000001000.000001000.00000
 RFO step:  Lambda=-3.34438356D-05.
 Quartic linear search produced a step of -0.04847.
 Iteration  1 RMS(Cart)=  0.00195345 RMS(Int)=  0.00000217
 Iteration  2 RMS(Cart)=  0.00000246 RMS(Int)=  0.00000076
 Iteration  3 RMS(Cart)=  0.00000000 RMS(Int)=  0.00000076
 Variable       Old X    -DE/DX   Delta X   Delta X   Delta X     New X
                                 (Linear)    (Quad)   (Total)
    R1        2.61519  -0.00126  -0.00116  -0.00100  -0.00216   2.61303
    R2        2.47979   0.00089  -0.00213   0.00384   0.00171   2.48150
    R3        1.90936  -0.00058  -0.00157   0.00061  -0.00096   1.90840
    R4        2.04466  -0.00062  -0.00124  -0.00022  -0.00146   2.04320
    R5        2.59119  -0.00198  -0.00192  -0.00156  -0.00348   2.58771
    R6        2.60958  -0.00210  -0.00080  -0.00333  -0.00414   2.60545
    R7        2.04746  -0.00066  -0.00124  -0.00033  -0.00157   2.04589
    R8        2.05015  -0.00103  -0.00128  -0.00125  -0.00254   2.04762
    R9        2.58220  -0.00157  -0.00156  -0.00087  -0.00243   2.57977
    A1        1.83290  -0.00073   0.00027  -0.00196  -0.00170   1.83121
    A2        2.31242   0.00020  -0.00008   0.00165   0.00157   2.31399
    A3        2.13433   0.00011   0.00009   0.00099   0.00108   2.13541
    A4        1.83643  -0.00031  -0.00001  -0.00264  -0.00265   1.83378
    A5        1.93158   0.00084  -0.00017   0.00331   0.00314   1.93473
    A6        2.11582  -0.00045   0.00014  -0.00187  -0.00173   2.11409
    A7        2.23578  -0.00040   0.00002  -0.00144  -0.00142   2.23437
    A8        2.19330   0.00024  -0.00005   0.00041   0.00036   2.19366
    A9        1.95695  -0.00078   0.00007  -0.00264  -0.00257   1.95438
   A10        2.13293   0.00055  -0.00002   0.00223   0.00221   2.13514
   A11        2.20729  -0.00047   0.00024  -0.00201  -0.00177   2.20552
   A12        2.20899  -0.00051  -0.00008  -0.00192  -0.00200   2.20699
   A13        1.86691   0.00097  -0.00016   0.00394   0.00378   1.87068
    D1        0.00000   0.00000   0.00000   0.00000   0.00000   0.00000
    D2        3.14159   0.00000   0.00000   0.00000   0.00000   3.14159
    D3        3.14159   0.00000   0.00000   0.00000   0.00000   3.14159
    D4        0.00000   0.00000   0.00000   0.00000   0.00000   0.00000
    D5        3.14159   0.00000   0.00000   0.00000   0.00000   3.14159
    D6        0.00000   0.00000   0.00000   0.00000   0.00000   0.00000
    D7        0.00000   0.00000   0.00000   0.00000   0.00000   0.00000
    D8        3.14159   0.00000   0.00000   0.00000   0.00000   3.14159
    D9        0.00000   0.00000   0.00000   0.00000   0.00000   0.00000
   D10        3.14159   0.00000   0.00000   0.00000   0.00000   3.14159
   D11        3.14159   0.00000   0.00000   0.00000   0.00000   3.14159
   D12        0.00000   0.00000   0.00000   0.00000   0.00000   0.00000
   D13        3.14159   0.00000   0.00000   0.00000   0.00000   3.14159
   D14        0.00000   0.00000   0.00000   0.00000   0.00000   0.00000
   D15        0.00000   0.00000   0.00000   0.00000   0.00000   0.00000
   D16        3.14159   0.00000   0.00000   0.00000   0.00000   3.14159
         Item               Value     Threshold  Converged?
 Maximum Force            0.002102     0.000450     NO 
 RMS     Force            0.000718     0.000300     NO 
 Maximum Displacement     0.005707     0.001800     NO 
 RMS     Displacement     0.001954     0.001200     NO 
 Predicted change in Energy=-2.230475D-05
 GradGradGradGradGradGradGradGradGradGradGradGradGradGradGradGradGradGrad

                          Input orientation:                          
 ---------------------------------------------------------------------
 Center     Atomic     Atomic              Coordinates (Angstroms)
 Number     Number      Type              X           Y           Z
 ---------------------------------------------------------------------
    1          7             0        0.501499    0.000000    1.130482
    2          1             0        0.492432    0.000000   -2.056348
    3          6             0       -1.022086    0.000000   -0.546962
    4          1             0       -1.906681    0.000000   -1.168668
    5          6             0       -0.843779    0.000000    0.810739
    6          1             0       -1.602588    0.000000    1.582952
    7          1             0        2.198385    0.000000   -0.165332
    8          6             0        1.123852    0.000000   -0.025824
    9          7             0        0.251248    0.000000   -1.075689
 ---------------------------------------------------------------------
                    Distance matrix (angstroms):
                    1          2          3          4          5
     1  N    0.000000
     2  H    3.186843   0.000000
     3  C    2.266082   2.138226   0.000000
     4  H    3.329477   2.558069   1.081216   0.000000
     5  C    1.382754   3.163170   1.369359   2.246734   0.000000
     6  H    2.152188   4.199240   2.207604   2.768373   1.082638
     7  H    2.135078   2.546804   3.243003   4.225902   3.194914
     8  C    1.313152   2.126433   2.208309   3.238861   2.138085
     9  N    2.220319   1.009882   1.378743   2.159931   2.181214
                    6          7          8          9
     6  H    0.000000
     7  H    4.183766   0.000000
     8  C    3.165697   1.083552   0.000000
     9  N    3.241155   2.149439   1.365157   0.000000
 Stoichiometry    C3H4N2
 Framework group  CS[SG(C3H4N2)]
 Deg. of freedom   15
 Full point group                 CS      NOp   2
 Largest Abelian subgroup         CS      NOp   2
 Largest concise Abelian subgroup C1      NOp   1
                         Standard orientation:                         
 ---------------------------------------------------------------------
 Center     Atomic     Atomic              Coordinates (Angstroms)
 Number     Number      Type              X           Y           Z
 ---------------------------------------------------------------------
    1          7             0       -0.745501   -0.986667    0.000000
    2          1             0       -0.011804    2.114567    0.000000
    3          6             0        1.119695    0.300257    0.000000
    4          1             0        2.122514    0.704460    0.000000
    5          6             0        0.637243   -0.981299    0.000000
    6          1             0        1.200516   -1.905867    0.000000
    7          1             0       -2.103165    0.661150    0.000000
    8          6             0       -1.088530    0.280889    0.000000
    9          7             0        0.000000    1.104755    0.000000
 ---------------------------------------------------------------------
 Rotational constants (GHZ):      9.7527146      9.3748728      4.7800309
 Isotopes: N-14,H-1,C-12,H-1,C-12,H-1,H-1,C-12,N-14
 Standard basis: 6-31G(d) (6D, 7F)
 There are    63 symmetry adapted basis functions of A'  symmetry.
 There are    20 symmetry adapted basis functions of A"  symmetry.
 Crude estimate of integral set expansion from redundant integrals=1.000.
 Integral buffers will be    262144 words long.
 Raffenetti 1 integral format.
 Two-electron integral symmetry is turned on.
    83 basis functions      156 primitive gaussians
    18 alpha electrons       18 beta electrons
       nuclear repulsion energy       163.0760729154 Hartrees.
 One-electron integrals computed using PRISM.
 NBasis=    83 RedAO= T  NBF=    63    20
 NBsUse=    83 1.00D-04 NBFU=    63    20
 Initial guess read from the read-write file:
 Initial guess orbital symmetries:
       Occupied  (A') (A') (A') (A') (A') (A') (A') (A') (A') (A')
                 (A') (A') (A') (A") (A') (A') (A") (A")
       Virtual   (A") (A') (A") (A') (A') (A') (A') (A') (A') (A')
                 (A') (A') (A") (A') (A") (A') (A") (A') (A') (A')
                 (A") (A') (A') (A') (A") (A') (A') (A') (A') (A')
                 (A') (A') (A') (A") (A") (A") (A') (A') (A") (A")
                 (A') (A') (A') (A') (A') (A') (A") (A") (A') (A')
                 (A") (A") (A') (A") (A') (A') (A') (A') (A') (A')
                 (A') (A') (A') (A') (A')
 Requested convergence on RMS density matrix=1.00D-08 within  64 cycles.
 Requested convergence on MAX density matrix=1.00D-06.
 Keep R1 integrals in memory in canonical form, NReq=     6535303.
 SCF Done:  E(RHF) =  -224.812162542     A.U. after   10 cycles
             Convg  =    0.4487D-08             -V/T =  2.0028
             S**2   =   0.0000
 Range of M.O.s used for correlation:     6    83
 NBasis=    83 NAE=    18 NBE=    18 NFC=     5 NFV=     0
 NROrb=     78 NOA=    13 NOB=    13 NVA=    65 NVB=    65
 Estimate disk for full transformation    52918570 words.
 Spin components of T(2) and E(2):
     alpha-alpha T2 =       0.3317584336D-01 E2=     -0.9555048041D-01
     alpha-beta  T2 =       0.1751413096D+00 E2=     -0.5157316113D+00
     beta-beta   T2 =       0.3317584336D-01 E2=     -0.9555048041D-01
 ANorm=    0.1114223046D+01
 E2=       -0.7068325722D+00 EUMP2=       -0.22551899511463D+03
 Iterations=  50 Convergence= 0.100D-07
 Iteration Nr.   1
 **********************
 MP4(R+Q)=  0.16903349D-01
 E3=       -0.14067642D-01        EUMP3=      -0.22553306276D+03
 E4(DQ)=   -0.70464250D-03        UMP4(DQ)=   -0.22553376740D+03
 DE(CORR)= -0.70399686D+00        E(CORR)=    -0.22551615941D+03
 NORM(A)=   0.11124514D+01
 Iteration Nr.   2
 **********************
 DE(CORR)= -0.71933227D+00        E(CORR)=    -0.22553149481D+03
 NORM(A)=   0.11204334D+01
 Iteration Nr.   3
 **********************
 DE(CORR)= -0.72154657D+00        E(CORR)=    -0.22553370912D+03
 NORM(A)=   0.11213796D+01
 Iteration Nr.   4
 **********************
 DE(CORR)= -0.72256114D+00        E(CORR)=    -0.22553472368D+03
 NORM(A)=   0.11217237D+01
 Iteration Nr.   5
 **********************
 DE(CORR)= -0.72264513D+00        E(CORR)=    -0.22553480767D+03
 NORM(A)=   0.11217784D+01
 Iteration Nr.   6
 **********************
 DE(CORR)= -0.72265287D+00        E(CORR)=    -0.22553481541D+03
 NORM(A)=   0.11217777D+01
 Iteration Nr.   7
 **********************
 DE(CORR)= -0.72265312D+00        E(CORR)=    -0.22553481566D+03
 NORM(A)=   0.11217812D+01
 Iteration Nr.   8
 **********************
 DE(CORR)= -0.72265218D+00        E(CORR)=    -0.22553481472D+03
 NORM(A)=   0.11217818D+01
 Iteration Nr.   9
 **********************
 DE(CORR)= -0.72265249D+00        E(CORR)=    -0.22553481503D+03
 NORM(A)=   0.11217821D+01
 Iteration Nr.  10
 **********************
 DE(CORR)= -0.72265263D+00        E(CORR)=    -0.22553481518D+03
 NORM(A)=   0.11217823D+01
 Iteration Nr.  11
 **********************
 DE(CORR)= -0.72265272D+00        E(CORR)=    -0.22553481526D+03
 NORM(A)=   0.11217824D+01
 Iteration Nr.  12
 **********************
 DE(CORR)= -0.72265276D+00        E(CORR)=    -0.22553481530D+03
 NORM(A)=   0.11217824D+01
 Iteration Nr.  13
 **********************
 DE(CORR)= -0.72265277D+00        E(CORR)=    -0.22553481531D+03
 NORM(A)=   0.11217824D+01
 Iteration Nr.  14
 **********************
 DE(CORR)= -0.72265277D+00        E(CORR)=    -0.22553481532D+03
 NORM(A)=   0.11217824D+01
 Largest amplitude= 7.90D-02

 Z-AMPLITUDE ITERATIONS

 Iteration Nr.   1
 **********************
 DE(Z)  -0.70194447D+00          E(Z)=    -0.22551410702D+03
 NORM(A)=   0.11217772D+01
 Iteration Nr.   2
 **********************
 DE(Z)  -0.70194448D+00          E(Z)=    -0.22551410703D+03
 NORM(A)=   0.11217787D+01
 Iteration Nr.   3
 **********************
 DE(Z)  -0.70194448D+00          E(Z)=    -0.22551410702D+03
 NORM(A)=   0.11217831D+01
 Iteration Nr.   4
 **********************
 DE(Z)  -0.70194447D+00          E(Z)=    -0.22551410701D+03
 NORM(A)=   0.11217832D+01
 Iteration Nr.   5
 **********************
 DE(Z)  -0.70194447D+00          E(Z)=    -0.22551410701D+03
 NORM(A)=   0.11144550D+01
 Iteration Nr.   6
 **********************
 DE(Z)  -0.70195793D+00          E(Z)=    -0.22551412047D+03
 NORM(A)=   0.11144530D+01
 Iteration Nr.   7
 **********************
 DE(Z)  -0.70195846D+00          E(Z)=    -0.22551412101D+03
 NORM(A)=   0.11144521D+01
 Iteration Nr.   8
 **********************
 DE(Z)  -0.70195854D+00          E(Z)=    -0.22551412108D+03
 NORM(A)=   0.11144515D+01
 Iteration Nr.   9
 **********************
 DE(Z)  -0.70195859D+00          E(Z)=    -0.22551412113D+03
 NORM(A)=   0.11144514D+01
 Iteration Nr.  10
 **********************
 DE(Z)  -0.70195855D+00          E(Z)=    -0.22551412109D+03
 NORM(A)=   0.11144514D+01
 Iteration Nr.  11
 **********************
 DE(Z)  -0.70195854D+00          E(Z)=    -0.22551412108D+03
 NORM(A)=   0.11144514D+01
 Iteration Nr.  12
 **********************
 DE(Z)  -0.70195854D+00          E(Z)=    -0.22551412108D+03
 NORM(A)=   0.11144514D+01
 Discarding MO integrals.
          Differentiating once with respect to electric field.
                with respect to dipole field.
          Differentiating once with respect to nuclear coordinates.
          Store integrals in memory, NReq=     6518293.
          There are   1 degrees of freedom in the 1st order CPHF.
   1 vectors were produced by pass  0.
 AX will form   1 AO Fock derivatives at one time.
   1 vectors were produced by pass  1.
   1 vectors were produced by pass  2.
   1 vectors were produced by pass  3.
   1 vectors were produced by pass  4.
   1 vectors were produced by pass  5.
   1 vectors were produced by pass  6.
   1 vectors were produced by pass  7.
   1 vectors were produced by pass  8.
   1 vectors were produced by pass  9.
   1 vectors were produced by pass 10.
   1 vectors were produced by pass 11.
   1 vectors were produced by pass 12.
   1 vectors were produced by pass 13.
   1 vectors were produced by pass 14.
 Inv2:  IOpt= 1 Iter= 1 AM= 3.95D-16 Conv= 1.00D-12.
 Inverted reduced A of dimension  15 with in-core refinement.
 ***** Axes restored to original set *****
 -------------------------------------------------------------------
 Center     Atomic                   Forces (Hartrees/Bohr)
 Number     Number              X              Y              Z
 -------------------------------------------------------------------
    1          7          -0.001028969    0.000000000    0.000580997
    2          1           0.000053055    0.000000000    0.000023339
    3          6           0.000383690    0.000000000   -0.000115715
    4          1           0.000099548    0.000000000    0.000058292
    5          6           0.000331601    0.000000000    0.000442024
    6          1          -0.000009131    0.000000000    0.000036096
    7          1          -0.000121575    0.000000000    0.000060207
    8          6           0.000170070    0.000000000   -0.001373158
    9          7           0.000121711    0.000000000    0.000287919
 -------------------------------------------------------------------
 Cartesian Forces:  Max     0.001373158 RMS     0.000380591

 GradGradGradGradGradGradGradGradGradGradGradGradGradGradGradGradGradGrad
 Berny optimization.
 Internal  Forces:  Max     0.000942121 RMS     0.000227574
 Search for a local minimum.
 Step number   3 out of a maximum of  48
 All quantities printed in internal units (Hartrees-Bohrs-Radians)
 Update second derivatives using information from points  1  2  3
 Trust test= 1.04D+00 RLast= 1.08D-02 DXMaxT set to 3.00D-01
     Eigenvalues ---    0.02199   0.02341   0.02380   0.02552   0.02603
     Eigenvalues ---    0.02705   0.15875   0.16000   0.16000   0.16011
     Eigenvalues ---    0.22592   0.25352   0.35778   0.37324   0.37438
     Eigenvalues ---    0.42300   0.45254   0.48816   0.51648   0.54019
     Eigenvalues ---    0.693511000.000001000.000001000.000001000.00000
     Eigenvalues --- 1000.000001000.000001000.000001000.000001000.00000
     Eigenvalues --- 1000.000001000.000001000.000001000.000001000.00000
     Eigenvalues --- 1000.000001000.000001000.00000
 RFO step:  Lambda=-4.18093734D-06.
 Quartic linear search produced a step of  0.05844.
 Iteration  1 RMS(Cart)=  0.00054962 RMS(Int)=  0.00000009
 Iteration  2 RMS(Cart)=  0.00000010 RMS(Int)=  0.00000003
 Variable       Old X    -DE/DX   Delta X   Delta X   Delta X     New X
                                 (Linear)    (Quad)   (Total)
    R1        2.61303  -0.00062  -0.00013  -0.00132  -0.00144   2.61158
    R2        2.48150   0.00094   0.00010   0.00161   0.00171   2.48321
    R3        1.90840  -0.00001  -0.00006  -0.00002  -0.00007   1.90833
    R4        2.04320  -0.00011  -0.00009  -0.00035  -0.00044   2.04276
    R5        2.58771   0.00019  -0.00020   0.00024   0.00004   2.58775
    R6        2.60545  -0.00014  -0.00024  -0.00052  -0.00076   2.60468
    R7        2.04589   0.00003  -0.00009   0.00006  -0.00003   2.04586
    R8        2.04762  -0.00013  -0.00015  -0.00044  -0.00059   2.04703
    R9        2.57977  -0.00063  -0.00014  -0.00126  -0.00140   2.57837
    A1        1.83121   0.00001  -0.00010   0.00030   0.00020   1.83141
    A2        2.31399  -0.00014   0.00009  -0.00044  -0.00034   2.31365
    A3        2.13541  -0.00016   0.00006  -0.00059  -0.00053   2.13489
    A4        1.83378   0.00030  -0.00015   0.00102   0.00087   1.83465
    A5        1.93473  -0.00019   0.00018  -0.00083  -0.00064   1.93408
    A6        2.11409   0.00008  -0.00010   0.00028   0.00018   2.11427
    A7        2.23437   0.00012  -0.00008   0.00055   0.00047   2.23483
    A8        2.19366  -0.00003   0.00002  -0.00030  -0.00028   2.19338
    A9        1.95438  -0.00003  -0.00015  -0.00007  -0.00022   1.95416
   A10        2.13514   0.00006   0.00013   0.00037   0.00050   2.13564
   A11        2.20552   0.00010  -0.00010   0.00058   0.00048   2.20599
   A12        2.20699  -0.00001  -0.00012  -0.00015  -0.00026   2.20672
   A13        1.87068  -0.00009   0.00022  -0.00043  -0.00021   1.87047
    D1        0.00000   0.00000   0.00000   0.00000   0.00000   0.00000
    D2        3.14159   0.00000   0.00000   0.00000   0.00000   3.14159
    D3        3.14159   0.00000   0.00000   0.00000   0.00000   3.14159
    D4        0.00000   0.00000   0.00000   0.00000   0.00000   0.00000
    D5        3.14159   0.00000   0.00000   0.00000   0.00000   3.14159
    D6        0.00000   0.00000   0.00000   0.00000   0.00000   0.00000
    D7        0.00000   0.00000   0.00000   0.00000   0.00000   0.00000
    D8        3.14159   0.00000   0.00000   0.00000   0.00000   3.14159
    D9        0.00000   0.00000   0.00000   0.00000   0.00000   0.00000
   D10        3.14159   0.00000   0.00000   0.00000   0.00000   3.14159
   D11        3.14159   0.00000   0.00000   0.00000   0.00000   3.14159
   D12        0.00000   0.00000   0.00000   0.00000   0.00000   0.00000
   D13        3.14159   0.00000   0.00000   0.00000   0.00000   3.14159
   D14        0.00000   0.00000   0.00000   0.00000   0.00000   0.00000
   D15        0.00000   0.00000   0.00000   0.00000   0.00000   0.00000
   D16        3.14159   0.00000   0.00000   0.00000   0.00000   3.14159
         Item               Value     Threshold  Converged?
 Maximum Force            0.000942     0.000450     NO 
 RMS     Force            0.000228     0.000300     YES
 Maximum Displacement     0.001741     0.001800     YES
 RMS     Displacement     0.000550     0.001200     YES
 Predicted change in Energy=-2.161512D-06
 GradGradGradGradGradGradGradGradGradGradGradGradGradGradGradGradGradGrad

                          Input orientation:                          
 ---------------------------------------------------------------------
 Center     Atomic     Atomic              Coordinates (Angstroms)
 Number     Number      Type              X           Y           Z
 ---------------------------------------------------------------------
    1          7             0        0.500744    0.000000    1.130381
    2          1             0        0.492649    0.000000   -2.056440
    3          6             0       -1.021429    0.000000   -0.546835
    4          1             0       -1.905723    0.000000   -1.168566
    5          6             0       -0.843829    0.000000    0.810978
    6          1             0       -1.602671    0.000000    1.583136
    7          1             0        2.197898    0.000000   -0.165750
    8          6             0        1.123621    0.000000   -0.026672
    9          7             0        0.251349    0.000000   -1.075850
 ---------------------------------------------------------------------
                    Distance matrix (angstroms):
                    1          2          3          4          5
     1  N    0.000000
     2  H    3.186832   0.000000
     3  C    2.264965   2.138069   0.000000
     4  H    3.328099   2.557442   1.080984   0.000000
     5  C    1.381990   3.163584   1.369379   2.246378   0.000000
     6  H    2.151590   4.199629   2.207854   2.768340   1.082621
     7  H    2.135483   2.546091   3.241803   4.224375   3.194699
     8  C    1.314058   2.125578   2.207217   3.237414   2.138345
     9  N    2.220283   1.009843   1.378339   2.159064   2.181636
                    6          7          8          9
     6  H    0.000000
     7  H    4.183649   0.000000
     8  C    3.166094   1.083242   0.000000
     9  N    3.241542   2.148799   1.364417   0.000000
 Stoichiometry    C3H4N2
 Framework group  CS[SG(C3H4N2)]
 Deg. of freedom   15
 Full point group                 CS      NOp   2
 Largest Abelian subgroup         CS      NOp   2
 Largest concise Abelian subgroup C1      NOp   1
                         Standard orientation:                         
 ---------------------------------------------------------------------
 Center     Atomic     Atomic              Coordinates (Angstroms)
 Number     Number      Type              X           Y           Z
 ---------------------------------------------------------------------
    1          7             0       -0.744945   -0.986770    0.000000
    2          1             0       -0.011806    2.114585    0.000000
    3          6             0        1.118986    0.300019    0.000000
    4          1             0        2.121569    0.704188    0.000000
    5          6             0        0.637036   -0.981746    0.000000
    6          1             0        1.200237   -1.906340    0.000000
    7          1             0       -2.102591    0.661588    0.000000
    8          6             0       -1.088155    0.281676    0.000000
    9          7             0        0.000000    1.104811    0.000000
 ---------------------------------------------------------------------
 Rotational constants (GHZ):      9.7550599      9.3779061      4.7813829
 Isotopes: N-14,H-1,C-12,H-1,C-12,H-1,H-1,C-12,N-14
 Standard basis: 6-31G(d) (6D, 7F)
 There are    63 symmetry adapted basis functions of A'  symmetry.
 There are    20 symmetry adapted basis functions of A"  symmetry.
 Crude estimate of integral set expansion from redundant integrals=1.000.
 Integral buffers will be    262144 words long.
 Raffenetti 1 integral format.
 Two-electron integral symmetry is turned on.
    83 basis functions      156 primitive gaussians
    18 alpha electrons       18 beta electrons
       nuclear repulsion energy       163.0977458993 Hartrees.
 One-electron integrals computed using PRISM.
 NBasis=    83 RedAO= T  NBF=    63    20
 NBsUse=    83 1.00D-04 NBFU=    63    20
 Initial guess read from the read-write file:
 Initial guess orbital symmetries:
       Occupied  (A') (A') (A') (A') (A') (A') (A') (A') (A') (A')
                 (A') (A') (A') (A") (A') (A') (A") (A")
       Virtual   (A") (A') (A") (A') (A') (A') (A') (A') (A') (A')
                 (A') (A') (A") (A') (A") (A') (A") (A') (A') (A')
                 (A") (A') (A') (A') (A") (A') (A') (A') (A') (A')
                 (A') (A') (A') (A") (A") (A") (A') (A') (A") (A")
                 (A') (A') (A') (A') (A') (A') (A") (A") (A') (A')
                 (A") (A") (A') (A") (A') (A') (A') (A') (A') (A')
                 (A') (A') (A') (A') (A')
 Requested convergence on RMS density matrix=1.00D-08 within  64 cycles.
 Requested convergence on MAX density matrix=1.00D-06.
 Keep R1 integrals in memory in canonical form, NReq=     6535303.
 SCF Done:  E(RHF) =  -224.812174833     A.U. after    9 cycles
             Convg  =    0.5588D-08             -V/T =  2.0028
             S**2   =   0.0000
 Range of M.O.s used for correlation:     6    83
 NBasis=    83 NAE=    18 NBE=    18 NFC=     5 NFV=     0
 NROrb=     78 NOA=    13 NOB=    13 NVA=    65 NVB=    65
 Estimate disk for full transformation    52918570 words.
 Spin components of T(2) and E(2):
     alpha-alpha T2 =       0.3317812459D-01 E2=     -0.9555949090D-01
     alpha-beta  T2 =       0.1751242555D+00 E2=     -0.5157214305D+00
     beta-beta   T2 =       0.3317812459D-01 E2=     -0.9555949090D-01
 ANorm=    0.1114217440D+01
 E2=       -0.7068404123D+00 EUMP2=       -0.22551901524487D+03
 Iterations=  50 Convergence= 0.100D-07
 Iteration Nr.   1
 **********************
 MP4(R+Q)=  0.16904475D-01
 E3=       -0.14051708D-01        EUMP3=      -0.22553306695D+03
 E4(DQ)=   -0.70351953D-03        UMP4(DQ)=   -0.22553377047D+03
 DE(CORR)= -0.70398764D+00        E(CORR)=    -0.22551616248D+03
 NORM(A)=   0.11124363D+01
 Iteration Nr.   2
 **********************
 DE(CORR)= -0.71932502D+00        E(CORR)=    -0.22553149985D+03
 NORM(A)=   0.11204164D+01
 Iteration Nr.   3
 **********************
 DE(CORR)= -0.72153648D+00        E(CORR)=    -0.22553371131D+03
 NORM(A)=   0.11213617D+01
 Iteration Nr.   4
 **********************
 DE(CORR)= -0.72255096D+00        E(CORR)=    -0.22553472579D+03
 NORM(A)=   0.11217057D+01
 Iteration Nr.   5
 **********************
 DE(CORR)= -0.72263490D+00        E(CORR)=    -0.22553480973D+03
 NORM(A)=   0.11217603D+01
 Iteration Nr.   6
 **********************
 DE(CORR)= -0.72264263D+00        E(CORR)=    -0.22553481746D+03
 NORM(A)=   0.11217596D+01
 Iteration Nr.   7
 **********************
 DE(CORR)= -0.72264288D+00        E(CORR)=    -0.22553481771D+03
 NORM(A)=   0.11217632D+01
 Iteration Nr.   8
 **********************
 DE(CORR)= -0.72264194D+00        E(CORR)=    -0.22553481677D+03
 NORM(A)=   0.11217638D+01
 Iteration Nr.   9
 **********************
 DE(CORR)= -0.72264225D+00        E(CORR)=    -0.22553481708D+03
 NORM(A)=   0.11217641D+01
 Iteration Nr.  10
 **********************
 DE(CORR)= -0.72264239D+00        E(CORR)=    -0.22553481723D+03
 NORM(A)=   0.11217643D+01
 Iteration Nr.  11
 **********************
 DE(CORR)= -0.72264248D+00        E(CORR)=    -0.22553481731D+03
 NORM(A)=   0.11217643D+01
 Iteration Nr.  12
 **********************
 DE(CORR)= -0.72264252D+00        E(CORR)=    -0.22553481735D+03
 NORM(A)=   0.11217644D+01
 Iteration Nr.  13
 **********************
 DE(CORR)= -0.72264253D+00        E(CORR)=    -0.22553481736D+03
 NORM(A)=   0.11217644D+01
 Iteration Nr.  14
 **********************
 DE(CORR)= -0.72264253D+00        E(CORR)=    -0.22553481737D+03
 NORM(A)=   0.11217644D+01
 Largest amplitude= 7.90D-02

 Z-AMPLITUDE ITERATIONS

 Iteration Nr.   1
 **********************
 DE(Z)  -0.70193560D+00          E(Z)=    -0.22551411044D+03
 NORM(A)=   0.11217812D+01
 Iteration Nr.   2
 **********************
 DE(Z)  -0.70193557D+00          E(Z)=    -0.22551411040D+03
 NORM(A)=   0.11219528D+01
 Iteration Nr.   3
 **********************
 DE(Z)  -0.70193529D+00          E(Z)=    -0.22551411013D+03
 NORM(A)=   0.11205921D+01
 Iteration Nr.   4
 **********************
 DE(Z)  -0.70193783D+00          E(Z)=    -0.22551411267D+03
 NORM(A)=   0.11225566D+01
 Iteration Nr.   5
 **********************
 DE(Z)  -0.70193403D+00          E(Z)=    -0.22551410887D+03
 NORM(A)=   0.11144351D+01
 Iteration Nr.   6
 **********************
 DE(Z)  -0.70195055D+00          E(Z)=    -0.22551412538D+03
 NORM(A)=   0.11144348D+01
 Iteration Nr.   7
 **********************
 DE(Z)  -0.70195053D+00          E(Z)=    -0.22551412537D+03
 NORM(A)=   0.11144347D+01
 Iteration Nr.   8
 **********************
 DE(Z)  -0.70195050D+00          E(Z)=    -0.22551412534D+03
 NORM(A)=   0.11144347D+01
 Iteration Nr.   9
 **********************
 DE(Z)  -0.70195049D+00          E(Z)=    -0.22551412532D+03
 NORM(A)=   0.11144347D+01
 Iteration Nr.  10
 **********************
 DE(Z)  -0.70195049D+00          E(Z)=    -0.22551412532D+03
 NORM(A)=   0.11144347D+01
 Discarding MO integrals.
          Differentiating once with respect to electric field.
                with respect to dipole field.
          Differentiating once with respect to nuclear coordinates.
          Store integrals in memory, NReq=     6518293.
          There are   1 degrees of freedom in the 1st order CPHF.
   1 vectors were produced by pass  0.
 AX will form   1 AO Fock derivatives at one time.
   1 vectors were produced by pass  1.
   1 vectors were produced by pass  2.
   1 vectors were produced by pass  3.
   1 vectors were produced by pass  4.
   1 vectors were produced by pass  5.
   1 vectors were produced by pass  6.
   1 vectors were produced by pass  7.
   1 vectors were produced by pass  8.
   1 vectors were produced by pass  9.
   1 vectors were produced by pass 10.
   1 vectors were produced by pass 11.
   1 vectors were produced by pass 12.
   1 vectors were produced by pass 13.
   1 vectors were produced by pass 14.
 Inv2:  IOpt= 1 Iter= 1 AM= 4.23D-16 Conv= 1.00D-12.
 Inverted reduced A of dimension  15 with in-core refinement.
 ***** Axes restored to original set *****
 -------------------------------------------------------------------
 Center     Atomic                   Forces (Hartrees/Bohr)
 Number     Number              X              Y              Z
 -------------------------------------------------------------------
    1          7          -0.000053268    0.000000000    0.000103335
    2          1           0.000002387    0.000000000   -0.000023927
    3          6          -0.000193159    0.000000000   -0.000251161
    4          1          -0.000066101    0.000000000   -0.000037921
    5          6           0.000221203    0.000000000    0.000170199
    6          1          -0.000044674    0.000000000    0.000012691
    7          1           0.000082997    0.000000000    0.000045146
    8          6           0.000019155    0.000000000   -0.000138860
    9          7           0.000031459    0.000000000    0.000120498
 -------------------------------------------------------------------
 Cartesian Forces:  Max     0.000251161 RMS     0.000095148

 GradGradGradGradGradGradGradGradGradGradGradGradGradGradGradGradGradGrad
 Berny optimization.
 Internal  Forces:  Max     0.000223946 RMS     0.000057252
 Search for a local minimum.
 Step number   4 out of a maximum of  48
 All quantities printed in internal units (Hartrees-Bohrs-Radians)
 Update second derivatives using information from points  1  2  3  4
 Trust test= 9.49D-01 RLast= 3.27D-03 DXMaxT set to 3.00D-01
     Eigenvalues ---    0.02199   0.02341   0.02380   0.02552   0.02603
     Eigenvalues ---    0.02705   0.15247   0.16000   0.16007   0.16078
     Eigenvalues ---    0.22241   0.25859   0.37153   0.37382   0.38133
     Eigenvalues ---    0.44028   0.45397   0.48836   0.51658   0.56874
     Eigenvalues ---    0.635831000.000001000.000001000.000001000.00000
     Eigenvalues --- 1000.000001000.000001000.000001000.000001000.00000
     Eigenvalues --- 1000.000001000.000001000.000001000.000001000.00000
     Eigenvalues --- 1000.000001000.000001000.00000
 RFO step:  Lambda=-3.28548495D-07.
 Quartic linear search produced a step of -0.04968.
 Iteration  1 RMS(Cart)=  0.00017302 RMS(Int)=  0.00000002
 Iteration  2 RMS(Cart)=  0.00000003 RMS(Int)=  0.00000001
 Variable       Old X    -DE/DX   Delta X   Delta X   Delta X     New X
                                 (Linear)    (Quad)   (Total)
    R1        2.61158  -0.00003   0.00007  -0.00024  -0.00016   2.61142
    R2        2.48321   0.00008  -0.00009   0.00032   0.00024   2.48345
    R3        1.90833   0.00002   0.00000   0.00004   0.00004   1.90837
    R4        2.04276   0.00008   0.00002   0.00014   0.00016   2.04292
    R5        2.58775   0.00022   0.00000   0.00041   0.00041   2.58816
    R6        2.60468   0.00008   0.00004   0.00005   0.00009   2.60477
    R7        2.04586   0.00004   0.00000   0.00010   0.00010   2.04596
    R8        2.04703   0.00008   0.00003   0.00012   0.00015   2.04718
    R9        2.57837   0.00004   0.00007  -0.00012  -0.00005   2.57833
    A1        1.83141  -0.00001  -0.00001  -0.00005  -0.00006   1.83135
    A2        2.31365   0.00005   0.00002   0.00016   0.00017   2.31382
    A3        2.13489   0.00007   0.00003   0.00022   0.00024   2.13513
    A4        1.83465  -0.00012  -0.00004  -0.00037  -0.00042   1.83423
    A5        1.93408   0.00006   0.00003   0.00023   0.00027   1.93435
    A6        2.11427  -0.00001  -0.00001   0.00001   0.00000   2.11427
    A7        2.23483  -0.00006  -0.00002  -0.00024  -0.00026   2.23457
    A8        2.19338  -0.00005   0.00001  -0.00033  -0.00031   2.19307
    A9        1.95416  -0.00001   0.00001  -0.00013  -0.00012   1.95405
   A10        2.13564   0.00006  -0.00002   0.00045   0.00043   2.13607
   A11        2.20599  -0.00004  -0.00002  -0.00013  -0.00015   2.20584
   A12        2.20672  -0.00004   0.00001  -0.00019  -0.00017   2.20655
   A13        1.87047   0.00008   0.00001   0.00032   0.00033   1.87080
    D1        0.00000   0.00000   0.00000   0.00000   0.00000   0.00000
    D2        3.14159   0.00000   0.00000   0.00000   0.00000   3.14159
    D3        3.14159   0.00000   0.00000   0.00000   0.00000   3.14159
    D4        0.00000   0.00000   0.00000   0.00000   0.00000   0.00000
    D5        3.14159   0.00000   0.00000   0.00000   0.00000   3.14159
    D6        0.00000   0.00000   0.00000   0.00000   0.00000   0.00000
    D7        0.00000   0.00000   0.00000   0.00000   0.00000   0.00000
    D8        3.14159   0.00000   0.00000   0.00000   0.00000   3.14159
    D9        0.00000   0.00000   0.00000   0.00000   0.00000   0.00000
   D10        3.14159   0.00000   0.00000   0.00000   0.00000   3.14159
   D11        3.14159   0.00000   0.00000   0.00000   0.00000   3.14159
   D12        0.00000   0.00000   0.00000   0.00000   0.00000   0.00000
   D13        3.14159   0.00000   0.00000   0.00000   0.00000   3.14159
   D14        0.00000   0.00000   0.00000   0.00000   0.00000   0.00000
   D15        0.00000   0.00000   0.00000   0.00000   0.00000   0.00000
   D16        3.14159   0.00000   0.00000   0.00000   0.00000   3.14159
         Item               Value     Threshold  Converged?
 Maximum Force            0.000224     0.000450     YES
 RMS     Force            0.000057     0.000300     YES
 Maximum Displacement     0.000567     0.001800     YES
 RMS     Displacement     0.000173     0.001200     YES
 Predicted change in Energy=-1.698928D-07
 Optimization completed.
    -- Stationary point found.
                         ----------------------------
                         !   Optimized Parameters   !
                         ! (Angstroms and Degrees)  !
 ------------------------                            -------------------------
 ! Name  Definition              Value          Derivative Info.             !
 -----------------------------------------------------------------------------
 ! R1    R(1,5)                  1.382          -DE/DX =    0.               !
 ! R2    R(1,8)                  1.3141         -DE/DX =    0.0001           !
 ! R3    R(2,9)                  1.0098         -DE/DX =    0.               !
 ! R4    R(3,4)                  1.081          -DE/DX =    0.0001           !
 ! R5    R(3,5)                  1.3694         -DE/DX =    0.0002           !
 ! R6    R(3,9)                  1.3783         -DE/DX =    0.0001           !
 ! R7    R(5,6)                  1.0826         -DE/DX =    0.               !
 ! R8    R(7,8)                  1.0832         -DE/DX =    0.0001           !
 ! R9    R(8,9)                  1.3644         -DE/DX =    0.               !
 ! A1    A(5,1,8)              104.932          -DE/DX =    0.               !
 ! A2    A(4,3,5)              132.5622         -DE/DX =    0.0001           !
 ! A3    A(4,3,9)              122.32           -DE/DX =    0.0001           !
 ! A4    A(5,3,9)              105.1178         -DE/DX =   -0.0001           !
 ! A5    A(1,5,3)              110.8148         -DE/DX =    0.0001           !
 ! A6    A(1,5,6)              121.1387         -DE/DX =    0.               !
 ! A7    A(3,5,6)              128.0465         -DE/DX =   -0.0001           !
 ! A8    A(1,8,7)              125.6715         -DE/DX =   -0.0001           !
 ! A9    A(1,8,9)              111.9654         -DE/DX =    0.               !
 ! A10   A(7,8,9)              122.3631         -DE/DX =    0.0001           !
 ! A11   A(2,9,3)              126.3941         -DE/DX =    0.               !
 ! A12   A(2,9,8)              126.4358         -DE/DX =    0.               !
 ! A13   A(3,9,8)              107.17           -DE/DX =    0.0001           !
 ! D1    D(8,1,5,3)              0.             -DE/DX =    0.               !
 ! D2    D(8,1,5,6)            180.             -DE/DX =    0.               !
 ! D3    D(5,1,8,7)            180.             -DE/DX =    0.               !
 ! D4    D(5,1,8,9)              0.             -DE/DX =    0.               !
 ! D5    D(4,3,5,1)            180.             -DE/DX =    0.               !
 ! D6    D(4,3,5,6)              0.             -DE/DX =    0.               !
 ! D7    D(9,3,5,1)              0.             -DE/DX =    0.               !
 ! D8    D(9,3,5,6)            180.             -DE/DX =    0.               !
 ! D9    D(4,3,9,2)              0.             -DE/DX =    0.               !
 ! D10   D(4,3,9,8)            180.             -DE/DX =    0.               !
 ! D11   D(5,3,9,2)            180.             -DE/DX =    0.               !
 ! D12   D(5,3,9,8)              0.             -DE/DX =    0.               !
 ! D13   D(1,8,9,2)            180.             -DE/DX =    0.               !
 ! D14   D(1,8,9,3)              0.             -DE/DX =    0.               !
 ! D15   D(7,8,9,2)              0.             -DE/DX =    0.               !
 ! D16   D(7,8,9,3)            180.             -DE/DX =    0.               !
 -----------------------------------------------------------------------------
 GradGradGradGradGradGradGradGradGradGradGradGradGradGradGradGradGradGrad

                          Input orientation:                          
 ---------------------------------------------------------------------
 Center     Atomic     Atomic              Coordinates (Angstroms)
 Number     Number      Type              X           Y           Z
[...]
 Frequencies --  1565.2670              1618.3097              3289.6146
 Red. masses --     3.4479                 3.7229                 1.0927
 Frc consts  --     4.9772                 5.7445                 6.9669
 IR Inten    --    23.2239                12.4796                 6.2144
 Raman Activ --     0.0000                 0.0000                 0.0000
 Depolar     --     0.0000                 0.0000                 0.0000
 Atom AN      X      Y      Z        X      Y      Z        X      Y      Z
   1   7    -0.01  -0.13   0.00    -0.01   0.20   0.00     0.00   0.00   0.00
   2   1     0.19  -0.14   0.00     0.48   0.02   0.00     0.00  -0.01   0.00
   3   6     0.00   0.26   0.00     0.10   0.22   0.00    -0.03  -0.01   0.00
   4   1     0.33  -0.50   0.00     0.30  -0.14   0.00     0.33   0.13   0.00
   5   6     0.00  -0.14   0.00    -0.14  -0.23   0.00     0.04  -0.07   0.00
   6   1     0.04  -0.17   0.00     0.50   0.11   0.00    -0.46   0.76   0.00
   7   1    -0.24  -0.54   0.00     0.26   0.29   0.00    -0.27   0.10   0.00
   8   6     0.07   0.29   0.00     0.03  -0.24   0.00     0.02  -0.01   0.00
   9   7    -0.07  -0.13   0.00    -0.08   0.01   0.00     0.00   0.00   0.00
                    19                     20                     21
                    A'                     A'                     A'
 Frequencies --  3292.4234              3319.0008              3699.8491
 Red. masses --     1.0979                 1.1066                 1.0821
 Frc consts  --     7.0123                 7.1822                 8.7278
 IR Inten    --     1.2571                 2.0069                70.5348
 Raman Activ --     0.0000                 0.0000                 0.0000
 Depolar     --     0.0000                 0.0000                 0.0000
 Atom AN      X      Y      Z        X      Y      Z        X      Y      Z
   1   7     0.00   0.00   0.00     0.00   0.00   0.00     0.00   0.00   0.00
   2   1    -0.01   0.01   0.00    -0.01  -0.02   0.00    -0.01   1.00   0.00
   3   6    -0.01  -0.01   0.00    -0.08  -0.03   0.00     0.00   0.00   0.00
   4   1     0.16   0.06   0.00     0.85   0.34   0.00     0.01   0.00   0.00
   5   6     0.01  -0.02   0.00    -0.02   0.04   0.00     0.00   0.00   0.00
   6   1    -0.12   0.20   0.00     0.19  -0.33   0.00     0.00   0.00   0.00
   7   1     0.89  -0.33   0.00    -0.06   0.02   0.00    -0.01   0.00   0.00
   8   6    -0.08   0.03   0.00     0.01   0.00   0.00     0.00   0.00   0.00
   9   7     0.00   0.00   0.00     0.00   0.00   0.00     0.00  -0.08   0.00

 -------------------
 - Thermochemistry -
 -------------------
 Temperature   298.150 Kelvin.  Pressure   1.00000 Atm.
 Atom  1 has atomic number  7 and mass  14.00307
 Atom  2 has atomic number  1 and mass   1.00783
 Atom  3 has atomic number  6 and mass  12.00000
 Atom  4 has atomic number  1 and mass   1.00783
 Atom  5 has atomic number  6 and mass  12.00000
 Atom  6 has atomic number  1 and mass   1.00783
 Atom  7 has atomic number  1 and mass   1.00783
 Atom  8 has atomic number  6 and mass  12.00000
 Atom  9 has atomic number  7 and mass  14.00307
 Molecular mass:    68.03745 amu.
 Principal axes and moments of inertia in atomic units:
                           1         2         3
     EIGENVALUES --   185.00565 192.44607 377.45172
           X            0.48540   0.87429   0.00000
           Y            0.87429  -0.48540   0.00000
           Z            0.00000   0.00000   1.00000
 THIS MOLECULE IS AN ASYMMETRIC TOP.
 ROTATIONAL SYMMETRY NUMBER  1.
 ROTATIONAL TEMPERATURES (KELVIN)      0.46817     0.45007     0.22947
 ROTATIONAL CONSTANTS (GHZ)            9.75506     9.37791     4.78138
 Zero-point vibrational energy     189745.2 (Joules/Mol)
                                   45.35019 (Kcal/Mol)
 WARNING-- EXPLICIT CONSIDERATION OF   1 DEGREES OF FREEDOM AS
           VIBRATIONS MAY CAUSE SIGNIFICANT ERROR
 VIBRATIONAL TEMPERATURES:    708.64   922.88   985.92  1034.71  1174.07
          (KELVIN)           1207.22  1324.09  1377.18  1596.80  1634.64
                             1708.53  1714.02  1894.17  2040.06  2170.04
                             2252.06  2328.37  4732.99  4737.04  4775.27
                             5323.23
 
 Zero-point correction=                           0.072270 (Hartree/Particle)
 Thermal correction to Energy=                    0.076039
 Thermal correction to Enthalpy=                  0.076984
 Thermal correction to Gibbs Free Energy=         0.045989
 Sum of electronic and zero-point Energies=           -225.462547
 Sum of electronic and thermal Energies=              -225.458778
 Sum of electronic and thermal Enthalpies=            -225.457834
 Sum of electronic and thermal Free Energies=         -225.488828
 
                     E (Thermal)             CV                S
                      KCAL/MOL        CAL/MOL-KELVIN    CAL/MOL-KELVIN
 TOTAL                   47.715             13.304             65.233
 ELECTRONIC               0.000              0.000              0.000
 TRANSLATIONAL            0.889              2.981             38.570
 ROTATIONAL               0.889              2.981             24.112
 VIBRATIONAL             45.938              7.343              2.551
 VIBRATION  1             0.848              1.267              0.677
                       Q            LOG10(Q)             LN(Q)
 TOTAL BOT       0.702228D-21        -21.153522        -48.707783
 TOTAL V=0       0.122519D+13         12.088204         27.834119
 VIB (BOT)       0.767130D-33        -33.115131        -76.250407
 VIB (BOT)  1    0.335899D+00         -0.473791         -1.090945
 VIB (V=0)       0.133843D+01          0.126595          0.291495
 VIB (V=0)  1    0.110235D+01          0.042320          0.097446
 ELECTRONIC      0.100000D+01          0.000000          0.000000
 TRANSLATIONAL   0.220588D+08          7.343582         16.909224
 ROTATIONAL      0.414980D+05          4.618027         10.633400
 ***** Axes restored to original set *****
 -------------------------------------------------------------------
 Center     Atomic                   Forces (Hartrees/Bohr)
 Number     Number              X              Y              Z
 -------------------------------------------------------------------
    1          7          -0.000053256    0.000000000    0.000103341
    2          1           0.000002384    0.000000000   -0.000023923
    3          6          -0.000193169    0.000000000   -0.000251162
    4          1          -0.000066106    0.000000000   -0.000037924
    5          6           0.000221198    0.000000000    0.000170209
    6          1          -0.000044675    0.000000000    0.000012690
    7          1           0.000082994    0.000000000    0.000045147
    8          6           0.000019142    0.000000000   -0.000138870
    9          7           0.000031489    0.000000000    0.000120491
 -------------------------------------------------------------------
 Cartesian Forces:  Max     0.000251162 RMS     0.000095149

 GradGradGradGradGradGradGradGradGradGradGradGradGradGradGradGradGradGrad
 Berny optimization.
 Internal  Forces:  Max     0.000223955 RMS     0.000057254
 Search for a local minimum.
 Step number   1 out of a maximum of  48
 All quantities printed in internal units (Hartrees-Bohrs-Radians)
 Second derivative matrix not updated -- analytic derivatives used.
     Eigenvalues ---    0.00462   0.01030   0.02022   0.02748   0.05803
     Eigenvalues ---    0.06201   0.10389   0.10973   0.11534   0.12462
     Eigenvalues ---    0.24018   0.26182   0.36747   0.38062   0.38408
     Eigenvalues ---    0.38593   0.43562   0.46699   0.48831   0.51188
     Eigenvalues ---    0.609281000.000001000.000001000.000001000.00000
     Eigenvalues --- 1000.000001000.000001000.000001000.000001000.00000
     Eigenvalues --- 1000.000001000.000001000.000001000.000001000.00000
     Eigenvalues --- 1000.000001000.000001000.00000
 Angle between quadratic step and forces=  28.69 degrees.
 Linear search not attempted -- first point.
 Iteration  1 RMS(Cart)=  0.00019509 RMS(Int)=  0.00000004
 Iteration  2 RMS(Cart)=  0.00000004 RMS(Int)=  0.00000001
 Variable       Old X    -DE/DX   Delta X   Delta X   Delta X     New X
                                 (Linear)    (Quad)   (Total)
    R1        2.61158  -0.00003   0.00000  -0.00026  -0.00026   2.61132
    R2        2.48321   0.00008   0.00000   0.00024   0.00024   2.48345
    R3        1.90833   0.00002   0.00000   0.00007   0.00007   1.90839
    R4        2.04276   0.00008   0.00000   0.00017   0.00017   2.04293
    R5        2.58775   0.00022   0.00000   0.00052   0.00052   2.58827
    R6        2.60468   0.00008   0.00000   0.00018   0.00018   2.60486
    R7        2.04586   0.00004   0.00000   0.00013   0.00013   2.04599
    R8        2.04703   0.00008   0.00000   0.00019   0.00019   2.04722
    R9        2.57837   0.00004   0.00000  -0.00008  -0.00008   2.57829
    A1        1.83141  -0.00001   0.00000  -0.00004  -0.00004   1.83137
    A2        2.31365   0.00005   0.00000   0.00023   0.00023   2.31388
    A3        2.13489   0.00007   0.00000   0.00024   0.00024   2.13513
    A4        1.83465  -0.00012   0.00000  -0.00047  -0.00047   1.83418
    A5        1.93408   0.00006   0.00000   0.00029   0.00029   1.93437
    A6        2.11427  -0.00001   0.00000   0.00014   0.00014   2.11441
    A7        2.23483  -0.00006   0.00000  -0.00043  -0.00043   2.23441
    A8        2.19338  -0.00005   0.00000  -0.00040  -0.00040   2.19298
    A9        1.95416  -0.00001   0.00000  -0.00009  -0.00009   1.95407
   A10        2.13564   0.00006   0.00000   0.00050   0.00050   2.13614
   A11        2.20599  -0.00004   0.00000  -0.00016  -0.00016   2.20584
   A12        2.20672  -0.00004   0.00000  -0.00017  -0.00017   2.20656
   A13        1.87047   0.00008   0.00000   0.00032   0.00032   1.87079
    D1        0.00000   0.00000   0.00000   0.00000   0.00000   0.00000
    D2        3.14159   0.00000   0.00000   0.00000   0.00000   3.14159
    D3        3.14159   0.00000   0.00000   0.00000   0.00000   3.14159
    D4        0.00000   0.00000   0.00000   0.00000   0.00000   0.00000
    D5        3.14159   0.00000   0.00000   0.00000   0.00000   3.14159
    D6        0.00000   0.00000   0.00000   0.00000   0.00000   0.00000
    D7        0.00000   0.00000   0.00000   0.00000   0.00000   0.00000
    D8        3.14159   0.00000   0.00000   0.00000   0.00000   3.14159
    D9        0.00000   0.00000   0.00000   0.00000   0.00000   0.00000
   D10        3.14159   0.00000   0.00000   0.00000   0.00000   3.14159
   D11        3.14159   0.00000   0.00000   0.00000   0.00000   3.14159
   D12        0.00000   0.00000   0.00000   0.00000   0.00000   0.00000
   D13        3.14159   0.00000   0.00000   0.00000   0.00000   3.14159
   D14        0.00000   0.00000   0.00000   0.00000   0.00000   0.00000
   D15        0.00000   0.00000   0.00000   0.00000   0.00000   0.00000
   D16        3.14159   0.00000   0.00000   0.00000   0.00000   3.14159
         Item               Value     Threshold  Converged?
 Maximum Force            0.000224     0.000450     YES
 RMS     Force            0.000057     0.000300     YES
 Maximum Displacement     0.000634     0.001800     YES
 RMS     Displacement     0.000195     0.001200     YES
 Predicted change in Energy=-2.030665D-07
 Optimization completed.
    -- Stationary point found.
                         ----------------------------
                         !   Optimized Parameters   !
                         ! (Angstroms and Degrees)  !
 ------------------------                            -------------------------
 ! Name  Definition              Value          Derivative Info.             !
 -----------------------------------------------------------------------------
 ! R1    R(1,5)                  1.382          -DE/DX =    0.               !
 ! R2    R(1,8)                  1.3141         -DE/DX =    0.0001           !
 ! R3    R(2,9)                  1.0098         -DE/DX =    0.               !
 ! R4    R(3,4)                  1.081          -DE/DX =    0.0001           !
 ! R5    R(3,5)                  1.3694         -DE/DX =    0.0002           !
 ! R6    R(3,9)                  1.3783         -DE/DX =    0.0001           !
 ! R7    R(5,6)                  1.0826         -DE/DX =    0.               !
 ! R8    R(7,8)                  1.0832         -DE/DX =    0.0001           !
 ! R9    R(8,9)                  1.3644         -DE/DX =    0.               !
 ! A1    A(5,1,8)              104.932          -DE/DX =    0.               !
 ! A2    A(4,3,5)              132.5622         -DE/DX =    0.0001           !
 ! A3    A(4,3,9)              122.32           -DE/DX =    0.0001           !
 ! A4    A(5,3,9)              105.1178         -DE/DX =   -0.0001           !
 ! A5    A(1,5,3)              110.8148         -DE/DX =    0.0001           !
 ! A6    A(1,5,6)              121.1387         -DE/DX =    0.               !
 ! A7    A(3,5,6)              128.0465         -DE/DX =   -0.0001           !
 ! A8    A(1,8,7)              125.6715         -DE/DX =   -0.0001           !
 ! A9    A(1,8,9)              111.9654         -DE/DX =    0.               !
 ! A10   A(7,8,9)              122.3631         -DE/DX =    0.0001           !
 ! A11   A(2,9,3)              126.3941         -DE/DX =    0.               !
 ! A12   A(2,9,8)              126.4358         -DE/DX =    0.               !
 ! A13   A(3,9,8)              107.17           -DE/DX =    0.0001           !
 ! D1    D(8,1,5,3)              0.             -DE/DX =    0.               !
 ! D2    D(8,1,5,6)            180.             -DE/DX =    0.               !
 ! D3    D(5,1,8,7)            180.             -DE/DX =    0.               !
 ! D4    D(5,1,8,9)              0.             -DE/DX =    0.               !
 ! D5    D(4,3,5,1)            180.             -DE/DX =    0.               !
 ! D6    D(4,3,5,6)              0.             -DE/DX =    0.               !
 ! D7    D(9,3,5,1)              0.             -DE/DX =    0.               !
 ! D8    D(9,3,5,6)            180.             -DE/DX =    0.               !
 ! D9    D(4,3,9,2)              0.             -DE/DX =    0.               !
 ! D10   D(4,3,9,8)            180.             -DE/DX =    0.               !
 ! D11   D(5,3,9,2)            180.             -DE/DX =    0.               !
 ! D12   D(5,3,9,8)              0.             -DE/DX =    0.               !
 ! D13   D(1,8,9,2)            180.             -DE/DX =    0.               !
 ! D14   D(1,8,9,3)              0.             -DE/DX =    0.               !
 ! D15   D(7,8,9,2)              0.             -DE/DX =    0.               !
 ! D16   D(7,8,9,3)            180.             -DE/DX =    0.               !
 -----------------------------------------------------------------------------
 GradGradGradGradGradGradGradGradGradGradGradGradGradGradGradGradGradGrad

 1\1\GINC-PLUMBUM\Freq\RCCD-FC\6-31G(d)\C3H4N2\RDJ3\02-Feb-1999\0\\#N G
 EOM=ALLCHECK GUESS=TCHECK RCCD(FC)/6-31G(D) FREQ\\1H imidazole C3H4N2 
 casno=288324\\0,1\N,0.5008278043,0.,1.1304113389\H,0.4927333345,0.,-2.
 0564100426\C,-1.0213448109,0.,-0.5468051305\H,-1.9056393025,0.,-1.1685
 362121\C,-0.843745417,0.,0.8110078209\H,-1.6025868069,0.,1.5831663093\
 H,2.1979815638,0.,-0.1657199064\C,1.1237048988,0.,-0.0266425134\N,0.25
 14326507,0.,-1.0758200832\\Version=IBM-RS6000-G98RevA.4\State=1-A'\HF=
 -224.8121748\MP2=-225.5190152\MP3=-225.533067\MP4D=-225.5506749\MP4DQ=
 -225.5337705\CCD=-225.5348174\RMSD=1.873e-09\RMSF=9.515e-05\Dipole=-0.
 1327609,0.,-1.5114448\DipoleDeriv=-0.3938054,0.,0.043972,0.,-0.3282755
 ,0.,-0.0158603,0.,-0.5726441,0.1950263,0.,-0.0055731,0.,0.3630519,0.,-
 0.0050709,0.,0.2271876,0.0713941,0.,-0.2089239,0.,-0.1054725,0.,-0.056
 4909,0.,0.1777067,0.0208184,0.,-0.0413927,0.,0.1785911,0.,-0.0623661,0
 .,0.0465752,0.1808191,0.,-0.0976804,0.,-0.1120877,0.,-0.0886398,0.,0.1
 079651,-0.0059377,0.,0.0649304,0.,0.1459998,0.,0.0750185,0.,0.0290936,
 -0.0289651,0.,0.0304299,0.,0.1484761,0.,0.0330016,0.,0.0691767,0.19070
 6,0.,0.1190251,0.,0.0389385,0.,0.0602412,0.,0.5944853,-0.2307928,0.,0.
 0949698,0.,-0.3293773,0.,0.0603854,0.,-0.6793269\PG=CS [SG(C3H4N2)]\NI
 mag=0\\0.51436854,0.,0.10389666,-0.06718814,0.,0.61279912,-0.00303450,
 0.,-0.00841690,0.08509954,0.,0.00725729,0.,0.,0.01080968,-0.00413366,0
 .,-0.00295272,-0.09890730,0.,0.46201217,-0.02970744,0.,-0.01664309,0.0
 0719836,0.,-0.00311848,0.78337194,0.,0.01444612,0.,0.,-0.00900016,0.,0
 .,0.09871171,-0.08973356,0.,-0.01765724,0.02926722,0.,-0.00111843,0.15
 425512,0.,0.78846731,0.00183663,0.,0.00113053,0.00005602,0.,0.00002508
 ,-0.26250190,0.,-0.14179214,0.27625632,0.,0.00772041,0.,0.,-0.00089816
 ,0.,0.,-0.01809367,0.,0.,0.01766803,-0.00381436,0.,-0.00559626,-0.0008
 3331,0.,0.00020158,-0.15241707,0.,-0.16956039,0.15578952,0.,0.16180444
 ,-0.27007935,0.,-0.04003566,-0.00906705,0.,0.00023779,-0.10792685,0.,-
 0.02274846,0.00541847,0.,-0.02250180,0.68428475,0.,-0.06780783,0.,0.,0
 .00268461,0.,0.,-0.05602052,0.,0.,-0.00372581,0.,0.,0.12380911,-0.0519
 2163,0.,-0.11930424,0.00341123,0.,0.00095332,-0.03668043,0.,-0.4247212
 7,0.00161217,0.,0.00227180,-0.15171919,0.,0.84073995,-0.01856573,0.,0.
 02197755,0.00083751,0.,-0.00001959,0.00912760,0.,-0.00610781,-0.000236
 11,0.,0.00055688,-0.19940295,0.,0.14941275,0.21442302,0.,-0.00591276,0
 .,0.,0.00216321,0.,0.,-0.00270242,0.,0.,-0.00168242,0.,0.,-0.02632369,
 0.,0.,0.02243501,-0.00807541,0.,0.01277884,0.00129347,0.,0.00020442,0.
 02114558,0.,-0.00748102,-0.00037174,0.,-0.00026442,0.15293315,0.,-0.22
 346094,-0.16203543,0.,0.22308973,-0.00780490,0.,0.00256151,-0.00061477
 ,0.,-0.00041784,0.00075438,0.,-0.00316963,-0.00034366,0.,0.00040392,0.
 00084029,0.,0.00256103,-0.00031693,0.,-0.00021562,0.37581700,0.,-0.005
 72694,0.,0.,-0.00106585,0.,0.,0.00302809,0.,0.,0.00184992,0.,0.,0.0073
 8972,0.,0.,0.00110458,0.,0.,0.02120247,0.03035245,0.,0.00135628,0.0004
 0924,0.,0.00025900,-0.00126431,0.,-0.00585667,-0.00106706,0.,0.0010089
 1,0.00329173,0.,-0.00472559,0.00145466,0.,0.00070563,-0.03927865,0.,0.
 06486826,-0.17700965,0.,0.12640888,0.01860439,0.,0.01415243,-0.0919299
 3,0.,0.00357407,-0.00329904,0.,0.00417739,-0.08807642,0.,0.01643375,-0
 .00667151,0.,-0.00358974,-0.35591332,0.,0.03670936,0.92926689,0.,-0.07
 643348,0.,0.,-0.01008092,0.,0.,0.01492662,0.,0.,0.00299158,0.,0.,0.010
 56111,0.,0.,0.00519236,0.,0.,-0.02481264,0.,0.,0.13347353,0.15423503,0
 .,-0.37511305,-0.01776229,0.,-0.01117133,-0.04034992,0.,-0.01742346,0.
 00434365,0.,-0.00489245,0.07819716,0.,0.00281416,-0.00224241,0.,0.0000
 9071,0.03254498,0.,-0.06537180,-0.08200732,0.,0.70512231,-0.00999072,0
 .,-0.01981508,-0.09908488,0.,0.09218200,-0.30839781,0.,0.07644223,-0.0
 1719403,0.,0.01863327,-0.01597733,0.,0.06691139,0.00079805,0.,-0.00108
 293,-0.01242710,0.,-0.03060591,-0.22498441,0.,-0.12694141,0.68728520,0
 .,0.02254306,0.,0.,-0.00186670,0.,0.,-0.04529318,0.,0.,-0.00582656,0.,
 0.,0.00943699,0.,0.,0.00572571,0.,0.,-0.00296987,0.,0.,-0.05581212,0.,
 0.,0.07406248,0.04027593,0.,-0.10631097,0.09153579,0.,-0.44838526,0.07
 510266,0.,-0.14466200,-0.01967214,0.,0.01502643,0.00232221,0.,-0.07455
 958,-0.00299248,0.,-0.00566165,0.00500663,0.,0.00775943,-0.11583752,0.
 ,-0.23407470,-0.07574399,0.,0.99088659\\0.00005326,0.,-0.00010334,-0.0
 0000238,0.,0.00002392,0.00019317,0.,0.00025116,0.00006611,0.,0.0000379
 2,-0.00022120,0.,-0.00017021,0.00004467,0.,-0.00001269,-0.00008299,0.,
 -0.00004515,-0.00001914,0.,0.00013887,-0.00003149,0.,-0.00012049\\\@


 WHAT, THEN, IS TIME?  IF NO ONE ASKS ME, I KNOW WHAT IT IS.
 IF I WISH TO EXPLAIN WHAT IT IS TO HIM WHO ASKS ME, I DO NOT KNOW.
                                   -- ST. AUGUSTINE (FIFTH CENTURY)
 Job cpu time:  0 days 13 hours  1 minutes  1.2 seconds.
 File lengths (MBytes):  RWF=  409 Int=    0 D2E=    0 Chk=    4 Scr=    1
 Normal termination of Gaussian 98.
