 Entering Gaussian System, Link 0=g09
 Initial command:
 /usr/local/gaussian/g09.b01.em64t.linda/g09/l1.exe /tmp/rdj3/g09-4782/Gau-4837.inp -scrdir=/tmp/rdj3/g09-4782/
 Entering Link 1 = /usr/local/gaussian/g09.b01.em64t.linda/g09/l1.exe PID=      4838.
  
 Copyright (c) 1988,1990,1992,1993,1995,1998,2003,2009,2010,
            Gaussian, Inc.  All Rights Reserved.
  
 This is part of the Gaussian(R) 09 program.  It is based on
 the Gaussian(R) 03 system (copyright 2003, Gaussian, Inc.),
 the Gaussian(R) 98 system (copyright 1998, Gaussian, Inc.),
 the Gaussian(R) 94 system (copyright 1995, Gaussian, Inc.),
 the Gaussian 92(TM) system (copyright 1992, Gaussian, Inc.),
 the Gaussian 90(TM) system (copyright 1990, Gaussian, Inc.),
 the Gaussian 88(TM) system (copyright 1988, Gaussian, Inc.),
 the Gaussian 86(TM) system (copyright 1986, Carnegie Mellon
 University), and the Gaussian 82(TM) system (copyright 1983,
 Carnegie Mellon University). Gaussian is a federally registered
 trademark of Gaussian, Inc.
  
 This software contains proprietary and confidential information,
 including trade secrets, belonging to Gaussian, Inc.
  
 This software is provided under written license and may be
 used, copied, transmitted, or stored only in accord with that
 written license.
  
 The following legend is applicable only to US Government
 contracts under FAR:
  
                    RESTRICTED RIGHTS LEGEND
  
 Use, reproduction and disclosure by the US Government is
 subject to restrictions as set forth in subparagraphs (a)
 and (c) of the Commercial Computer Software - Restricted
 Rights clause in FAR 52.227-19.
  
 Gaussian, Inc.
 340 Quinnipiac St., Bldg. 40, Wallingford CT 06492
  
  
 ---------------------------------------------------------------
 Warning -- This program may not be used in any manner that
 competes with the business of Gaussian, Inc. or will provide
 assistance to any competitor of Gaussian, Inc.  The licensee
 of this program is prohibited from giving any competitor of
 Gaussian, Inc. access to this program.  By using this program,
 the user acknowledges that Gaussian, Inc. is engaged in the
 business of creating and licensing software in the field of
 computational chemistry and represents and warrants to the
 licensee that it is not a competitor of Gaussian, Inc. and that
 it will not use this program in any manner prohibited above.
 ---------------------------------------------------------------
  

 Cite this work as:
 Gaussian 09, Revision B.01,
 M. J. Frisch, G. W. Trucks, H. B. Schlegel, G. E. Scuseria, 
 M. A. Robb, J. R. Cheeseman, G. Scalmani, V. Barone, B. Mennucci, 
 G. A. Petersson, H. Nakatsuji, M. Caricato, X. Li, H. P. Hratchian, 
 A. F. Izmaylov, J. Bloino, G. Zheng, J. L. Sonnenberg, M. Hada, 
 M. Ehara, K. Toyota, R. Fukuda, J. Hasegawa, M. Ishida, T. Nakajima, 
 Y. Honda, O. Kitao, H. Nakai, T. Vreven, J. A. Montgomery, Jr., 
 J. E. Peralta, F. Ogliaro, M. Bearpark, J. J. Heyd, E. Brothers, 
 K. N. Kudin, V. N. Staroverov, T. Keith, R. Kobayashi, J. Normand, 
 K. Raghavachari, A. Rendell, J. C. Burant, S. S. Iyengar, J. Tomasi, 
 M. Cossi, N. Rega, J. M. Millam, M. Klene, J. E. Knox, J. B. Cross, 
 V. Bakken, C. Adamo, J. Jaramillo, R. Gomperts, R. E. Stratmann, 
 O. Yazyev, A. J. Austin, R. Cammi, C. Pomelli, J. W. Ochterski, 
 R. L. Martin, K. Morokuma, V. G. Zakrzewski, G. A. Voth, 
 P. Salvador, J. J. Dannenberg, S. Dapprich, A. D. Daniels, 
 O. Farkas, J. B. Foresman, J. V. Ortiz, J. Cioslowski, 
 and D. J. Fox, Gaussian, Inc., Wallingford CT, 2010.
 
 ******************************************
 Gaussian 09:  EM64L-G09RevB.01 12-Aug-2010
                 5-Feb-2013 
 ******************************************
 %NProc=8
 Will use up to    8 processors via shared memory.
 %mem=424000000
 ------------------------
 #TPSSh/6-31G(d) opt freq
 ------------------------
 ---------------------------------------------------------------------
 1himidaz 1H-Imidazole casno=288324 state=1 config=1 method=75 basis=1
 ---------------------------------------------------------------------
 Symbolic Z-matrix:
 Charge =  0 Multiplicity = 1
 N                    -0.74106  -0.96596   0. 
 H                    -0.01273   2.08825   0. 
 C                     1.10986   0.28827   0. 
 H                     2.10334   0.68144   0. 
 C                     0.63018  -0.97392   0. 
 H                     1.18224  -1.89044   0. 
 H                    -2.07716   0.65597   0. 
 C                    -1.07476   0.2791    0. 
 N                     0.        1.09512   0. 
 

 GradGradGradGradGradGradGradGradGradGradGradGradGradGradGradGradGradGrad
 Initialization pass.
                           ----------------------------
                           !    Initial Parameters    !
                           ! (Angstroms and Degrees)  !
 --------------------------                            --------------------------
 ! Name  Definition              Value          Derivative Info.                !
 --------------------------------------------------------------------------------
 ! R1    R(1,5)                  1.3713         estimate D2E/DX2                !
 ! R2    R(1,8)                  1.289          estimate D2E/DX2                !
 ! R3    R(2,9)                  0.9932         estimate D2E/DX2                !
 ! R4    R(3,4)                  1.0684         estimate D2E/DX2                !
 ! R5    R(3,5)                  1.3503         estimate D2E/DX2                !
 ! R6    R(3,9)                  1.3721         estimate D2E/DX2                !
 ! R7    R(5,6)                  1.0699         estimate D2E/DX2                !
 ! R8    R(7,8)                  1.0709         estimate D2E/DX2                !
 ! R9    R(8,9)                  1.3494         estimate D2E/DX2                !
 ! A1    A(5,1,8)              105.3363         estimate D2E/DX2                !
 ! A2    A(4,3,5)              132.3996         estimate D2E/DX2                !
 ! A3    A(4,3,9)              122.3927         estimate D2E/DX2                !
 ! A4    A(5,3,9)              105.2077         estimate D2E/DX2                !
 ! A5    A(1,5,3)              110.476          estimate D2E/DX2                !
 ! A6    A(1,5,6)              121.3948         estimate D2E/DX2                !
 ! A7    A(3,5,6)              128.1292         estimate D2E/DX2                !
 ! A8    A(1,8,7)              125.6083         estimate D2E/DX2                !
 ! A9    A(1,8,9)              112.2043         estimate D2E/DX2                !
 ! A10   A(7,8,9)              122.1873         estimate D2E/DX2                !
 ! A11   A(2,9,3)              126.7509         estimate D2E/DX2                !
 ! A12   A(2,9,8)              126.4734         estimate D2E/DX2                !
 ! A13   A(3,9,8)              106.7757         estimate D2E/DX2                !
 ! D1    D(8,1,5,3)              0.0            estimate D2E/DX2                !
 ! D2    D(8,1,5,6)            180.0            estimate D2E/DX2                !
 ! D3    D(5,1,8,7)            180.0            estimate D2E/DX2                !
 ! D4    D(5,1,8,9)              0.0            estimate D2E/DX2                !
 ! D5    D(4,3,5,1)            180.0            estimate D2E/DX2                !
 ! D6    D(4,3,5,6)              0.0            estimate D2E/DX2                !
 ! D7    D(9,3,5,1)              0.0            estimate D2E/DX2                !
 ! D8    D(9,3,5,6)            180.0            estimate D2E/DX2                !
 ! D9    D(4,3,9,2)              0.0            estimate D2E/DX2                !
 ! D10   D(4,3,9,8)            180.0            estimate D2E/DX2                !
 ! D11   D(5,3,9,2)            180.0            estimate D2E/DX2                !
 ! D12   D(5,3,9,8)              0.0            estimate D2E/DX2                !
 ! D13   D(1,8,9,2)            180.0            estimate D2E/DX2                !
 ! D14   D(1,8,9,3)              0.0            estimate D2E/DX2                !
 ! D15   D(7,8,9,2)              0.0            estimate D2E/DX2                !
 ! D16   D(7,8,9,3)            180.0            estimate D2E/DX2                !
 --------------------------------------------------------------------------------
 Number of steps in this run=     48 maximum allowed number of steps=    100.
 GradGradGradGradGradGradGradGradGradGradGradGradGradGradGradGradGradGrad

                    Distance matrix (angstroms):
                    1          2          3          4          5
     1  N    0.000000
     2  H    3.139846   0.000000
     3  C    2.235845   2.121351   0.000000
     4  H    3.287021   2.541040   1.068445   0.000000
     5  C    1.371264   3.128931   1.350267   2.215941   0.000000
     6  H    2.133951   4.154268   2.179918   2.731848   1.069945
     7  H    2.101386   2.512625   3.208165   4.180579   3.160103
     8  C    1.288998   2.097837   2.184637   3.203461   2.115860
     9  N    2.190252   0.993212   1.372149   2.143634   2.162879
                    6          7          8          9
     6  H    0.000000
     7  H    4.136171   0.000000
     8  C    3.130644   1.070911   0.000000
     9  N    3.211116   2.123076   1.349441   0.000000
 Framework group  CS[SG(C3H4N2)]
 Deg. of freedom    15
                         Standard orientation:                         
 ---------------------------------------------------------------------
 Center     Atomic      Atomic             Coordinates (Angstroms)
 Number     Number       Type             X           Y           Z
 ---------------------------------------------------------------------
      1          7           0       -0.741059   -0.965959    0.000000
      2          1           0       -0.012734    2.088247    0.000000
      3          6           0        1.109862    0.288272    0.000000
      4          1           0        2.103339    0.681436    0.000000
      5          6           0        0.630182   -0.973920    0.000000
      6          1           0        1.182239   -1.890444    0.000000
      7          1           0       -2.077162    0.655969    0.000000
      8          6           0       -1.074756    0.279096    0.000000
      9          7           0        0.000000    1.095117    0.000000
 ---------------------------------------------------------------------
 Rotational constants (GHZ):      9.9280198      9.6396664      4.8908592
    83 basis functions,   156 primitive gaussians,    83 cartesian basis functions
    18 alpha electrons       18 beta electrons
       nuclear repulsion energy       164.9791768920 Hartrees.
 NAtoms=    9 NActive=    9 NUniq=    9 SFac= 1.00D+00 NAtFMM=   50 NAOKFM=F Big=F
 Harris functional with IExCor= 1009 diagonalized for initial guess.
 ExpMin= 1.61D-01 ExpMax= 4.17D+03 ExpMxC= 6.27D+02 IAcc=1 IRadAn=         1 AccDes= 0.00D+00
 HarFok:  IExCor= 1009 AccDes= 0.00D+00 IRadAn=         1 IDoV= 1
 ScaDFX=  1.000000  1.000000  1.000000  1.000000
 FoFCou: FMM=F IPFlag=           0 FMFlag=      100000 FMFlg1=           0
         NFxFlg=           0 DoJE=T BraDBF=F KetDBF=T FulRan=T
         Omega=  0.000000  0.000000  1.000000  0.000000  0.000000 ICntrl=     500 IOpCl=  0
         NMat0=    1 NMatS0=    1 NMatT0=    0 NMatD0=    1 NMtDS0=    0 NMtDT0=    0
         I1Cent=           4 NGrid=           0.
 Petite list used in FoFCou.
 Initial guess orbital symmetries:
       Occupied  (A') (A') (A') (A') (A') (A') (A') (A') (A') (A')
                 (A') (A') (A') (A") (A') (A') (A") (A")
       Virtual   (A") (A") (A') (A') (A') (A') (A') (A') (A') (A')
                 (A') (A') (A") (A') (A') (A") (A') (A") (A') (A')
                 (A") (A') (A') (A") (A') (A') (A') (A') (A') (A')
                 (A') (A') (A") (A') (A") (A") (A') (A') (A") (A")
                 (A') (A') (A') (A') (A') (A') (A") (A") (A') (A')
                 (A") (A") (A') (A") (A') (A') (A') (A') (A') (A')
                 (A') (A') (A') (A') (A')
 The electronic state of the initial guess is 1-A'.
 Integral accuracy reduced to 1.0D-05 until final iterations.
 Initial convergence to 1.0D-05 achieved.  Increase integral accuracy.
 SCF Done:  E(RTPSSh) =  -226.226870175     A.U. after   14 cycles
             Convg  =    0.9311D-08             -V/T =  2.0069

 **********************************************************************

            Population analysis using the SCF density.

 **********************************************************************

 Orbital symmetries:
       Occupied  (A') (A') (A') (A') (A') (A') (A') (A') (A') (A')
                 (A') (A') (A') (A") (A') (A") (A') (A")
       Virtual   (A") (A") (A') (A') (A') (A') (A') (A') (A') (A')
                 (A') (A') (A") (A') (A") (A') (A") (A') (A') (A')
                 (A") (A') (A') (A") (A') (A') (A') (A') (A') (A')
                 (A') (A') (A") (A') (A") (A") (A') (A') (A") (A")
                 (A') (A') (A') (A') (A') (A') (A") (A") (A') (A')
                 (A") (A") (A') (A') (A") (A') (A') (A') (A') (A')
                 (A') (A') (A') (A') (A')
 The electronic state is 1-A'.
 Alpha  occ. eigenvalues --  -14.31776 -14.23141 -10.16354 -10.14251 -10.12230
 Alpha  occ. eigenvalues --   -0.99369  -0.84665  -0.72175  -0.59553  -0.56792
 Alpha  occ. eigenvalues --   -0.54451  -0.41839  -0.41667  -0.41128  -0.38413
 Alpha  occ. eigenvalues --   -0.26130  -0.24092  -0.21380
 Alpha virt. eigenvalues --    0.02994   0.07037   0.07842   0.13913   0.15660
 Alpha virt. eigenvalues --    0.17615   0.21938   0.24644   0.31010   0.35362
 Alpha virt. eigenvalues --    0.46054   0.51675   0.54226   0.56610   0.58907
 Alpha virt. eigenvalues --    0.61914   0.63958   0.64688   0.66517   0.68277
 Alpha virt. eigenvalues --    0.75979   0.80923   0.82468   0.84317   0.84498
 Alpha virt. eigenvalues --    0.87434   0.91249   0.92775   1.01063   1.03173
 Alpha virt. eigenvalues --    1.19394   1.25897   1.30611   1.32224   1.35227
 Alpha virt. eigenvalues --    1.37640   1.47097   1.53621   1.55094   1.56656
 Alpha virt. eigenvalues --    1.76746   1.88309   2.01259   2.05675   2.10385
 Alpha virt. eigenvalues --    2.14499   2.20715   2.26159   2.30679   2.31742
 Alpha virt. eigenvalues --    2.34736   2.43038   2.57462   2.61896   2.62422
 Alpha virt. eigenvalues --    2.72253   2.75666   2.99225   3.04923   3.11447
 Alpha virt. eigenvalues --    3.91086   4.04266   4.16462   4.25378   4.40404
          Condensed to atoms (all electrons):
 Mulliken atomic charges:
              1
     1  N   -0.437856
     2  H    0.345309
     3  C    0.001894
     4  H    0.175160
     5  C   -0.055294
     6  H    0.158820
     7  H    0.173925
     8  C    0.209275
     9  N   -0.571234
 Sum of Mulliken atomic charges =   0.00000
 Mulliken charges with hydrogens summed into heavy atoms:
              1
     1  N   -0.437856
     3  C    0.177054
     5  C    0.103526
     8  C    0.383200
     9  N   -0.225924
 Sum of Mulliken charges with hydrogens summed into heavy atoms =   0.00000
 Electronic spatial extent (au):  <R**2>=            279.1234
 Charge=              0.0000 electrons
 Dipole moment (field-independent basis, Debye):
    X=              1.1307    Y=              3.5091    Z=              0.0000  Tot=              3.6868
 Calling FoFJK, ICntrl=      2127 FMM=F ISym2X=1 I1Cent= 0 IOpClX= 0 NMat=1 NMatS=1 NMatT=0.

 GradGradGradGradGradGradGradGradGradGradGradGradGradGradGradGradGradGrad
 Internal  Forces:  Max     0.032480347 RMS     0.008675235
 Step number   1 out of a maximum of   48
 All quantities printed in internal units (Hartrees-Bohrs-Radians)
 Mixed Optimization -- RFO/linear search
 Second derivative matrix not updated -- first step.
 ITU=  0
     Eigenvalues ---    0.02198   0.02341   0.02379   0.02551   0.02603
     Eigenvalues ---    0.02705   0.16000   0.16000   0.16000   0.16000
     Eigenvalues ---    0.22000   0.22911   0.37115   0.37237   0.37427
     Eigenvalues ---    0.45111   0.47811   0.48902   0.51454   0.54834
     Eigenvalues ---    0.67122
 Linear search not attempted -- first point.
 Iteration  1 RMS(Cart)=  0.02034939 RMS(Int)=  0.00003387
 Iteration  2 RMS(Cart)=  0.00004171 RMS(Int)=  0.00000711
 Iteration  3 RMS(Cart)=  0.00000000 RMS(Int)=  0.00000711
 ClnCor:  largest displacement from symmetrization is 5.94D-12 for atom     4.
 Variable       Old X    -DE/DX   Delta X   Delta X   Delta X     New X
                                 (Linear)    (Quad)   (Total)
    R1        2.59131   0.01049   0.00000   0.02078   0.02078   2.61210
    R2        2.43585   0.03248   0.00000   0.04737   0.04739   2.48324
    R3        1.87690   0.01659   0.00000   0.03359   0.03359   1.91049
    R4        2.01907   0.00839   0.00000   0.02212   0.02212   2.04118
    R5        2.55164   0.02580   0.00000   0.04478   0.04477   2.59640
    R6        2.59299   0.01115   0.00000   0.02035   0.02034   2.61332
    R7        2.02190   0.00846   0.00000   0.02240   0.02240   2.04431
    R8        2.02373   0.00852   0.00000   0.02266   0.02266   2.04639
    R9        2.55007   0.01970   0.00000   0.03637   0.03637   2.58644
    A1        1.83847  -0.00276   0.00000  -0.00477  -0.00475   1.83372
    A2        2.31081   0.00036   0.00000   0.00722   0.00723   2.31804
    A3        2.13616  -0.00186   0.00000  -0.00623  -0.00622   2.12993
    A4        1.83622   0.00151   0.00000  -0.00099  -0.00101   1.83521
    A5        1.92817   0.00195   0.00000   0.00493   0.00492   1.93309
    A6        2.11874  -0.00136   0.00000  -0.00477  -0.00477   2.11397
    A7        2.23628  -0.00059   0.00000  -0.00015  -0.00015   2.23613
    A8        2.19228   0.00134   0.00000   0.00404   0.00404   2.19632
    A9        1.95834  -0.00164   0.00000  -0.00176  -0.00174   1.95659
   A10        2.13257   0.00030   0.00000  -0.00229  -0.00229   2.13028
   A11        2.21222  -0.00141   0.00000  -0.00697  -0.00696   2.20526
   A12        2.20738   0.00046   0.00000   0.00438   0.00438   2.21176
   A13        1.86359   0.00095   0.00000   0.00259   0.00258   1.86616
    D1        0.00000   0.00000   0.00000   0.00000   0.00000   0.00000
    D2        3.14159   0.00000   0.00000   0.00000   0.00000   3.14159
    D3        3.14159   0.00000   0.00000   0.00000   0.00000   3.14159
    D4        0.00000   0.00000   0.00000   0.00000   0.00000   0.00000
    D5        3.14159   0.00000   0.00000   0.00000   0.00000   3.14159
    D6        0.00000   0.00000   0.00000   0.00000   0.00000   0.00000
    D7        0.00000   0.00000   0.00000   0.00000   0.00000   0.00000
    D8        3.14159   0.00000   0.00000   0.00000   0.00000   3.14159
    D9        0.00000   0.00000   0.00000   0.00000   0.00000   0.00000
   D10        3.14159   0.00000   0.00000   0.00000   0.00000   3.14159
   D11        3.14159   0.00000   0.00000   0.00000   0.00000   3.14159
   D12        0.00000   0.00000   0.00000   0.00000   0.00000   0.00000
   D13        3.14159   0.00000   0.00000   0.00000   0.00000   3.14159
   D14        0.00000   0.00000   0.00000   0.00000   0.00000   0.00000
   D15        0.00000   0.00000   0.00000   0.00000   0.00000   0.00000
   D16        3.14159   0.00000   0.00000   0.00000   0.00000   3.14159
         Item               Value     Threshold  Converged?
 Maximum Force            0.032480     0.000450     NO 
 RMS     Force            0.008675     0.000300     NO 
 Maximum Displacement     0.052888     0.001800     NO 
 RMS     Displacement     0.020347     0.001200     NO 
 GradGradGradGradGradGradGradGradGradGradGradGradGradGradGradGradGradGrad

                    Distance matrix (angstroms):
                    1          2          3          4          5
     1  N    0.000000
     2  H    3.193992   0.000000
     3  C    2.268176   2.142889   0.000000
     4  H    3.331084   2.557150   1.080148   0.000000
     5  C    1.382261   3.172214   1.373958   2.252042   0.000000
     6  H    2.150971   4.207661   2.212048   2.776483   1.081801
     7  H    2.136788   2.550237   3.244212   4.224510   3.196832
     8  C    1.314073   2.133129   2.210810   3.239389   2.140469
     9  N    2.225683   1.010985   1.382911   2.159605   2.189373
                    6          7          8          9
     6  H    0.000000
     7  H    4.184693   0.000000
     8  C    3.166994   1.082901   0.000000
     9  N    3.248625   2.149250   1.368686   0.000000
 Framework group  CS[SG(C3H4N2)]
 Deg. of freedom    15
                         Standard orientation:                         
 ---------------------------------------------------------------------
 Center     Atomic      Atomic             Coordinates (Angstroms)
 Number     Number       Type             X           Y           Z
 ---------------------------------------------------------------------
      1          7           0       -0.745666   -0.987812    0.000000
      2          1           0       -0.009501    2.120186    0.000000
      3          6           0        1.121437    0.300034    0.000000
      4          1           0        2.121868    0.707288    0.000000
      5          6           0        0.636593   -0.985535    0.000000
      6          1           0        1.197251   -1.910715    0.000000
      7          1           0       -2.102409    0.662980    0.000000
      8          6           0       -1.089288    0.280539    0.000000
      9          7           0        0.000000    1.109245    0.000000
 ---------------------------------------------------------------------
 Rotational constants (GHZ):      9.7326954      9.3306581      4.7637187
    83 basis functions,   156 primitive gaussians,    83 cartesian basis functions
    18 alpha electrons       18 beta electrons
       nuclear repulsion energy       162.8155531135 Hartrees.
 NAtoms=    9 NActive=    9 NUniq=    9 SFac= 1.00D+00 NAtFMM=   50 NAOKFM=F Big=F
 Initial guess read from the read-write file.
 B after Tr=     0.000000    0.000000    0.000000
         Rot=    1.000000    0.000000    0.000000    0.000000 Ang=   0.00 deg.
 Initial guess orbital symmetries:
       Occupied  (A') (A') (A') (A') (A') (A') (A') (A') (A') (A')
                 (A') (A') (A') (A") (A') (A") (A') (A")
       Virtual   (A") (A") (A') (A') (A') (A') (A') (A') (A') (A')
                 (A') (A') (A") (A') (A") (A') (A") (A') (A') (A')
                 (A") (A') (A') (A") (A') (A') (A') (A') (A') (A')
                 (A') (A') (A") (A') (A") (A") (A') (A') (A") (A")
                 (A') (A') (A') (A') (A') (A') (A") (A") (A') (A')
                 (A") (A") (A') (A') (A") (A') (A') (A') (A') (A')
                 (A') (A') (A') (A') (A')
 Harris functional with IExCor= 1009 diagonalized for initial guess.
 ExpMin= 1.61D-01 ExpMax= 4.17D+03 ExpMxC= 6.27D+02 IAcc=1 IRadAn=         1 AccDes= 0.00D+00
 HarFok:  IExCor= 1009 AccDes= 0.00D+00 IRadAn=         1 IDoV= 1
 ScaDFX=  1.000000  1.000000  1.000000  1.000000
 FoFCou: FMM=F IPFlag=           0 FMFlag=      100000 FMFlg1=           0
         NFxFlg=           0 DoJE=T BraDBF=F KetDBF=T FulRan=T
         Omega=  0.000000  0.000000  1.000000  0.000000  0.000000 ICntrl=     500 IOpCl=  0
         NMat0=    1 NMatS0=    1 NMatT0=    0 NMatD0=    1 NMtDS0=    0 NMtDT0=    0
         I1Cent=           4 NGrid=           0.
 Petite list used in FoFCou.
 Integral accuracy reduced to 1.0D-05 until final iterations.
 Initial convergence to 1.0D-05 achieved.  Increase integral accuracy.
 SCF Done:  E(RTPSSh) =  -226.229320617     A.U. after   13 cycles
             Convg  =    0.4441D-08             -V/T =  2.0084
 Calling FoFJK, ICntrl=      2127 FMM=F ISym2X=1 I1Cent= 0 IOpClX= 0 NMat=1 NMatS=1 NMatT=0.

 GradGradGradGradGradGradGradGradGradGradGradGradGradGradGradGradGradGrad
 Using GEDIIS/GDIIS optimizer.
 Internal  Forces:  Max     0.002338664 RMS     0.000729195
 Step number   2 out of a maximum of   48
 All quantities printed in internal units (Hartrees-Bohrs-Radians)
 Mixed Optimization -- En-DIIS/RFO-DIIS
 Trust test= 9.63D-01 RLast= 9.65D-02 DXMaxT set to 3.00D-01
 ITU=  1  0
 Use linear search instead of GDIIS.
     Eigenvalues ---    0.02200   0.02342   0.02381   0.02553   0.02604
     Eigenvalues ---    0.02707   0.15954   0.16000   0.16000   0.16004
     Eigenvalues ---    0.21818   0.22909   0.37165   0.37341   0.37869
     Eigenvalues ---    0.45257   0.47870   0.49326   0.51885   0.57077
     Eigenvalues ---    0.64295
 Quartic linear search produced a step of -0.00849.
 Iteration  1 RMS(Cart)=  0.00216431 RMS(Int)=  0.00000312
 Iteration  2 RMS(Cart)=  0.00000383 RMS(Int)=  0.00000058
 Iteration  3 RMS(Cart)=  0.00000000 RMS(Int)=  0.00000058
 ClnCor:  largest displacement from symmetrization is 9.74D-12 for atom     4.
 Variable       Old X    -DE/DX   Delta X   Delta X   Delta X     New X
                                 (Linear)    (Quad)   (Total)
    R1        2.61210  -0.00154  -0.00018  -0.00262  -0.00279   2.60930
    R2        2.48324   0.00234  -0.00040   0.00451   0.00410   2.48734
    R3        1.91049  -0.00019  -0.00029   0.00024  -0.00005   1.91044
    R4        2.04118  -0.00049  -0.00019  -0.00090  -0.00109   2.04010
    R5        2.59640  -0.00087  -0.00038  -0.00112  -0.00150   2.59490
    R6        2.61332  -0.00151  -0.00017  -0.00286  -0.00303   2.61029
    R7        2.04431  -0.00052  -0.00019  -0.00098  -0.00117   2.04314
    R8        2.04639  -0.00101  -0.00019  -0.00228  -0.00247   2.04391
    R9        2.58644  -0.00066  -0.00031  -0.00027  -0.00057   2.58587
    A1        1.83372  -0.00060   0.00004  -0.00128  -0.00124   1.83248
    A2        2.31804   0.00064  -0.00006   0.00446   0.00440   2.32243
    A3        2.12993  -0.00011   0.00005  -0.00041  -0.00036   2.12957
    A4        1.83521  -0.00053   0.00001  -0.00404  -0.00404   1.83118
    A5        1.93309   0.00114  -0.00004   0.00430   0.00426   1.93735
    A6        2.11397  -0.00057   0.00004  -0.00221  -0.00217   2.11180
    A7        2.23613  -0.00057   0.00000  -0.00209  -0.00209   2.23403
    A8        2.19632   0.00057  -0.00003   0.00194   0.00190   2.19822
    A9        1.95659  -0.00120   0.00001  -0.00414  -0.00412   1.95247
   A10        2.13028   0.00063   0.00002   0.00220   0.00222   2.13250
   A11        2.20526  -0.00075   0.00006  -0.00368  -0.00362   2.20164
   A12        2.21176  -0.00043  -0.00004  -0.00148  -0.00152   2.21024
   A13        1.86616   0.00118  -0.00002   0.00516   0.00514   1.87130
    D1        0.00000   0.00000   0.00000   0.00000   0.00000   0.00000
    D2        3.14159   0.00000   0.00000   0.00000   0.00000   3.14159
    D3        3.14159   0.00000   0.00000   0.00000   0.00000   3.14159
    D4        0.00000   0.00000   0.00000   0.00000   0.00000   0.00000
    D5        3.14159   0.00000   0.00000   0.00000   0.00000   3.14159
    D6        0.00000   0.00000   0.00000   0.00000   0.00000   0.00000
    D7        0.00000   0.00000   0.00000   0.00000   0.00000   0.00000
    D8        3.14159   0.00000   0.00000   0.00000   0.00000   3.14159
    D9        0.00000   0.00000   0.00000   0.00000   0.00000   0.00000
   D10        3.14159   0.00000   0.00000   0.00000   0.00000   3.14159
   D11        3.14159   0.00000   0.00000   0.00000   0.00000   3.14159
   D12        0.00000   0.00000   0.00000   0.00000   0.00000   0.00000
   D13        3.14159   0.00000   0.00000   0.00000   0.00000   3.14159
   D14        0.00000   0.00000   0.00000   0.00000   0.00000   0.00000
   D15        0.00000   0.00000   0.00000   0.00000   0.00000   0.00000
   D16        3.14159   0.00000   0.00000   0.00000   0.00000   3.14159
         Item               Value     Threshold  Converged?
 Maximum Force            0.002339     0.000450     NO 
 RMS     Force            0.000729     0.000300     NO 
 Maximum Displacement     0.006021     0.001800     NO 
 RMS     Displacement     0.002164     0.001200     NO 
 GradGradGradGradGradGradGradGradGradGradGradGradGradGradGradGradGradGrad

                    Distance matrix (angstroms):
                    1          2          3          4          5
     1  N    0.000000
     2  H    3.192684   0.000000
     3  C    2.269630   2.139478   0.000000
     4  H    3.332294   2.551853   1.079572   0.000000
     5  C    1.380783   3.166647   1.373163   2.252901   0.000000
     6  H    2.147832   4.201280   2.209669   2.776708   1.081184
     7  H    2.138660   2.549885   3.245392   4.224113   3.195330
     8  C    1.316245   2.132035   2.213470   3.240772   2.139960
     9  N    2.224122   1.010959   1.381305   2.157456   2.184083
                    6          7          8          9
     6  H    0.000000
     7  H    4.182638   0.000000
     8  C    3.165745   1.081593   0.000000
     9  N    3.242693   2.149166   1.368382   0.000000
 Framework group  CS[SG(C3H4N2)]
 Deg. of freedom    15
                         Standard orientation:                         
 ---------------------------------------------------------------------
 Center     Atomic      Atomic             Coordinates (Angstroms)
 Number     Number       Type             X           Y           Z
 ---------------------------------------------------------------------
      1          7           0       -0.744585   -0.989261    0.000000
      2          1           0       -0.008646    2.117446    0.000000
      3          6           0        1.122370    0.301359    0.000000
      4          1           0        2.120989    0.711526    0.000000
      5          6           0        0.636183   -0.982852    0.000000
      6          1           0        1.197287   -1.907039    0.000000
      7          1           0       -2.102842    0.662710    0.000000
      8          6           0       -1.091002    0.280580    0.000000
      9          7           0        0.000000    1.106523    0.000000
 ---------------------------------------------------------------------
 Rotational constants (GHZ):      9.7407207      9.3368855      4.7672644
    83 basis functions,   156 primitive gaussians,    83 cartesian basis functions
    18 alpha electrons       18 beta electrons
       nuclear repulsion energy       162.8719467286 Hartrees.
 NAtoms=    9 NActive=    9 NUniq=    9 SFac= 1.00D+00 NAtFMM=   50 NAOKFM=F Big=F
 Initial guess read from the read-write file.
 B after Tr=     0.000000    0.000000    0.000000
         Rot=    1.000000    0.000000    0.000000    0.000000 Ang=   0.00 deg.
 Initial guess orbital symmetries:
       Occupied  (A') (A') (A') (A') (A') (A') (A') (A') (A') (A')
                 (A') (A') (A') (A") (A') (A") (A') (A")
       Virtual   (A") (A") (A') (A') (A') (A') (A') (A') (A') (A')
                 (A') (A') (A") (A') (A") (A') (A") (A') (A') (A')
                 (A") (A') (A') (A') (A") (A') (A') (A') (A') (A')
                 (A') (A') (A') (A") (A") (A") (A') (A') (A") (A")
                 (A') (A') (A') (A') (A') (A') (A") (A") (A') (A')
                 (A") (A") (A') (A") (A') (A') (A') (A') (A') (A')
                 (A') (A') (A') (A') (A')
 SCF Done:  E(RTPSSh) =  -226.229350878     A.U. after    9 cycles
             Convg  =    0.3211D-08             -V/T =  2.0084
 Calling FoFJK, ICntrl=      2127 FMM=F ISym2X=1 I1Cent= 0 IOpClX= 0 NMat=1 NMatS=1 NMatT=0.

 GradGradGradGradGradGradGradGradGradGradGradGradGradGradGradGradGradGrad
 Using GEDIIS/GDIIS optimizer.
 Internal  Forces:  Max     0.001214154 RMS     0.000308826
 Step number   3 out of a maximum of   48
 All quantities printed in internal units (Hartrees-Bohrs-Radians)
 Mixed Optimization -- En-DIIS/RFO-DIIS
 Swaping is turned off.
 Trust test= 1.13D+00 RLast= 1.33D-02 DXMaxT set to 3.00D-01
 ITU=  1  1  0
     Eigenvalues ---    0.02200   0.02341   0.02381   0.02553   0.02604
     Eigenvalues ---    0.02706   0.15306   0.16000   0.16001   0.16016
     Eigenvalues ---    0.22452   0.25279   0.35675   0.37388   0.37460
     Eigenvalues ---    0.41899   0.45689   0.49116   0.53824   0.54838
     Eigenvalues ---    0.61689
 En-DIIS/RFO-DIIS IScMMF=        0 using points:     3    2
 RFO step:  Lambda=-5.59002523D-06.
 DidBck=F Rises=F RFO-DIIS coefs:    1.14435   -0.14435
 Iteration  1 RMS(Cart)=  0.00085436 RMS(Int)=  0.00000038
 Iteration  2 RMS(Cart)=  0.00000036 RMS(Int)=  0.00000013
 ClnCor:  largest displacement from symmetrization is 1.66D-14 for atom     4.
 Variable       Old X    -DE/DX   Delta X   Delta X   Delta X     New X
                                  (DIIS)     (GDIIS)  (Total)
    R1        2.60930  -0.00108  -0.00040  -0.00237  -0.00277   2.60653
    R2        2.48734   0.00121   0.00059   0.00222   0.00281   2.49015
    R3        1.91044  -0.00003  -0.00001   0.00003   0.00003   1.91046
    R4        2.04010  -0.00017  -0.00016  -0.00045  -0.00061   2.03948
    R5        2.59490   0.00026  -0.00022   0.00058   0.00036   2.59527
    R6        2.61029  -0.00020  -0.00044  -0.00049  -0.00093   2.60936
    R7        2.04314   0.00003  -0.00017   0.00016   0.00000   2.04314
    R8        2.04391  -0.00020  -0.00036  -0.00058  -0.00093   2.04298
    R9        2.58587  -0.00076  -0.00008  -0.00144  -0.00152   2.58434
    A1        1.83248   0.00002  -0.00018   0.00043   0.00025   1.83273
    A2        2.32243  -0.00001   0.00063   0.00047   0.00110   2.32354
    A3        2.12957  -0.00029  -0.00005  -0.00162  -0.00168   2.12790
    A4        1.83118   0.00030  -0.00058   0.00116   0.00057   1.83175
    A5        1.93735  -0.00014   0.00061  -0.00083  -0.00022   1.93713
    A6        2.11180   0.00007  -0.00031   0.00039   0.00008   2.11188
    A7        2.23403   0.00007  -0.00030   0.00044   0.00014   2.23417
    A8        2.19822   0.00002   0.00027  -0.00005   0.00022   2.19844
    A9        1.95247  -0.00007  -0.00059  -0.00009  -0.00068   1.95179
   A10        2.13250   0.00005   0.00032   0.00014   0.00046   2.13295
   A11        2.20164   0.00006  -0.00052   0.00035  -0.00018   2.20147
   A12        2.21024   0.00005  -0.00022   0.00032   0.00010   2.21034
   A13        1.87130  -0.00012   0.00074  -0.00066   0.00008   1.87138
    D1        0.00000   0.00000   0.00000   0.00000   0.00000   0.00000
    D2        3.14159   0.00000   0.00000   0.00000   0.00000   3.14159
    D3        3.14159   0.00000   0.00000   0.00000   0.00000   3.14159
    D4        0.00000   0.00000   0.00000   0.00000   0.00000   0.00000
    D5        3.14159   0.00000   0.00000   0.00000   0.00000   3.14159
    D6        0.00000   0.00000   0.00000   0.00000   0.00000   0.00000
    D7        0.00000   0.00000   0.00000   0.00000   0.00000   0.00000
    D8        3.14159   0.00000   0.00000   0.00000   0.00000   3.14159
    D9        0.00000   0.00000   0.00000   0.00000   0.00000   0.00000
   D10        3.14159   0.00000   0.00000   0.00000   0.00000   3.14159
   D11        3.14159   0.00000   0.00000   0.00000   0.00000   3.14159
   D12        0.00000   0.00000   0.00000   0.00000   0.00000   0.00000
   D13        3.14159   0.00000   0.00000   0.00000   0.00000   3.14159
   D14        0.00000   0.00000   0.00000   0.00000   0.00000   0.00000
   D15        0.00000   0.00000   0.00000   0.00000   0.00000   0.00000
   D16        3.14159   0.00000   0.00000   0.00000   0.00000   3.14159
         Item               Value     Threshold  Converged?
 Maximum Force            0.001214     0.000450     NO 
 RMS     Force            0.000309     0.000300     NO 
 Maximum Displacement     0.002842     0.001800     NO 
 RMS     Displacement     0.000854     0.001200     YES
 GradGradGradGradGradGradGradGradGradGradGradGradGradGradGradGradGradGrad

                    Distance matrix (angstroms):
                    1          2          3          4          5
     1  N    0.000000
     2  H    3.192976   0.000000
     3  C    2.268408   2.138941   0.000000
     4  H    3.330881   2.549543   1.079249   0.000000
     5  C    1.379316   3.166848   1.373355   2.253321   0.000000
     6  H    2.146556   4.201363   2.209916   2.777685   1.081182
     7  H    2.139708   2.549300   3.244073   4.221851   3.194885
     8  C    1.317730   2.131354   2.212488   3.238991   2.140147
     9  N    2.224157   1.010973   1.380812   2.155756   2.184325
                    6          7          8          9
     6  H    0.000000
     7  H    4.182420   0.000000
     8  C    3.166153   1.081099   0.000000
     9  N    3.242869   2.148288   1.367576   0.000000
 Framework group  CS[SG(C3H4N2)]
 Deg. of freedom    15
                         Standard orientation:                         
 ---------------------------------------------------------------------
 Center     Atomic      Atomic             Coordinates (Angstroms)
 Number     Number       Type             X           Y           Z
 ---------------------------------------------------------------------
      1          7           0       -0.743647   -0.989672    0.000000
      2          1           0       -0.008082    2.117423    0.000000
      3          6           0        1.121662    0.301178    0.000000
      4          1           0        2.119451    0.712513    0.000000
      5          6           0        0.635654   -0.983307    0.000000
      6          1           0        1.196808   -1.907461    0.000000
      7          1           0       -2.102116    0.663480    0.000000
      8          6           0       -1.090738    0.281524    0.000000
      9          7           0        0.000000    1.106482    0.000000
 ---------------------------------------------------------------------
 Rotational constants (GHZ):      9.7453007      9.3386376      4.7688182
    83 basis functions,   156 primitive gaussians,    83 cartesian basis functions
    18 alpha electrons       18 beta electrons
       nuclear repulsion energy       162.8966622827 Hartrees.
 NAtoms=    9 NActive=    9 NUniq=    9 SFac= 1.00D+00 NAtFMM=   50 NAOKFM=F Big=F
 Initial guess read from the read-write file.
 B after Tr=     0.000000    0.000000    0.000000
         Rot=    1.000000    0.000000    0.000000    0.000000 Ang=   0.00 deg.
 Initial guess orbital symmetries:
       Occupied  (A') (A') (A') (A') (A') (A') (A') (A') (A') (A')
                 (A') (A') (A') (A") (A') (A") (A') (A")
       Virtual   (A") (A") (A') (A') (A') (A') (A') (A') (A') (A')
                 (A') (A') (A") (A') (A") (A') (A") (A') (A') (A')
                 (A") (A') (A') (A') (A") (A') (A') (A') (A') (A')
                 (A') (A') (A") (A') (A") (A") (A') (A') (A") (A")
                 (A') (A') (A') (A') (A') (A') (A") (A") (A') (A')
                 (A") (A") (A') (A") (A') (A') (A') (A') (A') (A')
                 (A') (A') (A') (A') (A')
 SCF Done:  E(RTPSSh) =  -226.229355295     A.U. after    9 cycles
             Convg  =    0.3379D-08             -V/T =  2.0083
 Calling FoFJK, ICntrl=      2127 FMM=F ISym2X=1 I1Cent= 0 IOpClX= 0 NMat=1 NMatS=1 NMatT=0.

 GradGradGradGradGradGradGradGradGradGradGradGradGradGradGradGradGradGrad
 Using GEDIIS/GDIIS optimizer.
 Internal  Forces:  Max     0.000174806 RMS     0.000061661
 Step number   4 out of a maximum of   48
 All quantities printed in internal units (Hartrees-Bohrs-Radians)
 Mixed Optimization -- En-DIIS/RFO-DIIS
 Swaping is turned off.
 Trust test= 9.94D-01 RLast= 5.04D-03 DXMaxT set to 3.00D-01
 ITU=  1  1  1  0
     Eigenvalues ---    0.02200   0.02341   0.02382   0.02554   0.02603
     Eigenvalues ---    0.02706   0.14733   0.16000   0.16015   0.16303
     Eigenvalues ---    0.21803   0.24211   0.37125   0.37437   0.38305
     Eigenvalues ---    0.43484   0.45953   0.48995   0.52557   0.55622
     Eigenvalues ---    0.61618
 En-DIIS/RFO-DIIS IScMMF=        0 using points:     4    3    2
 RFO step:  Lambda=-2.38483052D-07.
 DidBck=F Rises=F RFO-DIIS coefs:    0.98455    0.03020   -0.01474
 Iteration  1 RMS(Cart)=  0.00018025 RMS(Int)=  0.00000004
 Iteration  2 RMS(Cart)=  0.00000004 RMS(Int)=  0.00000002
 ClnCor:  largest displacement from symmetrization is 1.93D-12 for atom     4.
 Variable       Old X    -DE/DX   Delta X   Delta X   Delta X     New X
                                  (DIIS)     (GDIIS)  (Total)
    R1        2.60653  -0.00009   0.00000  -0.00031  -0.00030   2.60623
    R2        2.49015  -0.00006   0.00002   0.00002   0.00003   2.49018
    R3        1.91046  -0.00003   0.00000  -0.00007  -0.00007   1.91040
    R4        2.03948   0.00009  -0.00001   0.00021   0.00021   2.03969
    R5        2.59527   0.00017  -0.00003   0.00039   0.00036   2.59563
    R6        2.60936   0.00011  -0.00003   0.00021   0.00018   2.60954
    R7        2.04314   0.00005  -0.00002   0.00015   0.00014   2.04327
    R8        2.04298   0.00011  -0.00002   0.00026   0.00024   2.04322
    R9        2.58434  -0.00013   0.00002  -0.00034  -0.00033   2.58402
    A1        1.83273   0.00004  -0.00002   0.00010   0.00008   1.83280
    A2        2.32354   0.00005   0.00005   0.00016   0.00021   2.32374
    A3        2.12790   0.00007   0.00002   0.00017   0.00019   2.12808
    A4        1.83175  -0.00012  -0.00007  -0.00033  -0.00039   1.83136
    A5        1.93713   0.00000   0.00007   0.00006   0.00013   1.93726
    A6        2.11188   0.00005  -0.00003   0.00026   0.00023   2.11211
    A7        2.23417  -0.00005  -0.00003  -0.00032  -0.00035   2.23382
    A8        2.19844  -0.00009   0.00002  -0.00047  -0.00045   2.19799
    A9        1.95179   0.00002  -0.00005  -0.00004  -0.00009   1.95170
   A10        2.13295   0.00007   0.00003   0.00051   0.00054   2.13349
   A11        2.20147  -0.00002  -0.00005  -0.00007  -0.00012   2.20134
   A12        2.21034  -0.00003  -0.00002  -0.00014  -0.00016   2.21018
   A13        1.87138   0.00006   0.00007   0.00021   0.00029   1.87166
    D1        0.00000   0.00000   0.00000   0.00000   0.00000   0.00000
    D2        3.14159   0.00000   0.00000   0.00000   0.00000   3.14159
    D3        3.14159   0.00000   0.00000   0.00000   0.00000   3.14159
    D4        0.00000   0.00000   0.00000   0.00000   0.00000   0.00000
    D5        3.14159   0.00000   0.00000   0.00000   0.00000   3.14159
    D6        0.00000   0.00000   0.00000   0.00000   0.00000   0.00000
    D7        0.00000   0.00000   0.00000   0.00000   0.00000   0.00000
    D8        3.14159   0.00000   0.00000   0.00000   0.00000   3.14159
    D9        0.00000   0.00000   0.00000   0.00000   0.00000   0.00000
   D10        3.14159   0.00000   0.00000   0.00000   0.00000   3.14159
   D11        3.14159   0.00000   0.00000   0.00000   0.00000   3.14159
   D12        0.00000   0.00000   0.00000   0.00000   0.00000   0.00000
   D13        3.14159   0.00000   0.00000   0.00000   0.00000   3.14159
   D14        0.00000   0.00000   0.00000   0.00000   0.00000   0.00000
   D15        0.00000   0.00000   0.00000   0.00000   0.00000   0.00000
   D16        3.14159   0.00000   0.00000   0.00000   0.00000   3.14159
         Item               Value     Threshold  Converged?
 Maximum Force            0.000175     0.000450     YES
 RMS     Force            0.000062     0.000300     YES
 Maximum Displacement     0.000586     0.001800     YES
 RMS     Displacement     0.000180     0.001200     YES
 Optimization completed.
    -- Stationary point found.
                           ----------------------------
                           !   Optimized Parameters   !
                           ! (Angstroms and Degrees)  !
 --------------------------                            --------------------------
 ! Name  Definition              Value          Derivative Info.                !
 --------------------------------------------------------------------------------
 ! R1    R(1,5)                  1.3793         -DE/DX =   -0.0001              !
 ! R2    R(1,8)                  1.3177         -DE/DX =   -0.0001              !
 ! R3    R(2,9)                  1.011          -DE/DX =    0.0                 !
 ! R4    R(3,4)                  1.0792         -DE/DX =    0.0001              !
 ! R5    R(3,5)                  1.3734         -DE/DX =    0.0002              !
 ! R6    R(3,9)                  1.3808         -DE/DX =    0.0001              !
 ! R7    R(5,6)                  1.0812         -DE/DX =    0.0001              !
 ! R8    R(7,8)                  1.0811         -DE/DX =    0.0001              !
 ! R9    R(8,9)                  1.3676         -DE/DX =   -0.0001              !
 ! A1    A(5,1,8)              105.0075         -DE/DX =    0.0                 !
 ! A2    A(4,3,5)              133.1288         -DE/DX =    0.0001              !
 ! A3    A(4,3,9)              121.9195         -DE/DX =    0.0001              !
 ! A4    A(5,3,9)              104.9516         -DE/DX =   -0.0001              !
 ! A5    A(1,5,3)              110.9895         -DE/DX =    0.0                 !
 ! A6    A(1,5,6)              121.0021         -DE/DX =    0.0                 !
 ! A7    A(3,5,6)              128.0085         -DE/DX =    0.0                 !
 ! A8    A(1,8,7)              125.9614         -DE/DX =   -0.0001              !
 ! A9    A(1,8,9)              111.8294         -DE/DX =    0.0                 !
 ! A10   A(7,8,9)              122.2092         -DE/DX =    0.0001              !
 ! A11   A(2,9,3)              126.1347         -DE/DX =    0.0                 !
 ! A12   A(2,9,8)              126.6432         -DE/DX =    0.0                 !
 ! A13   A(3,9,8)              107.222          -DE/DX =    0.0001              !
 ! D1    D(8,1,5,3)              0.0            -DE/DX =    0.0                 !
 ! D2    D(8,1,5,6)            180.0            -DE/DX =    0.0                 !
 ! D3    D(5,1,8,7)            180.0            -DE/DX =    0.0                 !
 ! D4    D(5,1,8,9)              0.0            -DE/DX =    0.0                 !
 ! D5    D(4,3,5,1)            180.0            -DE/DX =    0.0                 !
 ! D6    D(4,3,5,6)              0.0            -DE/DX =    0.0                 !
 ! D7    D(9,3,5,1)              0.0            -DE/DX =    0.0                 !
 ! D8    D(9,3,5,6)            180.0            -DE/DX =    0.0                 !
 ! D9    D(4,3,9,2)              0.0            -DE/DX =    0.0                 !
 ! D10   D(4,3,9,8)            180.0            -DE/DX =    0.0                 !
 ! D11   D(5,3,9,2)            180.0            -DE/DX =    0.0                 !
 ! D12   D(5,3,9,8)              0.0            -DE/DX =    0.0                 !
 ! D13   D(1,8,9,2)            180.0            -DE/DX =    0.0                 !
 ! D14   D(1,8,9,3)              0.0            -DE/DX =    0.0                 !
 ! D15   D(7,8,9,2)              0.0            -DE/DX =    0.0                 !
 ! D16   D(7,8,9,3)            180.0            -DE/DX =    0.0                 !
 --------------------------------------------------------------------------------
 GradGradGradGradGradGradGradGradGradGradGradGradGradGradGradGradGradGrad

                    Distance matrix (angstroms):
                    1          2          3          4          5
     1  N    0.000000
     2  H    3.192976   0.000000
     3  C    2.268408   2.138941   0.000000
     4  H    3.330881   2.549543   1.079249   0.000000
     5  C    1.379316   3.166848   1.373355   2.253321   0.000000
     6  H    2.146556   4.201363   2.209916   2.777685   1.081182
     7  H    2.139708   2.549300   3.244073   4.221851   3.194885
     8  C    1.317730   2.131354   2.212488   3.238991   2.140147
     9  N    2.224157   1.010973   1.380812   2.155756   2.184325
                    6          7          8          9
     6  H    0.000000
     7  H    4.182420   0.000000
     8  C    3.166153   1.081099   0.000000
     9  N    3.242869   2.148288   1.367576   0.000000
 Framework group  CS[SG(C3H4N2)]
 Deg. of freedom    15
                         Standard orientation:                         
 ---------------------------------------------------------------------
 Center     Atomic      Atomic             Coordinates (Angstroms)
 Number     Number       Type             X           Y           Z
 ---------------------------------------------------------------------
      1          7           0       -0.743647   -0.989672    0.000000
      2          1           0       -0.008082    2.117423    0.000000
      3          6           0        1.121662    0.301178    0.000000
      4          1           0        2.119451    0.712513    0.000000
      5          6           0        0.635654   -0.983307    0.000000
      6          1           0        1.196808   -1.907461    0.000000
      7          1           0       -2.102116    0.663480    0.000000
      8          6           0       -1.090738    0.281524    0.000000
      9          7           0        0.000000    1.106482    0.000000
 ---------------------------------------------------------------------
 Rotational constants (GHZ):      9.7453007      9.3386376      4.7688182

 **********************************************************************

            Population analysis using the SCF density.

 **********************************************************************

 Orbital symmetries:
       Occupied  (A') (A') (A') (A') (A') (A') (A') (A') (A') (A')
                 (A') (A') (A') (A") (A') (A") (A') (A")
       Virtual   (A") (A") (A') (A') (A') (A') (A') (A') (A') (A')
                 (A') (A') (A") (A') (A") (A') (A") (A') (A') (A')
                 (A") (A') (A') (A') (A") (A') (A') (A') (A') (A')
                 (A') (A') (A") (A') (A") (A") (A') (A') (A") (A")
                 (A') (A') (A') (A') (A') (A') (A") (A") (A') (A')
                 (A") (A") (A') (A") (A') (A') (A') (A') (A') (A')
                 (A') (A') (A') (A') (A')
 The electronic state is 1-A'.
 Alpha  occ. eigenvalues --  -14.32247 -14.23760 -10.16975 -10.14793 -10.12823
 Alpha  occ. eigenvalues --   -0.98291  -0.84096  -0.71580  -0.59255  -0.56408
 Alpha  occ. eigenvalues --   -0.53937  -0.41662  -0.41444  -0.40485  -0.38193
 Alpha  occ. eigenvalues --   -0.26048  -0.24357  -0.21091
 Alpha virt. eigenvalues --    0.02277   0.06351   0.07242   0.13369   0.15150
 Alpha virt. eigenvalues --    0.17187   0.21422   0.23543   0.30479   0.34937
 Alpha virt. eigenvalues --    0.44683   0.52090   0.54467   0.55961   0.59161
 Alpha virt. eigenvalues --    0.60916   0.63848   0.64032   0.65497   0.66771
 Alpha virt. eigenvalues --    0.75830   0.80767   0.82317   0.83615   0.84050
 Alpha virt. eigenvalues --    0.86291   0.90704   0.92412   0.99934   1.02071
 Alpha virt. eigenvalues --    1.18411   1.24669   1.31506   1.31636   1.34963
 Alpha virt. eigenvalues --    1.37191   1.46504   1.52406   1.54106   1.55831
 Alpha virt. eigenvalues --    1.76280   1.86266   1.99191   2.02593   2.07278
 Alpha virt. eigenvalues --    2.11163   2.20296   2.24054   2.27210   2.29502
 Alpha virt. eigenvalues --    2.33103   2.41023   2.56343   2.59124   2.61169
 Alpha virt. eigenvalues --    2.69973   2.73932   2.95839   3.00449   3.07543
 Alpha virt. eigenvalues --    3.89319   4.01547   4.14689   4.25237   4.39903
          Condensed to atoms (all electrons):
 Mulliken atomic charges:
              1
     1  N   -0.438534
     2  H    0.348736
     3  C   -0.001335
     4  H    0.177429
     5  C   -0.053612
     6  H    0.160995
     7  H    0.178067
     8  C    0.201519
     9  N   -0.573265
 Sum of Mulliken atomic charges =   0.00000
 Mulliken charges with hydrogens summed into heavy atoms:
              1
     1  N   -0.438534
     3  C    0.176094
     5  C    0.107383
     8  C    0.379586
     9  N   -0.224529
 Sum of Mulliken charges with hydrogens summed into heavy atoms =   0.00000
 Electronic spatial extent (au):  <R**2>=            284.7333
 Charge=              0.0000 electrons
 Dipole moment (field-independent basis, Debye):
    X=              1.1251    Y=              3.5607    Z=              0.0000  Tot=              3.7342
 1\1\GINC-N371\FOpt\RTPSSh\6-31G(d)\C3H4N2\RDJ3\05-Feb-2013\0\\#TPSSh/6
 -31G(d) opt freq\\1himidaz 1H-Imidazole casno=288324 state=1 config=1 
 method=75 basis=1\\0,1\N,-0.7480056967,-0.9920257633,0.\H,-0.003259304
 2,2.1128817346,0.\C,1.1211117632,0.2933049923,0.\H,2.1201114041,0.7016
 892468,0.\C,0.6313088481,-0.9897375378,0.\H,1.1897284225,-1.9155459856
 ,0.\H,-2.1015817017,0.6651347352,0.\C,-1.0913373116,0.2801912699,0.\N,
 0.0018345764,1.1019213078,0.\\Version=EM64L-G09RevB.01\State=1-A'\HF=-
 226.2293553\RMSD=3.379e-09\RMSF=1.130e-04\Dipole=0.4467878,1.3995612,0
 .\Quadrupole=0.9993315,1.8144292,-2.8137608,-2.3406757,0.,0.\PG=CS [SG
 (C3H4N2)]\\@


 UNDER MOST GREENE GRASSE LY MOST GREATE SNAKES.
 -- PROVERBS AND REASONS OF THE YEAR 1585
           AS REPRINTED IN PAISLEY MAGAZINE 1828.
 Job cpu time:  0 days  0 hours  1 minutes 45.6 seconds.
 File lengths (MBytes):  RWF=      9 Int=      0 D2E=      0 Chk=      2 Scr=      1
 Normal termination of Gaussian 09 at Tue Feb  5 18:15:16 2013.
 Link1:  Proceeding to internal job step number  2.
 --------------------------------------------------------------------
 #T Geom=AllCheck Guess=TCheck SCRF=Check GenChk RTPSSh/6-31G(d) Freq
 --------------------------------------------------------------------
 ---------------------------------------------------------------------
 1himidaz 1H-Imidazole casno=288324 state=1 config=1 method=75 basis=1
 ---------------------------------------------------------------------
 Redundant internal coordinates taken from checkpoint file:
 /tmp/rdj3/g09-4782/Gau-4838.chk
 Charge =  0 Multiplicity = 1
 N,0,-0.7480056967,-0.9920257633,0.
 H,0,-0.0032593042,2.1128817346,0.
 C,0,1.1211117632,0.2933049923,0.
 H,0,2.1201114041,0.7016892468,0.
 C,0,0.6313088481,-0.9897375378,0.
 H,0,1.1897284225,-1.9155459856,0.
 H,0,-2.1015817017,0.6651347352,0.
 C,0,-1.0913373116,0.2801912699,0.
 N,0,0.0018345764,1.1019213078,0.
 Recover connectivity data from disk.

 GradGradGradGradGradGradGradGradGradGradGradGradGradGradGradGradGradGrad
 Initialization pass.
                           ----------------------------
                           !    Initial Parameters    !
                           ! (Angstroms and Degrees)  !
 --------------------------                            --------------------------
 ! Name  Definition              Value          Derivative Info.                !
 --------------------------------------------------------------------------------
 ! R1    R(1,5)                  1.3793         calculate D2E/DX2 analytically  !
 ! R2    R(1,8)                  1.3177         calculate D2E/DX2 analytically  !
 ! R3    R(2,9)                  1.011          calculate D2E/DX2 analytically  !
 ! R4    R(3,4)                  1.0792         calculate D2E/DX2 analytically  !
 ! R5    R(3,5)                  1.3734         calculate D2E/DX2 analytically  !
 ! R6    R(3,9)                  1.3808         calculate D2E/DX2 analytically  !
 ! R7    R(5,6)                  1.0812         calculate D2E/DX2 analytically  !
 ! R8    R(7,8)                  1.0811         calculate D2E/DX2 analytically  !
 ! R9    R(8,9)                  1.3676         calculate D2E/DX2 analytically  !
 ! A1    A(5,1,8)              105.0075         calculate D2E/DX2 analytically  !
 ! A2    A(4,3,5)              133.1288         calculate D2E/DX2 analytically  !
 ! A3    A(4,3,9)              121.9195         calculate D2E/DX2 analytically  !
 ! A4    A(5,3,9)              104.9516         calculate D2E/DX2 analytically  !
 ! A5    A(1,5,3)              110.9895         calculate D2E/DX2 analytically  !
 ! A6    A(1,5,6)              121.0021         calculate D2E/DX2 analytically  !
 ! A7    A(3,5,6)              128.0085         calculate D2E/DX2 analytically  !
 ! A8    A(1,8,7)              125.9614         calculate D2E/DX2 analytically  !
 ! A9    A(1,8,9)              111.8294         calculate D2E/DX2 analytically  !
 ! A10   A(7,8,9)              122.2092         calculate D2E/DX2 analytically  !
 ! A11   A(2,9,3)              126.1347         calculate D2E/DX2 analytically  !
 ! A12   A(2,9,8)              126.6432         calculate D2E/DX2 analytically  !
 ! A13   A(3,9,8)              107.222          calculate D2E/DX2 analytically  !
 ! D1    D(8,1,5,3)              0.0            calculate D2E/DX2 analytically  !
 ! D2    D(8,1,5,6)            180.0            calculate D2E/DX2 analytically  !
 ! D3    D(5,1,8,7)            180.0            calculate D2E/DX2 analytically  !
 ! D4    D(5,1,8,9)              0.0            calculate D2E/DX2 analytically  !
 ! D5    D(4,3,5,1)            180.0            calculate D2E/DX2 analytically  !
 ! D6    D(4,3,5,6)              0.0            calculate D2E/DX2 analytically  !
 ! D7    D(9,3,5,1)              0.0            calculate D2E/DX2 analytically  !
 ! D8    D(9,3,5,6)            180.0            calculate D2E/DX2 analytically  !
 ! D9    D(4,3,9,2)              0.0            calculate D2E/DX2 analytically  !
 ! D10   D(4,3,9,8)            180.0            calculate D2E/DX2 analytically  !
 ! D11   D(5,3,9,2)            180.0            calculate D2E/DX2 analytically  !
 ! D12   D(5,3,9,8)              0.0            calculate D2E/DX2 analytically  !
 ! D13   D(1,8,9,2)            180.0            calculate D2E/DX2 analytically  !
 ! D14   D(1,8,9,3)              0.0            calculate D2E/DX2 analytically  !
 ! D15   D(7,8,9,2)              0.0            calculate D2E/DX2 analytically  !
 ! D16   D(7,8,9,3)            180.0            calculate D2E/DX2 analytically  !
 --------------------------------------------------------------------------------
 Number of steps in this run=      2 maximum allowed number of steps=      2.
 GradGradGradGradGradGradGradGradGradGradGradGradGradGradGradGradGradGrad

                    Distance matrix (angstroms):
                    1          2          3          4          5
     1  N    0.000000
     2  H    3.192976   0.000000
     3  C    2.268408   2.138941   0.000000
     4  H    3.330881   2.549543   1.079249   0.000000
     5  C    1.379316   3.166848   1.373355   2.253321   0.000000
     6  H    2.146556   4.201363   2.209916   2.777685   1.081182
     7  H    2.139708   2.549300   3.244073   4.221851   3.194885
     8  C    1.317730   2.131354   2.212488   3.238991   2.140147
     9  N    2.224157   1.010973   1.380812   2.155756   2.184325
                    6          7          8          9
     6  H    0.000000
     7  H    4.182420   0.000000
     8  C    3.166153   1.081099   0.000000
     9  N    3.242869   2.148288   1.367576   0.000000
 Framework group  CS[SG(C3H4N2)]
 Deg. of freedom    15
                         Standard orientation:                         
 ---------------------------------------------------------------------
 Center     Atomic      Atomic             Coordinates (Angstroms)
 Number     Number       Type             X           Y           Z
 ---------------------------------------------------------------------
      1          7           0       -0.743647   -0.989672    0.000000
      2          1           0       -0.008082    2.117423    0.000000
      3          6           0        1.121662    0.301178    0.000000
      4          1           0        2.119451    0.712513    0.000000
      5          6           0        0.635654   -0.983307    0.000000
      6          1           0        1.196808   -1.907461    0.000000
      7          1           0       -2.102116    0.663480    0.000000
      8          6           0       -1.090738    0.281524    0.000000
      9          7           0        0.000000    1.106482    0.000000
 ---------------------------------------------------------------------
 Rotational constants (GHZ):      9.7453007      9.3386376      4.7688182
    83 basis functions,   156 primitive gaussians,    83 cartesian basis functions
    18 alpha electrons       18 beta electrons
       nuclear repulsion energy       162.8966622827 Hartrees.
 NAtoms=    9 NActive=    9 NUniq=    9 SFac= 1.00D+00 NAtFMM=   50 NAOKFM=F Big=F
 Initial guess read from the checkpoint file:  /tmp/rdj3/g09-4782/Gau-4838.chk
 B after Tr=     0.000000    0.000000    0.000000
         Rot=    1.000000    0.000000    0.000000    0.000000 Ang=   0.00 deg.
 Initial guess orbital symmetries:
       Occupied  (A') (A') (A') (A') (A') (A') (A') (A') (A') (A')
                 (A') (A') (A') (A") (A') (A") (A') (A")
       Virtual   (A") (A") (A') (A') (A') (A') (A') (A') (A') (A')
                 (A') (A') (A") (A') (A") (A') (A") (A') (A') (A')
                 (A") (A') (A') (A') (A") (A') (A') (A') (A') (A')
                 (A') (A') (A") (A') (A") (A") (A') (A') (A") (A")
                 (A') (A') (A') (A') (A') (A') (A") (A") (A') (A')
                 (A") (A") (A') (A") (A') (A') (A') (A') (A') (A')
                 (A') (A') (A') (A') (A')
 SCF Done:  E(RTPSSh) =  -226.229355295     A.U. after    1 cycles
             Convg  =    0.1416D-08             -V/T =  2.0083
 NROrb=     83 NOA=    18 NOB=    18 NVA=    65 NVB=    65
 Symmetrizing basis deriv contribution to polar:
 IMax=3 JMax=2 DiffMx= 0.00D+00
 Calling FoFCou, ICntrl=  3107 FMM=F I1Cent=   0 AccDes= 0.00D+00.
 End of G2Drv Frequency-dependent properties file   721 does not exist.
 End of G2Drv Frequency-dependent properties file   722 does not exist.
          IDoAtm=111111111
 End of Minotr Frequency-dependent properties file   721 does not exist.
 End of Minotr Frequency-dependent properties file   722 does not exist.

 **********************************************************************

            Population analysis using the SCF density.

 **********************************************************************

 Orbital symmetries:
       Occupied  (A') (A') (A') (A') (A') (A') (A') (A') (A') (A')
                 (A') (A') (A') (A") (A') (A") (A') (A")
       Virtual   (A") (A") (A') (A') (A') (A') (A') (A') (A') (A')
                 (A') (A') (A") (A') (A") (A') (A") (A') (A') (A')
                 (A") (A') (A') (A') (A") (A') (A') (A') (A') (A')
                 (A') (A') (A") (A') (A") (A") (A') (A') (A") (A")
                 (A') (A') (A') (A') (A') (A') (A") (A") (A') (A')
                 (A") (A") (A') (A") (A') (A') (A') (A') (A') (A')
                 (A') (A') (A') (A') (A')
 The electronic state is 1-A'.
 Alpha  occ. eigenvalues --  -14.32247 -14.23760 -10.16975 -10.14793 -10.12823
 Alpha  occ. eigenvalues --   -0.98291  -0.84096  -0.71580  -0.59255  -0.56408
 Alpha  occ. eigenvalues --   -0.53937  -0.41662  -0.41444  -0.40485  -0.38193
 Alpha  occ. eigenvalues --   -0.26048  -0.24357  -0.21091
 Alpha virt. eigenvalues --    0.02277   0.06351   0.07242   0.13369   0.15150
 Alpha virt. eigenvalues --    0.17187   0.21422   0.23543   0.30479   0.34937
 Alpha virt. eigenvalues --    0.44683   0.52090   0.54467   0.55961   0.59161
 Alpha virt. eigenvalues --    0.60916   0.63848   0.64032   0.65497   0.66771
 Alpha virt. eigenvalues --    0.75830   0.80767   0.82317   0.83615   0.84050
 Alpha virt. eigenvalues --    0.86291   0.90704   0.92412   0.99934   1.02071
 Alpha virt. eigenvalues --    1.18411   1.24669   1.31506   1.31636   1.34963
 Alpha virt. eigenvalues --    1.37191   1.46504   1.52406   1.54106   1.55831
 Alpha virt. eigenvalues --    1.76280   1.86266   1.99191   2.02593   2.07278
 Alpha virt. eigenvalues --    2.11163   2.20296   2.24054   2.27210   2.29502
 Alpha virt. eigenvalues --    2.33103   2.41023   2.56343   2.59124   2.61169
 Alpha virt. eigenvalues --    2.69973   2.73932   2.95839   3.00449   3.07543
 Alpha virt. eigenvalues --    3.89319   4.01547   4.14689   4.25237   4.39903
          Condensed to atoms (all electrons):
 Mulliken atomic charges:
              1
     1  N   -0.438535
     2  H    0.348736
     3  C   -0.001335
     4  H    0.177429
     5  C   -0.053612
     6  H    0.160995
     7  H    0.178067
     8  C    0.201520
     9  N   -0.573265
 Sum of Mulliken atomic charges =   0.00000
 Mulliken charges with hydrogens summed into heavy atoms:
              1
     1  N   -0.438535
     3  C    0.176094
     5  C    0.107383
     8  C    0.379587
     9  N   -0.224529
 Sum of Mulliken charges with hydrogens summed into heavy atoms =   0.00000
 APT atomic charges:
              1
     1  N   -0.419701
     2  H    0.226200
     3  C    0.030702
     4  H    0.067089
     5  C    0.079677
     6  H    0.044070
     7  H    0.052640
     8  C    0.232997
     9  N   -0.313674
 Sum of APT charges=   0.00000
 APT Atomic charges with hydrogens summed into heavy atoms:
              1
     1  N   -0.419701
     2  H    0.000000
     3  C    0.097791
     4  H    0.000000
     5  C    0.123747
     6  H    0.000000
     7  H    0.000000
     8  C    0.285637
     9  N   -0.087474
 Sum of APT charges=   0.00000
 Electronic spatial extent (au):  <R**2>=            284.7333
 Charge=              0.0000 electrons
 Dipole moment (field-independent basis, Debye):
    X=              1.1251    Y=              3.5607    Z=              0.0000  Tot=              3.7342
  Exact polarizability:  48.137  -1.248  46.345   0.000   0.000  17.673
 Approx polarizability:  80.779   2.139  84.271   0.000   0.000  26.779
 Calling FoFJK, ICntrl=    100127 FMM=F ISym2X=1 I1Cent= 0 IOpClX= 0 NMat=1 NMatS=1 NMatT=0.
 Full mass-weighted force constant matrix:
 Low frequencies ---  -20.6122  -15.8420   -6.2885    0.0007    0.0008    0.0011
 Low frequencies ---  509.9496  640.8718  679.3616
 Harmonic frequencies (cm**-1), IR intensities (KM/Mole), Raman scattering
 activities (A**4/AMU), depolarization ratios for plane and unpolarized
 incident light, reduced masses (AMU), force constants (mDyne/A),
 and normal coordinates:
                     1                      2                      3
                    A"                     A"                     A"
 Frequencies --   509.9495               640.8716               679.3615
 Red. masses --     1.6272                 2.5212                 3.0204
 Frc consts  --     0.2493                 0.6101                 0.8213
 IR Inten    --    94.4544                17.3685                 1.5682
  Atom  AN      X      Y      Z        X      Y      Z        X      Y      Z
     1   7     0.00   0.00  -0.01     0.00   0.00   0.09     0.00   0.00   0.27
     2   1     0.00   0.00   0.95     0.00   0.00  -0.74     0.00   0.00   0.57
     3   6     0.00   0.00   0.08     0.00   0.00   0.25     0.00   0.00   0.01
     4   1     0.00   0.00   0.10     0.00   0.00   0.35     0.00   0.00  -0.17
     5   6     0.00   0.00   0.00     0.00   0.00  -0.22     0.00   0.00  -0.14
     6   1     0.00   0.00  -0.11     0.00   0.00  -0.38     0.00   0.00  -0.41
     7   1     0.00   0.00   0.17     0.00   0.00   0.23     0.00   0.00  -0.56
     8   6     0.00   0.00   0.07     0.00   0.00   0.04     0.00   0.00  -0.26
     9   7     0.00   0.00  -0.20     0.00   0.00  -0.12     0.00   0.00   0.09
                     4                      5                      6
                    A"                     A"                     A"
 Frequencies --   714.2295               791.6029               850.3388
 Red. masses --     1.2106                 1.2836                 1.2745
 Frc consts  --     0.3639                 0.4739                 0.5430
 IR Inten    --    20.9781                40.1214                 8.7763
  Atom  AN      X      Y      Z        X      Y      Z        X      Y      Z
     1   7     0.00   0.00   0.03     0.00   0.00   0.03     0.00   0.00  -0.01
     2   1     0.00   0.00   0.04     0.00   0.00   0.07     0.00   0.00  -0.10
     3   6     0.00   0.00  -0.11     0.00   0.00  -0.04     0.00   0.00  -0.05
     4   1     0.00   0.00   0.92     0.00   0.00   0.30     0.00   0.00   0.26
     5   6     0.00   0.00  -0.05     0.00   0.00  -0.01     0.00   0.00   0.15
     6   1     0.00   0.00   0.18     0.00   0.00   0.22     0.00   0.00  -0.94
     7   1     0.00   0.00  -0.32     0.00   0.00   0.91     0.00   0.00   0.11
     8   6     0.00   0.00   0.05     0.00   0.00  -0.15     0.00   0.00  -0.02
     9   7     0.00   0.00   0.00     0.00   0.00   0.03     0.00   0.00   0.00
                     7                      8                      9
                    A'                     A'                     A'
 Frequencies --   891.6004               933.6403              1084.4009
 Red. masses --     5.4442                 4.7679                 1.5892
 Frc consts  --     2.5499                 2.4487                 1.1011
 IR Inten    --     8.4457                 1.7357                32.3612
  Atom  AN      X      Y      Z        X      Y      Z        X      Y      Z
     1   7     0.27   0.29   0.00    -0.03   0.14   0.00    -0.07  -0.05   0.00
     2   1     0.39   0.00   0.00    -0.05  -0.38   0.00     0.13  -0.07   0.00
     3   6    -0.18  -0.16   0.00     0.28   0.07   0.00    -0.12   0.06   0.00
     4   1    -0.33   0.20   0.00     0.08   0.58   0.00    -0.38   0.70   0.00
     5   6     0.18  -0.26   0.00     0.03   0.14   0.00     0.05  -0.08   0.00
     6   1    -0.08  -0.42   0.00    -0.30  -0.05   0.00     0.18   0.00   0.00
     7   1    -0.30  -0.24   0.00    -0.13   0.31   0.00     0.25   0.44   0.00
     8   6    -0.16   0.13   0.00    -0.22   0.04   0.00     0.10   0.06   0.00
     9   7    -0.12  -0.01   0.00    -0.02  -0.38   0.00     0.03  -0.06   0.00
                    10                     11                     12
                    A'                     A'                     A'
 Frequencies --  1108.1333              1159.7545              1170.9356
 Red. masses --     1.5380                 1.3632                 6.4982
 Frc consts  --     1.1128                 1.0803                 5.2494
 IR Inten    --    19.0735                 3.1402                 4.5172
  Atom  AN      X      Y      Z        X      Y      Z        X      Y      Z
     1   7    -0.03  -0.04   0.00    -0.01  -0.05   0.00     0.33   0.06   0.00
     2   1     0.73  -0.02   0.00     0.46   0.09   0.00     0.27  -0.24   0.00
     3   6    -0.08   0.00   0.00     0.05   0.07   0.00    -0.27   0.06   0.00
     4   1    -0.01  -0.21   0.00    -0.11   0.49   0.00    -0.21  -0.18   0.00
     5   6     0.05   0.08   0.00    -0.05  -0.03   0.00    -0.39   0.20   0.00
     6   1     0.49   0.35   0.00    -0.47  -0.28   0.00    -0.49   0.17   0.00
     7   1    -0.14   0.00   0.00    -0.18  -0.42   0.00     0.22  -0.09   0.00
     8   6    -0.14  -0.01   0.00    -0.05  -0.06   0.00     0.19  -0.05   0.00
     9   7     0.10  -0.03   0.00     0.07   0.08   0.00     0.08  -0.22   0.00
                    13                     14                     15
                    A'                     A'                     A'
 Frequencies --  1290.0755              1380.1987              1451.9140
 Red. masses --     1.3789                 3.3084                 3.0270
 Frc consts  --     1.3521                 3.7132                 3.7596
 IR Inten    --     0.4547                 8.2066                15.4301
  Atom  AN      X      Y      Z        X      Y      Z        X      Y      Z
     1   7     0.08  -0.09   0.00     0.18  -0.15   0.00    -0.01  -0.08   0.00
     2   1     0.15   0.05   0.00    -0.17   0.08   0.00     0.88   0.01   0.00
     3   6    -0.01   0.06   0.00     0.15  -0.08   0.00     0.09  -0.16   0.00
     4   1     0.13  -0.28   0.00    -0.05   0.46   0.00     0.00   0.07   0.00
     5   6     0.03  -0.01   0.00    -0.24  -0.09   0.00     0.03   0.14   0.00
     6   1    -0.41  -0.28   0.00     0.59   0.39   0.00    -0.19   0.03   0.00
     7   1     0.18   0.76   0.00    -0.14   0.19   0.00     0.12  -0.04   0.00
     8   6    -0.10   0.00   0.00    -0.12   0.17   0.00     0.15   0.10   0.00
     9   7    -0.01   0.04   0.00    -0.02   0.07   0.00    -0.28   0.00   0.00
                    16                     17                     18
                    A'                     A'                     A'
 Frequencies --  1519.7067              1571.9318              3267.8215
 Red. masses --     3.1489                 3.1634                 1.0913
 Frc consts  --     4.2848                 4.6054                 6.8661
 IR Inten    --    18.9679                11.4888                 8.6270
  Atom  AN      X      Y      Z        X      Y      Z        X      Y      Z
     1   7    -0.02  -0.12   0.00    -0.01   0.16   0.00     0.00   0.00   0.00
     2   1     0.10  -0.14   0.00     0.57   0.01   0.00     0.00  -0.01   0.00
     3   6    -0.02   0.25   0.00     0.11   0.19   0.00    -0.03  -0.01   0.00
     4   1     0.30  -0.51   0.00     0.30  -0.16   0.00     0.33   0.13   0.00
     5   6     0.02  -0.13   0.00    -0.13  -0.21   0.00     0.04  -0.07   0.00
     6   1    -0.02  -0.19   0.00     0.49   0.12   0.00    -0.47   0.79   0.00
     7   1    -0.27  -0.57   0.00     0.24   0.24   0.00    -0.11   0.04   0.00
     8   6     0.05   0.28   0.00     0.06  -0.18   0.00     0.01   0.00   0.00
     9   7    -0.03  -0.12   0.00    -0.13   0.00   0.00     0.00   0.00   0.00
                    19                     20                     21
                    A'                     A'                     A'
 Frequencies --  3275.7478              3299.1585              3634.2397
 Red. masses --     1.0961                 1.1040                 1.0813
 Frc consts  --     6.9297                 7.0796                 8.4146
 IR Inten    --     3.9966                 4.3087                36.6169
  Atom  AN      X      Y      Z        X      Y      Z        X      Y      Z
     1   7     0.00   0.00   0.00     0.00   0.00   0.00     0.00   0.00   0.00
     2   1    -0.01   0.02   0.00    -0.01  -0.02   0.00    -0.01   1.00   0.00
     3   6    -0.01   0.00   0.00    -0.08  -0.04   0.00     0.00   0.00   0.00
     4   1     0.10   0.04   0.00     0.86   0.35   0.00     0.02   0.00   0.00
     5   6     0.01  -0.01   0.00    -0.01   0.03   0.00     0.00   0.00   0.00
     6   1    -0.04   0.07   0.00     0.18  -0.31   0.00     0.00   0.00   0.00
     7   1     0.93  -0.34   0.00    -0.06   0.02   0.00    -0.02   0.00   0.00
     8   6    -0.08   0.03   0.00     0.01   0.00   0.00     0.00   0.00   0.00
     9   7     0.00   0.00   0.00     0.00   0.00   0.00     0.00  -0.07   0.00
 
 Temperature   298.150 Kelvin.  Pressure   1.00000 Atm.
 Zero-point correction=                           0.071137 (Hartree/Particle)
 Thermal correction to Energy=                    0.074926
 Thermal correction to Enthalpy=                  0.075870
 Thermal correction to Gibbs Free Energy=         0.044852
 Sum of electronic and zero-point Energies=           -226.158218
 Sum of electronic and thermal Energies=              -226.154429
 Sum of electronic and thermal Enthalpies=            -226.153485
 Sum of electronic and thermal Free Energies=         -226.184504

 GradGradGradGradGradGradGradGradGradGradGradGradGradGradGradGradGradGrad
 Internal  Forces:  Max     0.000174797 RMS     0.000061661
 Step number   1 out of a maximum of    2
 All quantities printed in internal units (Hartrees-Bohrs-Radians)
 Second derivative matrix not updated -- analytic derivatives used.
 ITU=  0
     Eigenvalues ---    0.00497   0.01029   0.01916   0.02731   0.05809
     Eigenvalues ---    0.06065   0.09899   0.10554   0.11181   0.12009
     Eigenvalues ---    0.22837   0.24252   0.34760   0.37553   0.37791
     Eigenvalues ---    0.38126   0.40975   0.44694   0.46975   0.47755
     Eigenvalues ---    0.57516
 Angle between quadratic step and forces=  30.28 degrees.
 Linear search not attempted -- first point.
 Iteration  1 RMS(Cart)=  0.00022984 RMS(Int)=  0.00000007
 Iteration  2 RMS(Cart)=  0.00000008 RMS(Int)=  0.00000001
 ClnCor:  largest displacement from symmetrization is 2.44D-11 for atom     8.
 Variable       Old X    -DE/DX   Delta X   Delta X   Delta X     New X
                                 (Linear)    (Quad)   (Total)
    R1        2.60653  -0.00009   0.00000  -0.00040  -0.00040   2.60613
    R2        2.49015  -0.00006   0.00000   0.00000   0.00000   2.49014
    R3        1.91046  -0.00003   0.00000  -0.00006  -0.00006   1.91040
    R4        2.03948   0.00009   0.00000   0.00021   0.00021   2.03970
    R5        2.59527   0.00017   0.00000   0.00049   0.00049   2.59576
    R6        2.60936   0.00011   0.00000   0.00033   0.00033   2.60969
    R7        2.04314   0.00005   0.00000   0.00017   0.00017   2.04330
    R8        2.04298   0.00011   0.00000   0.00029   0.00029   2.04327
    R9        2.58434  -0.00013   0.00000  -0.00049  -0.00049   2.58385
    A1        1.83273   0.00004   0.00000   0.00006   0.00006   1.83279
    A2        2.32354   0.00005   0.00000   0.00025   0.00025   2.32379
    A3        2.12790   0.00007   0.00000   0.00022   0.00022   2.12811
    A4        1.83175  -0.00012   0.00000  -0.00047  -0.00047   1.83128
    A5        1.93713   0.00000   0.00000   0.00014   0.00014   1.93727
    A6        2.11188   0.00005   0.00000   0.00046   0.00046   2.11234
    A7        2.23417  -0.00005   0.00000  -0.00059  -0.00059   2.23358
    A8        2.19844  -0.00009   0.00000  -0.00072  -0.00072   2.19772
    A9        1.95179   0.00002   0.00000   0.00002   0.00002   1.95181
   A10        2.13295   0.00007   0.00000   0.00070   0.00070   2.13365
   A11        2.20147  -0.00002   0.00000  -0.00008  -0.00008   2.20138
   A12        2.21034  -0.00003   0.00000  -0.00017  -0.00017   2.21018
   A13        1.87138   0.00006   0.00000   0.00025   0.00025   1.87163
    D1        0.00000   0.00000   0.00000   0.00000   0.00000   0.00000
    D2        3.14159   0.00000   0.00000   0.00000   0.00000   3.14159
    D3        3.14159   0.00000   0.00000   0.00000   0.00000   3.14159
    D4        0.00000   0.00000   0.00000   0.00000   0.00000   0.00000
    D5        3.14159   0.00000   0.00000   0.00000   0.00000   3.14159
    D6        0.00000   0.00000   0.00000   0.00000   0.00000   0.00000
    D7        0.00000   0.00000   0.00000   0.00000   0.00000   0.00000
    D8        3.14159   0.00000   0.00000   0.00000   0.00000   3.14159
    D9        0.00000   0.00000   0.00000   0.00000   0.00000   0.00000
   D10        3.14159   0.00000   0.00000   0.00000   0.00000   3.14159
   D11        3.14159   0.00000   0.00000   0.00000   0.00000   3.14159
   D12        0.00000   0.00000   0.00000   0.00000   0.00000   0.00000
   D13        3.14159   0.00000   0.00000   0.00000   0.00000   3.14159
   D14        0.00000   0.00000   0.00000   0.00000   0.00000   0.00000
   D15        0.00000   0.00000   0.00000   0.00000   0.00000   0.00000
   D16        3.14159   0.00000   0.00000   0.00000   0.00000   3.14159
         Item               Value     Threshold  Converged?
 Maximum Force            0.000175     0.000450     YES
 RMS     Force            0.000062     0.000300     YES
 Maximum Displacement     0.000693     0.001800     YES
 RMS     Displacement     0.000230     0.001200     YES
 Optimization completed.
    -- Stationary point found.
                           ----------------------------
                           !   Optimized Parameters   !
                           ! (Angstroms and Degrees)  !
 --------------------------                            --------------------------
 ! Name  Definition              Value          Derivative Info.                !
 --------------------------------------------------------------------------------
 ! R1    R(1,5)                  1.3793         -DE/DX =   -0.0001              !
 ! R2    R(1,8)                  1.3177         -DE/DX =   -0.0001              !
 ! R3    R(2,9)                  1.011          -DE/DX =    0.0                 !
 ! R4    R(3,4)                  1.0792         -DE/DX =    0.0001              !
 ! R5    R(3,5)                  1.3734         -DE/DX =    0.0002              !
 ! R6    R(3,9)                  1.3808         -DE/DX =    0.0001              !
 ! R7    R(5,6)                  1.0812         -DE/DX =    0.0001              !
 ! R8    R(7,8)                  1.0811         -DE/DX =    0.0001              !
 ! R9    R(8,9)                  1.3676         -DE/DX =   -0.0001              !
 ! A1    A(5,1,8)              105.0075         -DE/DX =    0.0                 !
 ! A2    A(4,3,5)              133.1288         -DE/DX =    0.0001              !
 ! A3    A(4,3,9)              121.9195         -DE/DX =    0.0001              !
 ! A4    A(5,3,9)              104.9516         -DE/DX =   -0.0001              !
 ! A5    A(1,5,3)              110.9895         -DE/DX =    0.0                 !
 ! A6    A(1,5,6)              121.0021         -DE/DX =    0.0                 !
 ! A7    A(3,5,6)              128.0085         -DE/DX =    0.0                 !
 ! A8    A(1,8,7)              125.9614         -DE/DX =   -0.0001              !
 ! A9    A(1,8,9)              111.8294         -DE/DX =    0.0                 !
 ! A10   A(7,8,9)              122.2092         -DE/DX =    0.0001              !
 ! A11   A(2,9,3)              126.1347         -DE/DX =    0.0                 !
 ! A12   A(2,9,8)              126.6432         -DE/DX =    0.0                 !
 ! A13   A(3,9,8)              107.222          -DE/DX =    0.0001              !
 ! D1    D(8,1,5,3)              0.0            -DE/DX =    0.0                 !
 ! D2    D(8,1,5,6)            180.0            -DE/DX =    0.0                 !
 ! D3    D(5,1,8,7)            180.0            -DE/DX =    0.0                 !
 ! D4    D(5,1,8,9)              0.0            -DE/DX =    0.0                 !
 ! D5    D(4,3,5,1)            180.0            -DE/DX =    0.0                 !
 ! D6    D(4,3,5,6)              0.0            -DE/DX =    0.0                 !
 ! D7    D(9,3,5,1)              0.0            -DE/DX =    0.0                 !
 ! D8    D(9,3,5,6)            180.0            -DE/DX =    0.0                 !
 ! D9    D(4,3,9,2)              0.0            -DE/DX =    0.0                 !
 ! D10   D(4,3,9,8)            180.0            -DE/DX =    0.0                 !
 ! D11   D(5,3,9,2)            180.0            -DE/DX =    0.0                 !
 ! D12   D(5,3,9,8)              0.0            -DE/DX =    0.0                 !
 ! D13   D(1,8,9,2)            180.0            -DE/DX =    0.0                 !
 ! D14   D(1,8,9,3)              0.0            -DE/DX =    0.0                 !
 ! D15   D(7,8,9,2)              0.0            -DE/DX =    0.0                 !
 ! D16   D(7,8,9,3)            180.0            -DE/DX =    0.0                 !
 --------------------------------------------------------------------------------
 GradGradGradGradGradGradGradGradGradGradGradGradGradGradGradGradGradGrad

 1\1\GINC-N371\Freq\RTPSSh\6-31G(d)\C3H4N2\RDJ3\05-Feb-2013\0\\#T Geom=
 AllCheck Guess=TCheck SCRF=Check GenChk RTPSSh/6-31G(d) Freq\\1himidaz
  1H-Imidazole casno=288324 state=1 config=1 method=75 basis=1\\0,1\N,-
 0.7480056967,-0.9920257633,0.\H,-0.0032593042,2.1128817346,0.\C,1.1211
 117632,0.2933049923,0.\H,2.1201114041,0.7016892468,0.\C,0.6313088481,-
 0.9897375378,0.\H,1.1897284225,-1.9155459856,0.\H,-2.1015817017,0.6651
 347352,0.\C,-1.0913373116,0.2801912699,0.\N,0.0018345764,1.1019213078,
 0.\\Version=EM64L-G09RevB.01\State=1-A'\HF=-226.2293553\RMSD=1.416e-09
 \RMSF=1.130e-04\ZeroPoint=0.0711372\Thermal=0.0749259\Dipole=0.4467877
 ,1.3995612,0.\DipoleDeriv=-0.4018755,-0.0624314,0.,-0.0667913,-0.55891
 49,0.,0.,0.,-0.298313,0.1803097,-0.0061493,0.,-0.0058538,0.1581473,0.,
 0.,0.,0.3401416,-0.0240324,-0.1718425,0.,0.0243093,0.2378246,0.,0.,0.,
 -0.121687,-0.0237503,-0.0388012,0.,-0.0683697,0.0504728,0.,0.,0.,0.174
 5454,0.1676645,-0.0611959,0.,-0.0779431,0.1793365,0.,0.,0.,-0.1079696,
 0.0190534,0.0730724,0.,0.0841788,-0.0241522,0.,0.,0.,0.1373081,-0.0258
 83,0.0538862,0.,0.0588848,0.0366829,0.,0.,0.,0.1471204,0.1950544,0.178
 9586,0.,0.0959138,0.4997948,0.,0.,0.,0.0041418,-0.0865408,0.0345031,0.
 ,-0.0443289,-0.5791919,0.,0.,0.,-0.2752878\Polar=48.1291133,-1.2527808
 ,46.3528144,0.,0.,17.6731298\PG=CS [SG(C3H4N2)]\NImag=0\\0.47049590,-0
 .03883605,0.59091166,0.,0.,0.10174345,-0.00582785,-0.00816421,0.,0.058
 59471,-0.00247549,-0.00192380,0.,-0.00293335,0.46956663,0.,0.,0.007302
 16,0.,0.,0.01122770,-0.05394261,-0.00338523,0.,0.01278810,-0.00664135,
 0.,0.81214890,-0.07613565,0.00158665,0.,0.02519107,-0.00576337,0.,0.14
 223143,0.67296156,0.,0.,0.01544540,0.,0.,-0.00803265,0.,0.,0.10151263,
 0.00018735,-0.00015262,0.,-0.00009480,0.00024322,0.,-0.31704798,-0.105
 82080,0.,0.33486347,-0.00582411,-0.00468783,0.,-0.00088308,0.00033736,
 0.,-0.11669316,-0.10688490,0.,0.11430666,0.09719044,0.,0.,0.00744056,0
 .,0.,-0.00105845,0.,0.,-0.01882966,0.,0.,0.01775051,-0.27233927,-0.000
 21390,0.,-0.00803795,0.00023599,0.,-0.12726126,-0.08329051,0.,0.000500
 07,-0.02148942,0.,0.59917820,-0.01198818,-0.09735320,0.,0.00565756,-0.
 00119179,0.,-0.09997017,-0.36565291,0.,0.00193651,0.00757867,0.,-0.102
 93625,0.85939764,0.,0.,-0.06753807,0.,0.,0.00219034,0.,0.,-0.05983527,
 0.,0.,-0.00276015,0.,0.,0.12673369,-0.01516763,0.02757296,0.,0.0011938
 0,-0.00023045,0.,0.01148987,-0.01032273,0.,-0.00016490,0.00066790,0.,-
 0.12835120,0.12600683,0.,0.13938637,-0.00018903,0.00787382,0.,0.001151
 57,-0.00001836,0.,0.01604802,-0.01049806,0.,-0.00050425,-0.00032198,0.
 ,0.12857693,-0.28602456,0.,-0.14103763,0.29217741,0.,0.,-0.00577901,0.
 ,0.,0.00218911,0.,0.,-0.00138157,0.,0.,-0.00188634,0.,0.,-0.02747000,0
 .,0.,0.02275885,-0.00008602,0.00412622,0.,-0.00056821,-0.00036732,0.,-
 0.00071743,-0.00437483,0.,-0.00042627,0.00080320,0.,0.00159130,0.00086
 294,0.,-0.00000043,-0.00005692,0.,0.33804372,0.02980769,-0.00695219,0.
 ,0.00067603,0.00022167,0.,-0.00225740,-0.00482464,0.,-0.00077442,0.001
 20587,0.,0.00143512,-0.00578770,0.,0.00173260,0.00040440,0.,-0.1049074
 8,0.09713398,0.,0.,-0.00615334,0.,0.,-0.00116424,0.,0.,0.00247463,0.,0
 .,0.00204913,0.,0.,0.00691340,0.,0.,0.00131608,0.,0.,0.01988691,-0.114
 77825,0.06605586,0.,0.01661227,0.00823306,0.,-0.09342865,0.02552554,0.
 ,-0.00183862,0.00318232,0.,-0.06302401,0.02830790,0.,-0.00735011,-0.00
 177944,0.,-0.32013603,0.09852499,0.,0.83880125,0.09187800,-0.39020703,
 0.,-0.02275858,-0.00822275,0.,-0.02682191,-0.00439501,0.,0.00279631,-0
 .00753080,0.,0.08694550,-0.02684236,0.,-0.00020812,0.00088813,0.,0.093
 68568,-0.09351645,0.,-0.13184991,0.69651693,0.,0.,-0.07286860,0.,0.,-0
 .00946556,0.,0.,0.01622388,0.,0.,0.00249006,0.,0.,0.00947120,0.,0.,0.0
 0531246,0.,0.,-0.02220596,0.,0.,0.12543269,-0.00854164,-0.04700302,0.,
 -0.07466008,0.00393570,0.,-0.24402893,0.08699647,0.,-0.01597831,0.0259
 2969,0.,-0.00225588,0.05212285,0.,-0.00103576,-0.00220925,0.,-0.017700
 63,-0.02423713,0.,-0.25485785,-0.09366697,0.,0.61905908,0.01376282,-0.
 09924808,0.,0.00206299,-0.45300559,0.,0.09748976,-0.17652932,0.,-0.012
 03061,0.01311317,0.,-0.00926345,-0.08412378,0.,-0.00418135,-0.00448082
 ,0.,0.01022851,0.01211505,0.,-0.09620032,-0.16669066,0.,-0.00186835,0.
 95885002,0.,0.,0.02040745,0.,0.,-0.00318841,0.,0.,-0.04757739,0.,0.,-0
 .00519565,0.,0.,0.01229487,0.,0.,0.00494041,0.,0.,-0.00311662,0.,0.,-0
 .05439015,0.,0.,0.07582549\\-0.00005057,-0.00008300,0.,0.00000766,0.00
 003516,0.,-0.00020615,-0.00012890,0.,-0.00008793,-0.00002791,0.,0.0003
 0030,0.00014361,0.,-0.00007055,0.00002090,0.,0.00013208,0.00003641,0.,
 -0.00024553,-0.00010445,0.,0.00022069,0.00010819,0.\\\@


 Standing in the middle of the road is very dangerous;
 you get knocked down by the traffic from both sides.
                                -- Margaret Thatcher
 Job cpu time:  0 days  0 hours  2 minutes  6.8 seconds.
 File lengths (MBytes):  RWF=     12 Int=      0 D2E=      0 Chk=      2 Scr=      1
 Normal termination of Gaussian 09 at Tue Feb  5 18:15:32 2013.
