 Entering Gaussian System, Link 0=g98
 Initial command:
 /usr/local/apps/g98a6/g98/l1.exe /wrk/rdj3/Gau-17584.inp -scrdir=/wrk/rdj3/
 Entering Link 1 = /usr/local/apps/g98a6/g98/l1.exe PID=     15744.
  
 Copyright (c) 1988,1990,1992,1993,1995,1998 Gaussian, Inc.
                  All Rights Reserved.
  
 This is part of the Gaussian(R) 98 program.  It is based on
 the Gaussian 94(TM) system (copyright 1995 Gaussian, Inc.),
 the Gaussian 92(TM) system (copyright 1992 Gaussian, Inc.),
 the Gaussian 90(TM) system (copyright 1990 Gaussian, Inc.),
 the Gaussian 88(TM) system (copyright 1988 Gaussian, Inc.),
 the Gaussian 86(TM) system (copyright 1986 Carnegie Mellon
 University), and the Gaussian 82(TM) system (copyright 1983
 Carnegie Mellon University). Gaussian is a federally registered
 trademark of Gaussian, Inc.
  
 This software contains proprietary and confidential information,
 including trade secrets, belonging to Gaussian, Inc.
  
 This software is provided under written license and may be
 used, copied, transmitted, or stored only in accord with that
 written license.
  
 The following legend is applicable only to US Government
 contracts under DFARS:
  
                    RESTRICTED RIGHTS LEGEND
  
 Use, duplication or disclosure by the US Government is subject
 to restrictions as set forth in subparagraph (c)(1)(ii) of the
 Rights in Technical Data and Computer Software clause at DFARS
 252.227-7013.
  
 Gaussian, Inc.
 Carnegie Office Park, Building 6, Pittsburgh, PA 15106 USA
  
 The following legend is applicable only to US Government
 contracts under FAR:
  
                    RESTRICTED RIGHTS LEGEND
  
 Use, reproduction and disclosure by the US Government is subject
 to restrictions as set forth in subparagraph (c) of the
 Commercial Computer Software - Restricted Rights clause at FAR
 52.227-19.
  
 Gaussian, Inc.
 Carnegie Office Park, Building 6, Pittsburgh, PA 15106 USA
  
  
 ---------------------------------------------------------------
 Warning -- This program may not be used in any manner that
 competes with the business of Gaussian, Inc. or will provide
 assistance to any competitor of Gaussian, Inc.  The licensee
 of this program is prohibited from giving any competitor of
 Gaussian, Inc. access to this program.  By using this program,
 the user acknowledges that Gaussian, Inc. is engaged in the
 business of creating and licensing software in the field of
 computational chemistry and represents and warrants to the
 licensee that it is not a competitor of Gaussian, Inc. and that
 it will not use this program in any manner prohibited above.
 ---------------------------------------------------------------
  

 Cite this work as:
 Gaussian 98, Revision A.6,
 M. J. Frisch, G. W. Trucks, H. B. Schlegel, G. E. Scuseria, 
 M. A. Robb, J. R. Cheeseman, V. G. Zakrzewski, J. A. Montgomery, Jr., 
 R. E. Stratmann, J. C. Burant, S. Dapprich, J. M. Millam, 
 A. D. Daniels, K. N. Kudin, M. C. Strain, O. Farkas, J. Tomasi, 
 V. Barone, M. Cossi, R. Cammi, B. Mennucci, C. Pomelli, C. Adamo, 
 S. Clifford, J. Ochterski, G. A. Petersson, P. Y. Ayala, Q. Cui, 
 K. Morokuma, D. K. Malick, A. D. Rabuck, K. Raghavachari, 
 J. B. Foresman, J. Cioslowski, J. V. Ortiz, B. B. Stefanov, G. Liu, 
 A. Liashenko, P. Piskorz, I. Komaromi, R. Gomperts, R. L. Martin, 
 D. J. Fox, T. Keith, M. A. Al-Laham, C. Y. Peng, A. Nanayakkara, 
 C. Gonzalez, M. Challacombe, P. M. W. Gill, B. Johnson, W. Chen, 
 M. W. Wong, J. L. Andres, C. Gonzalez, M. Head-Gordon, 
 E. S. Replogle, and J. A. Pople, 
 Gaussian, Inc., Pittsburgh PA, 1998.

 **********************************************
 Gaussian 98:  IBM-RS6000-G98RevA.6 19-Oct-1998
                  10-Sep-2000 
 **********************************************
 %mem=24000000
 -----------------------
 #B3LYP/CEP-31G opt freq
 -----------------------
 1/14=-1,18=20,26=3,38=1/1,3;
 2/9=110,17=6,18=5/2;
 3/5=9,6=1,11=2,16=1,25=1,30=1/1,2,3;
 4/11=1/1;
 5/5=2,38=4,42=-5/2;
 6/7=2,8=2,9=2,10=2,28=1/1;
 7//1,2,3,16;
 1/14=-1,18=20/3(1);
 99//99;
 2/9=110/2;
 3/5=9,6=1,11=2,16=1,25=1,30=1/1,2,3;
 4/5=5,11=1,16=2/1;
 5/5=2,38=4,42=-5/2;
 7//1,2,3,16;
 1/14=-1,18=20/3(-5);
 2/9=110/2;
 6/7=2,8=2,9=2,10=2,19=2,28=1/1;
 99/9=1/99;
 --------------------------------
 1H imidazole C3H4N2 casno=288324
 --------------------------------
 Symbolic Z-matrix:
 Charge =  0 Multiplicity = 1
 N                     0.30938   0.        1.30938 
 H                     0.3125    0.       -1.6875 
 C                    -1.06875   0.       -0.28438 
 H                    -1.91875   0.       -0.79063 
 C                    -0.93438   0.        1.02812 
 H                    -1.675     0.        1.6875 
 H                     1.91875   0.        0.09063 
 C                     0.93438   0.        0.19063 
 N                     0.09688   0.       -0.775 

 GradGradGradGradGradGradGradGradGradGradGradGradGradGradGradGradGradGrad
 Berny optimization.
 Initialization pass.
                         ----------------------------
                         !    Initial Parameters    !
                         ! (Angstroms and Degrees)  !
 ------------------------                            -------------------------
 ! Name  Definition              Value          Derivative Info.             !
 -----------------------------------------------------------------------------
 ! R1    R(1,5)                  1.2752         estimate D2E/DX2             !
 ! R2    R(1,8)                  1.2815         estimate D2E/DX2             !
 ! R3    R(2,9)                  0.9376         estimate D2E/DX2             !
 ! R4    R(3,4)                  0.9893         estimate D2E/DX2             !
 ! R5    R(3,5)                  1.3194         estimate D2E/DX2             !
 ! R6    R(3,9)                  1.2647         estimate D2E/DX2             !
 ! R7    R(5,6)                  0.9916         estimate D2E/DX2             !
 ! R8    R(7,8)                  0.9894         estimate D2E/DX2             !
 ! R9    R(8,9)                  1.2782         estimate D2E/DX2             !
 ! A1    A(5,1,8)              106.4483         estimate D2E/DX2             !
 ! A2    A(4,3,5)              126.6232         estimate D2E/DX2             !
 ! A3    A(4,3,9)              126.3957         estimate D2E/DX2             !
 ! A4    A(5,3,9)              106.9812         estimate D2E/DX2             !
 ! A5    A(1,5,3)              108.5877         estimate D2E/DX2             !
 ! A6    A(1,5,6)              125.5794         estimate D2E/DX2             !
 ! A7    A(3,5,6)              125.8329         estimate D2E/DX2             !
 ! A8    A(1,8,7)              124.9909         estimate D2E/DX2             !
 ! A9    A(1,8,9)              109.8741         estimate D2E/DX2             !
 ! A10   A(7,8,9)              125.1349         estimate D2E/DX2             !
 ! A11   A(2,9,3)              126.122          estimate D2E/DX2             !
 ! A12   A(2,9,8)              125.7693         estimate D2E/DX2             !
 ! A13   A(3,9,8)              108.1088         estimate D2E/DX2             !
 ! D1    D(8,1,5,3)              0.             estimate D2E/DX2             !
 ! D2    D(8,1,5,6)            180.             estimate D2E/DX2             !
 ! D3    D(5,1,8,7)            180.             estimate D2E/DX2             !
 ! D4    D(5,1,8,9)              0.             estimate D2E/DX2             !
 ! D5    D(4,3,5,1)            180.             estimate D2E/DX2             !
 ! D6    D(4,3,5,6)              0.             estimate D2E/DX2             !
 ! D7    D(9,3,5,1)              0.             estimate D2E/DX2             !
 ! D8    D(9,3,5,6)            180.             estimate D2E/DX2             !
 ! D9    D(4,3,9,2)              0.             estimate D2E/DX2             !
 ! D10   D(4,3,9,8)            180.             estimate D2E/DX2             !
 ! D11   D(5,3,9,2)            180.             estimate D2E/DX2             !
 ! D12   D(5,3,9,8)              0.             estimate D2E/DX2             !
 ! D13   D(1,8,9,2)            180.             estimate D2E/DX2             !
 ! D14   D(1,8,9,3)              0.             estimate D2E/DX2             !
 ! D15   D(7,8,9,2)              0.             estimate D2E/DX2             !
 ! D16   D(7,8,9,3)            180.             estimate D2E/DX2             !
 -----------------------------------------------------------------------------
 Trust Radius=3.00D-01 FncErr=1.00D-07 GrdErr=1.00D-06
 Number of steps in this run=  48 maximum allowed number of steps= 100.
 GradGradGradGradGradGradGradGradGradGradGradGradGradGradGradGradGradGrad

                          Input orientation:                          
 ---------------------------------------------------------------------
 Center     Atomic     Atomic              Coordinates (Angstroms)
 Number     Number      Type              X           Y           Z
 ---------------------------------------------------------------------
    1          7             0        0.309375    0.000000    1.309375
    2          1             0        0.312500    0.000000   -1.687500
    3          6             0       -1.068750    0.000000   -0.284375
    4          1             0       -1.918750    0.000000   -0.790625
    5          6             0       -0.934375    0.000000    1.028125
    6          1             0       -1.675000    0.000000    1.687500
    7          1             0        1.918750    0.000000    0.090625
    8          6             0        0.934375    0.000000    0.190625
    9          7             0        0.096875    0.000000   -0.775000
 ---------------------------------------------------------------------
                    Distance matrix (angstroms):
                    1          2          3          4          5
     1  N    0.000000
     2  H    2.996877   0.000000
     3  C    2.106957   1.968911   0.000000
     4  H    3.061787   2.404758   0.989338   0.000000
     5  C    1.275153   2.988196   1.319361   2.068054   0.000000
     6  H    2.020080   3.916731   2.062966   2.490084   0.991615
     7  H    2.018772   2.396199   3.010944   3.937386   3.003203
     8  C    1.281494   1.978404   2.058673   3.017147   2.047836
     9  N    2.095179   0.937630   1.264672   2.015686   2.077194
                    6          7          8          9
     6  H    0.000000
     7  H    3.932563   0.000000
     8  C    3.008234   0.989441   0.000000
     9  N    3.033718   2.017061   1.278217   0.000000
 Stoichiometry    C3H4N2
 Framework group  CS[SG(C3H4N2)]
 Deg. of freedom   15
 Full point group                 CS      NOp   2
 Largest Abelian subgroup         CS      NOp   2
 Largest concise Abelian subgroup C1      NOp   1
                         Standard orientation:                         
 ---------------------------------------------------------------------
 Center     Atomic     Atomic              Coordinates (Angstroms)
 Number     Number      Type              X           Y           Z
 ---------------------------------------------------------------------
    1          7             0       -0.674969   -0.941702    0.000000
    2          1             0       -0.005288    1.979393    0.000000
    3          6             0        1.025744    0.302019    0.000000
    4          1             0        1.967693    0.604544    0.000000
    5          6             0        0.600174   -0.946822    0.000000
    6          1             0        1.173884   -1.755622    0.000000
    7          1             0       -1.969692    0.607211    0.000000
    8          6             0       -1.032886    0.288794    0.000000
    9          7             0        0.000000    1.041778    0.000000
 ---------------------------------------------------------------------
 Rotational constants (GHZ):     11.1543393     10.4769603      5.4025219
 Isotopes: N-14,H-1,C-12,H-1,C-12,H-1,H-1,C-12,N-14
 Standard basis: CEP-31G (6D, 10F)
 There are    38 symmetry adapted basis functions of A'  symmetry.
 There are    10 symmetry adapted basis functions of A"  symmetry.
 Crude estimate of integral set expansion from redundant integrals=1.000.
 Integral buffers will be    262144 words long.
 Raffenetti 2 integral format.
 Two-electron integral symmetry is turned on.
    48 basis functions       96 primitive gaussians
    13 alpha electrons       13 beta electrons
       nuclear repulsion energy        90.1770288692 Hartrees.
 One-electron integrals computed using PRISM.
   1 Symmetry operations used in ECPInt.
 ECPInt:  NShTT=     171 NPrTT=     693 LenC2=     172 LenP2D=     644.
 LDataN:  DoStor=F MaxTD1= 2 Len=   12
 LDataN:  DoStor=T MaxTD1= 2 Len=   12
 NBasis=    48 RedAO= T  NBF=    38    10
 NBsUse=    48 1.00D-04 NBFU=    38    10
 Projected Huckel Guess.
 Initial guess orbital symmetries:
       Occupied  (A') (A') (A') (A') (A') (A') (A") (A') (A') (A')
                 (A") (A') (A")
       Virtual   (A") (A") (A') (A') (A') (A') (A') (A') (A') (A')
                 (A') (A') (A') (A') (A') (A') (A') (A') (A') (A')
                 (A') (A') (A') (A') (A') (A') (A') (A') (A') (A')
                 (A") (A") (A") (A") (A")
 Requested convergence on RMS density matrix=1.00D-08 within  64 cycles.
 Requested convergence on MAX density matrix=1.00D-06.
 Keep R1 and R2 integrals in memory in canonical form, NReq=     1796396.
 Integral accuracy reduced to 1.0D-05 until final iterations.
 Initial convergence to 1.0D-05 achieved.  Increase integral accuracy.
 SCF Done:  E(RB+HF-LYP) =  -38.9777095322     A.U. after   17 cycles
             Convg  =    0.2953D-08             -V/T =  2.2336
             S**2   =   0.0000

 **********************************************************************

            Population analysis using the SCF density.

 **********************************************************************

 Orbital Symmetries:
       Occupied  (A') (A') (A') (A') (A') (A') (A") (A') (A') (A')
                 (A") (A') (A")
       Virtual   (A") (A') (A") (A') (A') (A') (A') (A') (A') (A")
                 (A') (A') (A") (A') (A") (A') (A') (A') (A") (A')
                 (A") (A') (A') (A') (A') (A') (A') (A') (A') (A')
                 (A') (A') (A') (A') (A')
  The electronic state is 1-A'.
 Alpha  occ. eigenvalues --   -1.11182  -0.93116  -0.78648  -0.66651  -0.62743
 Alpha  occ. eigenvalues --   -0.60177  -0.48147  -0.47516  -0.45331  -0.43394
 Alpha  occ. eigenvalues --   -0.30502  -0.24378  -0.23700
 Alpha virt. eigenvalues --    0.04368   0.08311   0.08986   0.14096   0.15094
 Alpha virt. eigenvalues --    0.18288   0.19893   0.24526   0.25938   0.28875
 Alpha virt. eigenvalues --    0.29008   0.30479   0.34109   0.37332   0.38661
 Alpha virt. eigenvalues --    0.39884   0.51029   0.52003   0.55671   0.62678
 Alpha virt. eigenvalues --    0.64811   0.67001   0.69116   0.74070   0.79432
 Alpha virt. eigenvalues --    0.89224   1.08435   1.25238   1.30327   1.41800
 Alpha virt. eigenvalues --    1.78892   3.00642   3.82560   4.95884   5.58344
          Condensed to atoms (all electrons):
              1          2          3          4          5          6
  1  N    3.760502   0.012166  -0.174419   0.001906   0.580231  -0.011860
  2  H    0.012166   0.498575  -0.068659  -0.001758   0.035236   0.000143
  3  C   -0.174419  -0.068659   4.410334   0.276624  -0.096735  -0.081201
  4  H    0.001906  -0.001758   0.276624   0.330114   0.029194   0.002796
  5  C    0.580231   0.035236  -0.096735   0.029194   3.977282   0.362775
  6  H   -0.011860   0.000143  -0.081201   0.002796   0.362775   0.345891
  7  H   -0.034496   0.002803  -0.011291  -0.000029   0.020058   0.000142
  8  C    0.528803  -0.010699  -0.138248   0.009356  -0.140739   0.015443
  9  N   -0.068857   0.210993   0.510874  -0.012978  -0.210216   0.003016
              7          8          9
  1  N   -0.034496   0.528803  -0.068857
  2  H    0.002803  -0.010699   0.210993
  3  C   -0.011291  -0.138248   0.510874
  4  H   -0.000029   0.009356  -0.012978
  5  C    0.020058  -0.140739  -0.210216
  6  H    0.000142   0.015443   0.003016
  7  H    0.390959   0.345607  -0.065060
  8  C    0.345607   4.027482   0.316091
  9  N   -0.065060   0.316091   3.984832
 Total atomic charges:
              1
  1  N    0.406023
  2  H    0.321201
  3  C   -0.627279
  4  H    0.364775
  5  C   -0.557088
  6  H    0.362855
  7  H    0.351305
  8  C   -0.953097
  9  N    0.331305
 Sum of Mulliken charges=   0.00000
 Atomic charges with hydrogens summed into heavy atoms:
              1
  1  N    0.406023
  2  H    0.000000
  3  C   -0.262504
  4  H    0.000000
  5  C   -0.194233
  6  H    0.000000
  7  H    0.000000
  8  C   -0.601792
  9  N    0.652505
 Sum of Mulliken charges=   0.00000
 Electronic spatial extent (au):  <R**2>=   216.5440
 Charge=     0.0000 electrons
 Dipole moment (Debye):
    X=     1.4443    Y=     4.1541    Z=     0.0000  Tot=     4.3981
 Quadrupole moment (Debye-Ang):
   XX=   -27.0630   YY=   -26.0306   ZZ=   -30.6506
   XY=    -3.7738   XZ=     0.0000   YZ=     0.0000
 Octapole moment (Debye-Ang**2):
  XXX=     1.4933  YYY=    16.8317  ZZZ=     0.0000  XYY=     5.9641
  XXY=     5.9943  XXZ=     0.0000  XZZ=    -0.5966  YZZ=     1.4587
  YYZ=     0.0000  XYZ=     0.0000
 Hexadecapole moment (Debye-Ang**3):
 XXXX=  -137.5369 YYYY=  -130.2469 ZZZZ=   -32.2907 XXXY=    -4.5264
 XXXZ=     0.0000 YYYX=    -9.6093 YYYZ=     0.0000 ZZZX=     0.0000
 ZZZY=     0.0000 XXYY=   -52.0221 XXZZ=   -34.9600 YYZZ=   -32.5820
 XXYZ=     0.0000 YYXZ=     0.0000 ZZXY=     0.4643
 N-N= 9.017702886917D+01 E-N=-2.682402284759D+02  KE= 3.159782360160D+01
 Symmetry A'   KE= 2.345904166203D+01
 Symmetry A"   KE= 8.138781939571D+00
   2 Symmetry operations used in ECPInt.
 ECPInt:  NShTT=     171 NPrTT=     693 LenC2=     172 LenP2D=     644.
 LDataN:  DoStor=F MaxTD1= 3 Len=   28
 LDataN:  DoStor=T MaxTD1= 3 Len=   28
 ***** Axes restored to original set *****
 -------------------------------------------------------------------
 Center     Atomic                   Forces (Hartrees/Bohr)
 Number     Number              X              Y              Z
 -------------------------------------------------------------------
    1          7           0.100514931    0.000000000    0.122917193
    2          1           0.020146905    0.000000000   -0.087404727
    3          6          -0.111706513    0.000000000   -0.011463357
    4          1          -0.073593827    0.000000000   -0.051820754
    5          6          -0.063501068    0.000000000    0.024450350
    6          1          -0.062092118    0.000000000    0.061625468
    7          1           0.090788038    0.000000000   -0.010719085
    8          6           0.058320951    0.000000000    0.040425645
    9          7           0.041122702    0.000000000   -0.088010734
 -------------------------------------------------------------------
 Cartesian Forces:  Max     0.122917193 RMS     0.057439759

 GradGradGradGradGradGradGradGradGradGradGradGradGradGradGradGradGradGrad
 Berny optimization.
 Internal  Forces:  Max     0.169781482 RMS     0.059493654
 Search for a local minimum.
 Step number   1 out of a maximum of  48
 All quantities printed in internal units (Hartrees-Bohrs-Radians)
 Second derivative matrix not updated -- first step.
     Eigenvalues ---    0.03211   0.03261   0.03288   0.03318   0.03352
     Eigenvalues ---    0.03407   0.16000   0.16000   0.16000   0.16000
     Eigenvalues ---    0.22000   0.22917   0.49193   0.49594   0.49613
     Eigenvalues ---    0.54578   0.60577   0.63413   0.68379   0.73836
     Eigenvalues ---    0.765081000.000001000.000001000.000001000.00000
     Eigenvalues --- 1000.000001000.000001000.000001000.000001000.00000
     Eigenvalues --- 1000.000001000.000001000.000001000.000001000.00000
     Eigenvalues --- 1000.000001000.000001000.00000
 RFO step:  Lambda=-1.62604690D-01.
 Linear search not attempted -- first point.
 Maximum step size (   0.300) exceeded in Quadratic search.
    -- Step size scaled by   0.669
 Iteration  1 RMS(Cart)=  0.06690988 RMS(Int)=  0.00026869
 Iteration  2 RMS(Cart)=  0.00030319 RMS(Int)=  0.00010099
 Iteration  3 RMS(Cart)=  0.00000010 RMS(Int)=  0.00010099
 Variable       Old X    -DE/DX   Delta X   Delta X   Delta X     New X
                                 (Linear)    (Quad)   (Total)
    R1        2.40969   0.15646   0.00000   0.11330   0.11323   2.52292
    R2        2.42167   0.09985   0.00000   0.07365   0.07347   2.49514
    R3        1.77186   0.08970   0.00000   0.07809   0.07809   1.84996
    R4        1.86958   0.08975   0.00000   0.09114   0.09114   1.96072
    R5        2.49323   0.12541   0.00000   0.10745   0.10759   2.60082
    R6        2.38988   0.16978   0.00000   0.12248   0.12263   2.51252
    R7        1.87388   0.08735   0.00000   0.08928   0.08928   1.96316
    R8        1.86977   0.09141   0.00000   0.09285   0.09285   1.96263
    R9        2.41548   0.15111   0.00000   0.11343   0.11337   2.52885
    A1        1.85787   0.00769   0.00000   0.00369   0.00338   1.86126
    A2        2.20999   0.01376   0.00000   0.02325   0.02311   2.23310
    A3        2.20602   0.00093   0.00000  -0.00335  -0.00349   2.20253
    A4        1.86717  -0.01469   0.00000  -0.01990  -0.01961   1.84756
    A5        1.89521   0.00674   0.00000   0.00921   0.00930   1.90451
    A6        2.19177  -0.00782   0.00000  -0.01382  -0.01386   2.17791
    A7        2.19620   0.00107   0.00000   0.00461   0.00456   2.20076
    A8        2.18150   0.00092   0.00000   0.00225   0.00234   2.18384
    A9        1.91767   0.00096   0.00000   0.00129   0.00111   1.91877
   A10        2.18402  -0.00187   0.00000  -0.00354  -0.00345   2.18057
   A11        2.20124  -0.00008   0.00000  -0.00376  -0.00382   2.19742
   A12        2.19509   0.00079   0.00000  -0.00194  -0.00200   2.19309
   A13        1.88685  -0.00071   0.00000   0.00571   0.00582   1.89267
    D1        0.00000   0.00000   0.00000   0.00000   0.00000   0.00000
    D2        3.14159   0.00000   0.00000   0.00000   0.00000   3.14159
    D3        3.14159   0.00000   0.00000   0.00000   0.00000   3.14159
    D4        0.00000   0.00000   0.00000   0.00000   0.00000   0.00000
    D5        3.14159   0.00000   0.00000   0.00000   0.00000   3.14159
    D6        0.00000   0.00000   0.00000   0.00000   0.00000   0.00000
    D7        0.00000   0.00000   0.00000   0.00000   0.00000   0.00000
    D8        3.14159   0.00000   0.00000   0.00000   0.00000   3.14159
    D9        0.00000   0.00000   0.00000   0.00000   0.00000   0.00000
   D10        3.14159   0.00000   0.00000   0.00000   0.00000   3.14159
   D11        3.14159   0.00000   0.00000   0.00000   0.00000   3.14159
   D12        0.00000   0.00000   0.00000   0.00000   0.00000   0.00000
   D13        3.14159   0.00000   0.00000   0.00000   0.00000   3.14159
   D14        0.00000   0.00000   0.00000   0.00000   0.00000   0.00000
   D15        0.00000   0.00000   0.00000   0.00000   0.00000   0.00000
   D16        3.14159   0.00000   0.00000   0.00000   0.00000   3.14159
         Item               Value     Threshold  Converged?
 Maximum Force            0.169781     0.000450     NO 
 RMS     Force            0.059494     0.000300     NO 
 Maximum Displacement     0.187057     0.001800     NO 
 RMS     Displacement     0.066890     0.001200     NO 
 Predicted change in Energy=-2.907034D-02
 GradGradGradGradGradGradGradGradGradGradGradGradGradGradGradGradGradGrad

                          Input orientation:                          
 ---------------------------------------------------------------------
 Center     Atomic     Atomic              Coordinates (Angstroms)
 Number     Number      Type              X           Y           Z
 ---------------------------------------------------------------------
    1          7             0        0.476578    0.000000    1.115178
    2          1             0        0.475819    0.000000   -2.001447
    3          6             0       -0.982598    0.000000   -0.543484
    4          1             0       -1.867953    0.000000   -1.084495
    5          6             0       -0.826336    0.000000    0.823913
    6          1             0       -1.590870    0.000000    1.527275
    7          1             0        2.154715    0.000000   -0.143344
    8          6             0        1.121605    0.000000   -0.036918
    9          7             0        0.246852    0.000000   -1.049646
 ---------------------------------------------------------------------
                    Distance matrix (angstroms):
                    1          2          3          4          5
     1  N    0.000000
     2  H    3.116625   0.000000
     3  C    2.209153   2.062192   0.000000
     4  H    3.214869   2.516758   1.037567   0.000000
     5  C    1.335073   3.110992   1.376297   2.174163   0.000000
     6  H    2.108119   4.089387   2.158249   2.626427   1.038860
     7  H    2.097623   2.504245   3.162728   4.131298   3.134047
     8  C    1.320372   2.067950   2.164320   3.167787   2.129672
     9  N    2.176979   0.978955   1.329566   2.115092   2.159156
                    6          7          8          9
     6  H    0.000000
     7  H    4.101265   0.000000
     8  C    3.131169   1.038578   0.000000
     9  N    3.165082   2.112185   1.338212   0.000000
 Stoichiometry    C3H4N2
 Framework group  CS[SG(C3H4N2)]
 Deg. of freedom   15
 Full point group                 CS      NOp   2
 Largest Abelian subgroup         CS      NOp   2
 Largest concise Abelian subgroup C1      NOp   1
                         Standard orientation:                         
 ---------------------------------------------------------------------
 Center     Atomic     Atomic              Coordinates (Angstroms)
 Number     Number      Type              X           Y           Z
 ---------------------------------------------------------------------
    1          7             0       -0.723170   -0.990405    0.000000
    2          1             0       -0.003107    2.041898    0.000000
    3          6             0        1.079432    0.286693    0.000000
    4          1             0        2.065750    0.608755    0.000000
    5          6             0        0.611791   -1.007720    0.000000
    6          1             0        1.193345   -1.868548    0.000000
    7          1             0       -2.065529    0.621455    0.000000
    8          6             0       -1.084875    0.279458    0.000000
    9          7             0        0.000000    1.062948    0.000000
 ---------------------------------------------------------------------
 Rotational constants (GHZ):     10.1365305      9.7024274      4.9573648
 Isotopes: N-14,H-1,C-12,H-1,C-12,H-1,H-1,C-12,N-14
 Standard basis: CEP-31G (6D, 10F)
 There are    38 symmetry adapted basis functions of A'  symmetry.
 There are    10 symmetry adapted basis functions of A"  symmetry.
 Crude estimate of integral set expansion from redundant integrals=1.000.
 Integral buffers will be    262144 words long.
 Raffenetti 2 integral format.
 Two-electron integral symmetry is turned on.
    48 basis functions       96 primitive gaussians
    13 alpha electrons       13 beta electrons
       nuclear repulsion energy        86.3504305634 Hartrees.
 One-electron integrals computed using PRISM.
   1 Symmetry operations used in ECPInt.
 ECPInt:  NShTT=     171 NPrTT=     693 LenC2=     172 LenP2D=     644.
 LDataN:  DoStor=F MaxTD1= 2 Len=   12
 LDataN:  DoStor=T MaxTD1= 2 Len=   12
 NBasis=    48 RedAO= T  NBF=    38    10
 NBsUse=    48 1.00D-04 NBFU=    38    10
 Initial guess read from the read-write file:
 Initial guess orbital symmetries:
       Occupied  (A') (A') (A') (A') (A') (A') (A") (A') (A') (A')
                 (A") (A') (A")
       Virtual   (A") (A') (A") (A') (A') (A') (A') (A') (A') (A")
                 (A') (A') (A") (A') (A") (A') (A') (A') (A") (A')
                 (A") (A') (A') (A') (A') (A') (A') (A') (A') (A')
                 (A') (A') (A') (A') (A')
 Requested convergence on RMS density matrix=1.00D-08 within  64 cycles.
 Requested convergence on MAX density matrix=1.00D-06.
 Keep R1 and R2 integrals in memory in canonical form, NReq=     1796396.
 Integral accuracy reduced to 1.0D-05 until final iterations.
 Initial convergence to 1.0D-05 achieved.  Increase integral accuracy.
 SCF Done:  E(RB+HF-LYP) =  -39.0528633977     A.U. after   14 cycles
             Convg  =    0.9733D-08             -V/T =  2.2787
             S**2   =   0.0000
   2 Symmetry operations used in ECPInt.
 ECPInt:  NShTT=     171 NPrTT=     693 LenC2=     172 LenP2D=     644.
 LDataN:  DoStor=F MaxTD1= 3 Len=   28
 LDataN:  DoStor=T MaxTD1= 3 Len=   28
 ***** Axes restored to original set *****
 -------------------------------------------------------------------
 Center     Atomic                   Forces (Hartrees/Bohr)
 Number     Number              X              Y              Z
 -------------------------------------------------------------------
    1          7           0.047088414    0.000000000    0.053489409
    2          1           0.008181495    0.000000000   -0.036235780
    3          6          -0.048306198    0.000000000    0.010425057
    4          1          -0.029616156    0.000000000   -0.025321381
    5          6          -0.027465880    0.000000000   -0.005484666
    6          1          -0.024776166    0.000000000    0.028755075
    7          1           0.038267142    0.000000000   -0.005558864
    8          6           0.015895766    0.000000000    0.021779458
    9          7           0.020731582    0.000000000   -0.041848307
 -------------------------------------------------------------------
 Cartesian Forces:  Max     0.053489409 RMS     0.025127385

 GradGradGradGradGradGradGradGradGradGradGradGradGradGradGradGradGradGrad
 Berny optimization.
 Internal  Forces:  Max     0.071801952 RMS     0.024525789
 Search for a local minimum.
 Step number   2 out of a maximum of  48
 All quantities printed in internal units (Hartrees-Bohrs-Radians)
 Update second derivatives using information from points  1  2
 Trust test= 2.59D+00 RLast= 3.00D-01 DXMaxT set to 4.24D-01
     Eigenvalues ---    0.03210   0.03262   0.03288   0.03316   0.03351
     Eigenvalues ---    0.03406   0.15955   0.16000   0.16000   0.16000
     Eigenvalues ---    0.22057   0.22867   0.49288   0.49603   0.50690
     Eigenvalues ---    0.56013   0.61016   0.64103   0.70627   0.74139
     Eigenvalues ---    0.780591000.000001000.000001000.000001000.00000
     Eigenvalues --- 1000.000001000.000001000.000001000.000001000.00000
     Eigenvalues --- 1000.000001000.000001000.000001000.000001000.00000
     Eigenvalues --- 1000.000001000.000001000.00000
 RFO step:  Lambda=-2.81520874D-03.
 Quartic linear search produced a step of  0.96357.
 Iteration  1 RMS(Cart)=  0.06672437 RMS(Int)=  0.00115048
 Iteration  2 RMS(Cart)=  0.00137635 RMS(Int)=  0.00014181
 Iteration  3 RMS(Cart)=  0.00000223 RMS(Int)=  0.00014179
 Iteration  4 RMS(Cart)=  0.00000000 RMS(Int)=  0.00014179
 Variable       Old X    -DE/DX   Delta X   Delta X   Delta X     New X
                                 (Linear)    (Quad)   (Total)
    R1        2.52292   0.06688   0.10911   0.00375   0.11272   2.63564
    R2        2.49514   0.03773   0.07079  -0.00982   0.06074   2.55588
    R3        1.84996   0.03714   0.07525   0.00306   0.07831   1.92826
    R4        1.96072   0.03847   0.08782   0.01374   0.10156   2.06227
    R5        2.60082   0.04412   0.10368  -0.02176   0.08205   2.68288
    R6        2.51252   0.07180   0.11817   0.00219   0.12059   2.63310
    R7        1.96316   0.03770   0.08603   0.01470   0.10073   2.06389
    R8        1.96263   0.03864   0.08947   0.01184   0.10131   2.06394
    R9        2.52885   0.06207   0.10925  -0.00101   0.10822   2.63708
    A1        1.86126  -0.00070   0.00326  -0.03244  -0.02967   1.83158
    A2        2.23310   0.00865   0.02226   0.05177   0.07383   2.30693
    A3        2.20253  -0.00344  -0.00337  -0.04918  -0.05274   2.14978
    A4        1.84756  -0.00521  -0.01890  -0.00259  -0.02109   1.82647
    A5        1.90451   0.00560   0.00896   0.02431   0.03330   1.93782
    A6        2.17791  -0.00711  -0.01336  -0.04857  -0.06195   2.11596
    A7        2.20076   0.00151   0.00440   0.02427   0.02865   2.22941
    A8        2.18384  -0.00006   0.00225   0.00003   0.00238   2.18622
    A9        1.91877   0.00328   0.00107   0.02827   0.02915   1.94792
   A10        2.18057  -0.00322  -0.00332  -0.02830  -0.03153   2.14904
   A11        2.19742   0.00101  -0.00368   0.00450   0.00069   2.19811
   A12        2.19309   0.00197  -0.00193   0.01305   0.01100   2.20409
   A13        1.89267  -0.00298   0.00561  -0.01755  -0.01169   1.88098
    D1        0.00000   0.00000   0.00000   0.00000   0.00000   0.00000
    D2        3.14159   0.00000   0.00000   0.00000   0.00000   3.14159
    D3        3.14159   0.00000   0.00000   0.00000   0.00000   3.14159
    D4        0.00000   0.00000   0.00000   0.00000   0.00000   0.00000
    D5        3.14159   0.00000   0.00000   0.00000   0.00000   3.14159
    D6        0.00000   0.00000   0.00000   0.00000   0.00000   0.00000
    D7        0.00000   0.00000   0.00000   0.00000   0.00000   0.00000
    D8        3.14159   0.00000   0.00000   0.00000   0.00000   3.14159
    D9        0.00000   0.00000   0.00000   0.00000   0.00000   0.00000
   D10        3.14159   0.00000   0.00000   0.00000   0.00000   3.14159
   D11        3.14159   0.00000   0.00000   0.00000   0.00000   3.14159
   D12        0.00000   0.00000   0.00000   0.00000   0.00000   0.00000
   D13        3.14159   0.00000   0.00000   0.00000   0.00000   3.14159
   D14        0.00000   0.00000   0.00000   0.00000   0.00000   0.00000
   D15        0.00000   0.00000   0.00000   0.00000   0.00000   0.00000
   D16        3.14159   0.00000   0.00000   0.00000   0.00000   3.14159
         Item               Value     Threshold  Converged?
 Maximum Force            0.071802     0.000450     NO 
 RMS     Force            0.024526     0.000300     NO 
 Maximum Displacement     0.189003     0.001800     NO 
 RMS     Displacement     0.066551     0.001200     NO 
 Predicted change in Energy=-3.110148D-02
 GradGradGradGradGradGradGradGradGradGradGradGradGradGradGradGradGradGrad

                          Input orientation:                          
 ---------------------------------------------------------------------
 Center     Atomic     Atomic              Coordinates (Angstroms)
 Number     Number      Type              X           Y           Z
 ---------------------------------------------------------------------
    1          7             0        0.505754    0.000000    1.191353
    2          1             0        0.494961    0.000000   -2.058774
    3          6             0       -1.037338    0.000000   -0.540922
    4          1             0       -1.935426    0.000000   -1.160917
    5          6             0       -0.850600    0.000000    0.866460
    6          1             0       -1.618906    0.000000    1.642688
    7          1             0        2.233696    0.000000   -0.128484
    8          6             0        1.149301    0.000000    0.001757
    9          7             0        0.252682    0.000000   -1.067560
 ---------------------------------------------------------------------
                    Distance matrix (angstroms):
                    1          2          3          4          5
     1  N    0.000000
     2  H    3.250145   0.000000
     3  C    2.319894   2.156807   0.000000
     4  H    3.390064   2.590932   1.091309   0.000000
     5  C    1.394723   3.219865   1.419717   2.299370   0.000000
     6  H    2.172068   4.262541   2.259729   2.821415   1.092165
     7  H    2.174340   2.597926   3.296933   4.295055   3.240802
     8  C    1.352514   2.161932   2.252974   3.296567   2.178834
     9  N    2.273045   1.020394   1.393378   2.190099   2.226582
                    6          7          8          9
     6  H    0.000000
     7  H    4.240235   0.000000
     8  C    3.218016   1.092188   0.000000
     9  N    3.293674   2.192323   1.395480   0.000000
 Stoichiometry    C3H4N2
 Framework group  CS[SG(C3H4N2)]
 Deg. of freedom   15
 Full point group                 CS      NOp   2
 Largest Abelian subgroup         CS      NOp   2
 Largest concise Abelian subgroup C1      NOp   1
                         Standard orientation:                         
 ---------------------------------------------------------------------
 Center     Atomic     Atomic              Coordinates (Angstroms)
 Number     Number      Type              X           Y           Z
 ---------------------------------------------------------------------
    1          7             0       -0.761870   -1.036275    0.000000
    2          1             0       -0.009695    2.125635    0.000000
    3          6             0        1.135807    0.298166    0.000000
    4          1             0        2.151679    0.696862    0.000000
    5          6             0        0.632836   -1.029470    0.000000
    6          1             0        1.203738   -1.960541    0.000000
    7          1             0       -2.143039    0.643048    0.000000
    8          6             0       -1.116976    0.268789    0.000000
    9          7             0        0.000000    1.105287    0.000000
 ---------------------------------------------------------------------
 Rotational constants (GHZ):      9.4639879      8.9143514      4.5904754
 Isotopes: N-14,H-1,C-12,H-1,C-12,H-1,H-1,C-12,N-14
 Standard basis: CEP-31G (6D, 10F)
 There are    38 symmetry adapted basis functions of A'  symmetry.
 There are    10 symmetry adapted basis functions of A"  symmetry.
 Crude estimate of integral set expansion from redundant integrals=1.000.
 Integral buffers will be    262144 words long.
 Raffenetti 2 integral format.
 Two-electron integral symmetry is turned on.
    48 basis functions       96 primitive gaussians
    13 alpha electrons       13 beta electrons
       nuclear repulsion energy        83.0308578228 Hartrees.
 One-electron integrals computed using PRISM.
   1 Symmetry operations used in ECPInt.
 ECPInt:  NShTT=     171 NPrTT=     693 LenC2=     172 LenP2D=     643.
 LDataN:  DoStor=F MaxTD1= 2 Len=   12
 LDataN:  DoStor=T MaxTD1= 2 Len=   12
 NBasis=    48 RedAO= T  NBF=    38    10
 NBsUse=    48 1.00D-04 NBFU=    38    10
 Initial guess read from the read-write file:
 Initial guess orbital symmetries:
       Occupied  (A') (A') (A') (A') (A') (A') (A') (A") (A') (A')
                 (A") (A') (A")
       Virtual   (A") (A") (A') (A') (A') (A') (A') (A') (A') (A')
                 (A") (A') (A") (A') (A') (A") (A') (A') (A") (A')
                 (A') (A") (A') (A') (A') (A') (A') (A') (A') (A')
                 (A') (A') (A') (A') (A')
 Requested convergence on RMS density matrix=1.00D-08 within  64 cycles.
 Requested convergence on MAX density matrix=1.00D-06.
 Keep R1 and R2 integrals in memory in canonical form, NReq=     1796396.
 Integral accuracy reduced to 1.0D-05 until final iterations.
 Initial convergence to 1.0D-05 achieved.  Increase integral accuracy.
 SCF Done:  E(RB+HF-LYP) =  -39.0738290331     A.U. after   15 cycles
             Convg  =    0.2918D-08             -V/T =  2.3181
             S**2   =   0.0000
   2 Symmetry operations used in ECPInt.
 ECPInt:  NShTT=     171 NPrTT=     693 LenC2=     172 LenP2D=     643.
 LDataN:  DoStor=F MaxTD1= 3 Len=   28
 LDataN:  DoStor=T MaxTD1= 3 Len=   28
 ***** Axes restored to original set *****
 -------------------------------------------------------------------
 Center     Atomic                   Forces (Hartrees/Bohr)
 Number     Number              X              Y              Z
 -------------------------------------------------------------------
    1          7           0.008199043    0.000000000   -0.006421503
    2          1          -0.000596110    0.000000000    0.004102026
    3          6          -0.009597810    0.000000000    0.012080221
    4          1           0.004130295    0.000000000    0.002701536
    5          6          -0.017436475    0.000000000   -0.004654734
    6          1           0.003232607    0.000000000   -0.003344223
    7          1          -0.004277424    0.000000000    0.000223467
    8          6           0.007218136    0.000000000    0.003015900
    9          7           0.009127739    0.000000000   -0.007702689
 -------------------------------------------------------------------
 Cartesian Forces:  Max     0.017436475 RMS     0.005955298

 GradGradGradGradGradGradGradGradGradGradGradGradGradGradGradGradGradGrad
 Berny optimization.
 Internal  Forces:  Max     0.010885241 RMS     0.003492935
 Search for a local minimum.
 Step number   3 out of a maximum of  48
 All quantities printed in internal units (Hartrees-Bohrs-Radians)
 Update second derivatives using information from points  2  3
 Trust test= 6.74D-01 RLast= 3.22D-01 DXMaxT set to 4.24D-01
     Eigenvalues ---    0.03205   0.03261   0.03287   0.03305   0.03349
     Eigenvalues ---    0.03404   0.15677   0.16000   0.16000   0.16002
     Eigenvalues ---    0.22056   0.23333   0.46316   0.49342   0.49606
     Eigenvalues ---    0.56369   0.58947   0.63547   0.65119   0.71930
     Eigenvalues ---    0.747021000.000001000.000001000.000001000.00000
     Eigenvalues --- 1000.000001000.000001000.000001000.000001000.00000
     Eigenvalues --- 1000.000001000.000001000.000001000.000001000.00000
     Eigenvalues --- 1000.000001000.000001000.00000
 RFO step:  Lambda=-8.33103502D-04.
 Quartic linear search produced a step of -0.02383.
 Iteration  1 RMS(Cart)=  0.00732047 RMS(Int)=  0.00003142
 Iteration  2 RMS(Cart)=  0.00002904 RMS(Int)=  0.00000508
 Iteration  3 RMS(Cart)=  0.00000000 RMS(Int)=  0.00000508
 Variable       Old X    -DE/DX   Delta X   Delta X   Delta X     New X
                                 (Linear)    (Quad)   (Total)
    R1        2.63564   0.00941  -0.00269   0.01597   0.01330   2.64894
    R2        2.55588  -0.00340  -0.00145  -0.00246  -0.00391   2.55197
    R3        1.92826  -0.00413  -0.00187  -0.00402  -0.00588   1.92238
    R4        2.06227  -0.00493  -0.00242  -0.00643  -0.00885   2.05343
    R5        2.68288  -0.01002  -0.00196  -0.01288  -0.01483   2.66805
    R6        2.63310   0.01089  -0.00287   0.01788   0.01501   2.64811
    R7        2.06389  -0.00465  -0.00240  -0.00599  -0.00839   2.05551
    R8        2.06394  -0.00427  -0.00241  -0.00513  -0.00754   2.05639
    R9        2.63708  -0.00054  -0.00258   0.00314   0.00055   2.63763
    A1        1.83158   0.00491   0.00071   0.01814   0.01886   1.85044
    A2        2.30693  -0.00076  -0.00176  -0.00199  -0.00375   2.30318
    A3        2.14978  -0.00102   0.00126  -0.00618  -0.00492   2.14486
    A4        1.82647   0.00178   0.00050   0.00817   0.00867   1.83514
    A5        1.93782  -0.00347  -0.00079  -0.01466  -0.01544   1.92237
    A6        2.11596   0.00179   0.00148   0.00673   0.00820   2.12416
    A7        2.22941   0.00168  -0.00068   0.00794   0.00725   2.23666
    A8        2.18622   0.00192  -0.00006   0.00861   0.00856   2.19478
    A9        1.94792  -0.00323  -0.00069  -0.01291  -0.01361   1.93431
   A10        2.14904   0.00132   0.00075   0.00429   0.00505   2.15409
   A11        2.19811   0.00037  -0.00002   0.00157   0.00156   2.19967
   A12        2.20409  -0.00039  -0.00026  -0.00283  -0.00309   2.20100
   A13        1.88098   0.00002   0.00028   0.00126   0.00152   1.88251
    D1        0.00000   0.00000   0.00000   0.00000   0.00000   0.00000
    D2        3.14159   0.00000   0.00000   0.00000   0.00000   3.14159
    D3        3.14159   0.00000   0.00000   0.00000   0.00000   3.14159
    D4        0.00000   0.00000   0.00000   0.00000   0.00000   0.00000
    D5        3.14159   0.00000   0.00000   0.00000   0.00000   3.14159
    D6        0.00000   0.00000   0.00000   0.00000   0.00000   0.00000
    D7        0.00000   0.00000   0.00000   0.00000   0.00000   0.00000
    D8        3.14159   0.00000   0.00000   0.00000   0.00000   3.14159
    D9        0.00000   0.00000   0.00000   0.00000   0.00000   0.00000
   D10        3.14159   0.00000   0.00000   0.00000   0.00000   3.14159
   D11        3.14159   0.00000   0.00000   0.00000   0.00000   3.14159
   D12        0.00000   0.00000   0.00000   0.00000   0.00000   0.00000
   D13        3.14159   0.00000   0.00000   0.00000   0.00000   3.14159
   D14        0.00000   0.00000   0.00000   0.00000   0.00000   0.00000
   D15        0.00000   0.00000   0.00000   0.00000   0.00000   0.00000
   D16        3.14159   0.00000   0.00000   0.00000   0.00000   3.14159
         Item               Value     Threshold  Converged?
 Maximum Force            0.010885     0.000450     NO 
 RMS     Force            0.003493     0.000300     NO 
 Maximum Displacement     0.021263     0.001800     NO 
 RMS     Displacement     0.007321     0.001200     NO 
 Predicted change in Energy=-4.288415D-04
 GradGradGradGradGradGradGradGradGradGradGradGradGradGradGradGradGradGrad

                          Input orientation:                          
 ---------------------------------------------------------------------
 Center     Atomic     Atomic              Coordinates (Angstroms)
 Number     Number      Type              X           Y           Z
 ---------------------------------------------------------------------
    1          7             0        0.503973    0.000000    1.171580
    2          1             0        0.496165    0.000000   -2.064317
    3          6             0       -1.039911    0.000000   -0.542434
    4          1             0       -1.932885    0.000000   -1.161593
    5          6             0       -0.862312    0.000000    0.858222
    6          1             0       -1.626370    0.000000    1.632409
    7          1             0        2.237956    0.000000   -0.139300
    8          6             0        1.157441    0.000000   -0.010230
    9          7             0        0.255929    0.000000   -1.075810
 ---------------------------------------------------------------------
                    Distance matrix (angstroms):
                    1          2          3          4          5
     1  N    0.000000
     2  H    3.235907   0.000000
     3  C    2.306821   2.162327   0.000000
     4  H    3.373718   2.591369   1.086627   0.000000
     5  C    1.401759   3.222840   1.411871   2.285996   0.000000
     6  H    2.179615   4.262738   2.252527   2.810764   1.087727
     7  H    2.173730   2.596060   3.302564   4.294298   3.256795
     8  C    1.350443   2.157906   2.260884   3.297840   2.198548
     9  N    2.261037   1.017281   1.401318   2.190494   2.234042
                    6          7          8          9
     6  H    0.000000
     7  H    4.251113   0.000000
     8  C    3.232316   1.088196   0.000000
     9  N    3.298105   2.192141   1.395774   0.000000
 Stoichiometry    C3H4N2
 Framework group  CS[SG(C3H4N2)]
 Deg. of freedom   15
 Full point group                 CS      NOp   2
 Largest Abelian subgroup         CS      NOp   2
 Largest concise Abelian subgroup C1      NOp   1
                         Standard orientation:                         
 ---------------------------------------------------------------------
 Center     Atomic     Atomic              Coordinates (Angstroms)
 Number     Number      Type              X           Y           Z
 ---------------------------------------------------------------------
    1          7             0       -0.762322   -1.023962    0.000000
    2          1             0       -0.004514    2.121959    0.000000
    3          6             0        1.136875    0.285417    0.000000
    4          1             0        2.149065    0.680678    0.000000
    5          6             0        0.639386   -1.035902    0.000000
    6          1             0        1.203138   -1.966135    0.000000
    7          1             0       -2.145145    0.653209    0.000000
    8          6             0       -1.123994    0.277149    0.000000
    9          7             0        0.000000    1.104689    0.000000
 ---------------------------------------------------------------------
 Rotational constants (GHZ):      9.3418781      9.0135838      4.5873976
 Isotopes: N-14,H-1,C-12,H-1,C-12,H-1,H-1,C-12,N-14
 Standard basis: CEP-31G (6D, 10F)
 There are    38 symmetry adapted basis functions of A'  symmetry.
 There are    10 symmetry adapted basis functions of A"  symmetry.
 Crude estimate of integral set expansion from redundant integrals=1.000.
 Integral buffers will be    262144 words long.
 Raffenetti 2 integral format.
 Two-electron integral symmetry is turned on.
    48 basis functions       96 primitive gaussians
    13 alpha electrons       13 beta electrons
       nuclear repulsion energy        83.0199195725 Hartrees.
 One-electron integrals computed using PRISM.
   1 Symmetry operations used in ECPInt.
 ECPInt:  NShTT=     171 NPrTT=     693 LenC2=     172 LenP2D=     643.
 LDataN:  DoStor=F MaxTD1= 2 Len=   12
 LDataN:  DoStor=T MaxTD1= 2 Len=   12
 NBasis=    48 RedAO= T  NBF=    38    10
 NBsUse=    48 1.00D-04 NBFU=    38    10
 Initial guess read from the read-write file:
 Initial guess orbital symmetries:
       Occupied  (A') (A') (A') (A') (A') (A') (A') (A') (A") (A')
                 (A") (A') (A")
       Virtual   (A") (A") (A') (A') (A') (A') (A') (A') (A') (A')
                 (A") (A') (A') (A") (A') (A") (A') (A') (A') (A")
                 (A') (A') (A") (A') (A') (A') (A') (A') (A') (A')
                 (A') (A') (A') (A') (A')
 Requested convergence on RMS density matrix=1.00D-08 within  64 cycles.
 Requested convergence on MAX density matrix=1.00D-06.
 Keep R1 and R2 integrals in memory in canonical form, NReq=     1796396.
 Integral accuracy reduced to 1.0D-05 until final iterations.
 Initial convergence to 1.0D-05 achieved.  Increase integral accuracy.
 SCF Done:  E(RB+HF-LYP) =  -39.0742811915     A.U. after   12 cycles
             Convg  =    0.5553D-08             -V/T =  2.3178
             S**2   =   0.0000
   2 Symmetry operations used in ECPInt.
 ECPInt:  NShTT=     171 NPrTT=     693 LenC2=     172 LenP2D=     643.
 LDataN:  DoStor=F MaxTD1= 3 Len=   28
 LDataN:  DoStor=T MaxTD1= 3 Len=   28
 ***** Axes restored to original set *****
 -------------------------------------------------------------------
 Center     Atomic                   Forces (Hartrees/Bohr)
 Number     Number              X              Y              Z
 -------------------------------------------------------------------
    1          7           0.007318413    0.000000000    0.001076436
    2          1          -0.000817861    0.000000000    0.001052723
    3          6          -0.004253484    0.000000000    0.004933269
    4          1           0.001505708    0.000000000    0.000324526
    5          6          -0.004402117    0.000000000   -0.005855159
    6          1           0.001840129    0.000000000   -0.000899113
    7          1          -0.001625560    0.000000000    0.000262046
    8          6          -0.003658556    0.000000000    0.004124226
    9          7           0.004093329    0.000000000   -0.005018953
 -------------------------------------------------------------------
 Cartesian Forces:  Max     0.007318413 RMS     0.002945199

 GradGradGradGradGradGradGradGradGradGradGradGradGradGradGradGradGradGrad
 Berny optimization.
 Internal  Forces:  Max     0.003941510 RMS     0.001504273
 Search for a local minimum.
 Step number   4 out of a maximum of  48
 All quantities printed in internal units (Hartrees-Bohrs-Radians)
 Update second derivatives using information from points  2  3  4
 Trust test= 1.05D+00 RLast= 4.48D-02 DXMaxT set to 4.24D-01
     Eigenvalues ---    0.03205   0.03262   0.03287   0.03305   0.03350
     Eigenvalues ---    0.03405   0.15446   0.15999   0.16000   0.16059
     Eigenvalues ---    0.21449   0.34200   0.40403   0.48246   0.49433
     Eigenvalues ---    0.49661   0.57292   0.59738   0.64737   0.67678
     Eigenvalues ---    0.774851000.000001000.000001000.000001000.00000
     Eigenvalues --- 1000.000001000.000001000.000001000.000001000.00000
     Eigenvalues --- 1000.000001000.000001000.000001000.000001000.00000
     Eigenvalues --- 1000.000001000.000001000.00000
 RFO step:  Lambda=-2.36023914D-04.
 Quartic linear search produced a step of  0.06361.
 Iteration  1 RMS(Cart)=  0.00334644 RMS(Int)=  0.00000753
 Iteration  2 RMS(Cart)=  0.00000818 RMS(Int)=  0.00000389
 Iteration  3 RMS(Cart)=  0.00000000 RMS(Int)=  0.00000389
 Variable       Old X    -DE/DX   Delta X   Delta X   Delta X     New X
                                 (Linear)    (Quad)   (Total)
    R1        2.64894   0.00394   0.00085   0.00950   0.01034   2.65928
    R2        2.55197  -0.00363  -0.00025  -0.00571  -0.00596   2.54601
    R3        1.92238  -0.00122  -0.00037  -0.00263  -0.00300   1.91938
    R4        2.05343  -0.00142  -0.00056  -0.00399  -0.00455   2.04888
    R5        2.66805  -0.00360  -0.00094  -0.00824  -0.00919   2.65886
    R6        2.64811   0.00240   0.00095   0.00798   0.00893   2.65704
    R7        2.05551  -0.00193  -0.00053  -0.00504  -0.00557   2.04993
    R8        2.05639  -0.00165  -0.00048  -0.00417  -0.00465   2.05174
    R9        2.63763   0.00101   0.00004   0.00272   0.00276   2.64039
    A1        1.85044  -0.00242   0.00120  -0.00807  -0.00687   1.84357
    A2        2.30318   0.00084  -0.00024   0.00432   0.00408   2.30726
    A3        2.14486  -0.00038  -0.00031  -0.00463  -0.00494   2.13993
    A4        1.83514  -0.00046   0.00055   0.00031   0.00085   1.83600
    A5        1.92237   0.00182  -0.00098   0.00526   0.00427   1.92664
    A6        2.12416  -0.00161   0.00052  -0.00737  -0.00685   2.11731
    A7        2.23666  -0.00021   0.00046   0.00211   0.00257   2.23923
    A8        2.19478  -0.00139   0.00054  -0.00459  -0.00405   2.19073
    A9        1.93431   0.00264  -0.00087   0.00914   0.00829   1.94260
   A10        2.15409  -0.00125   0.00032  -0.00455  -0.00423   2.14986
   A11        2.19967   0.00027   0.00010   0.00031   0.00041   2.20008
   A12        2.20100   0.00132  -0.00020   0.00633   0.00613   2.20713
   A13        1.88251  -0.00159   0.00010  -0.00664  -0.00654   1.87597
    D1        0.00000   0.00000   0.00000   0.00000   0.00000   0.00000
    D2        3.14159   0.00000   0.00000   0.00000   0.00000   3.14159
    D3        3.14159   0.00000   0.00000   0.00000   0.00000   3.14159
    D4        0.00000   0.00000   0.00000   0.00000   0.00000   0.00000
    D5        3.14159   0.00000   0.00000   0.00000   0.00000   3.14159
    D6        0.00000   0.00000   0.00000   0.00000   0.00000   0.00000
    D7        0.00000   0.00000   0.00000   0.00000   0.00000   0.00000
    D8        3.14159   0.00000   0.00000   0.00000   0.00000   3.14159
    D9        0.00000   0.00000   0.00000   0.00000   0.00000   0.00000
   D10        3.14159   0.00000   0.00000   0.00000   0.00000   3.14159
   D11        3.14159   0.00000   0.00000   0.00000   0.00000   3.14159
   D12        0.00000   0.00000   0.00000   0.00000   0.00000   0.00000
   D13        3.14159   0.00000   0.00000   0.00000   0.00000   3.14159
   D14        0.00000   0.00000   0.00000   0.00000   0.00000   0.00000
   D15        0.00000   0.00000   0.00000   0.00000   0.00000   0.00000
   D16        3.14159   0.00000   0.00000   0.00000   0.00000   3.14159
         Item               Value     Threshold  Converged?
 Maximum Force            0.003942     0.000450     NO 
 RMS     Force            0.001504     0.000300     NO 
 Maximum Displacement     0.009281     0.001800     NO 
 RMS     Displacement     0.003349     0.001200     NO 
 Predicted change in Energy=-1.195448D-04
 GradGradGradGradGradGradGradGradGradGradGradGradGradGradGradGradGradGrad

                          Input orientation:                          
 ---------------------------------------------------------------------
 Center     Atomic     Atomic              Coordinates (Angstroms)
 Number     Number      Type              X           Y           Z
 ---------------------------------------------------------------------
    1          7             0        0.507838    0.000000    1.174889
    2          1             0        0.495443    0.000000   -2.064722
    3          6             0       -1.041699    0.000000   -0.539316
    4          1             0       -1.930992    0.000000   -1.159549
    5          6             0       -0.862850    0.000000    0.856278
    6          1             0       -1.621815    0.000000    1.631337
    7          1             0        2.233228    0.000000   -0.135362
    8          6             0        1.155140    0.000000   -0.006716
    9          7             0        0.257337    0.000000   -1.077332
 ---------------------------------------------------------------------
                    Distance matrix (angstroms):
                    1          2          3          4          5
     1  N    0.000000
     2  H    3.239635   0.000000
     3  C    2.310750   2.165564   0.000000
     4  H    3.376017   2.589773   1.084219   0.000000
     5  C    1.407231   3.221366   1.407008   2.281335   0.000000
     6  H    2.178018   4.259534   2.246836   2.807959   1.084778
     7  H    2.166502   2.596598   3.299746   4.288319   3.251007
     8  C    1.347291   2.161154   2.260479   3.294425   2.194777
     9  N    2.266109   1.015693   1.406043   2.189873   2.234652
                    6          7          8          9
     6  H    0.000000
     7  H    4.240587   0.000000
     8  C    3.224081   1.085736   0.000000
     9  N    3.296680   2.188938   1.397236   0.000000
 Stoichiometry    C3H4N2
 Framework group  CS[SG(C3H4N2)]
 Deg. of freedom   15
 Full point group                 CS      NOp   2
 Largest Abelian subgroup         CS      NOp   2
 Largest concise Abelian subgroup C1      NOp   1
                         Standard orientation:                         
 ---------------------------------------------------------------------
 Center     Atomic     Atomic              Coordinates (Angstroms)
 Number     Number      Type              X           Y           Z
 ---------------------------------------------------------------------
    1          7             0       -0.766599   -1.024884    0.000000
    2          1             0       -0.002336    2.123312    0.000000
    3          6             0        1.138612    0.282685    0.000000
    4          1             0        2.147613    0.679482    0.000000
    5          6             0        0.640606   -1.033241    0.000000
    6          1             0        1.198867   -1.963342    0.000000
    7          1             0       -2.140606    0.650179    0.000000
    8          6             0       -1.121853    0.274727    0.000000
    9          7             0        0.000000    1.107621    0.000000
 ---------------------------------------------------------------------
 Rotational constants (GHZ):      9.3470389      8.9976553      4.5845100
 Isotopes: N-14,H-1,C-12,H-1,C-12,H-1,H-1,C-12,N-14
 Standard basis: CEP-31G (6D, 10F)
 There are    38 symmetry adapted basis functions of A'  symmetry.
 There are    10 symmetry adapted basis functions of A"  symmetry.
 Crude estimate of integral set expansion from redundant integrals=1.000.
 Integral buffers will be    262144 words long.
 Raffenetti 2 integral format.
 Two-electron integral symmetry is turned on.
    48 basis functions       96 primitive gaussians
    13 alpha electrons       13 beta electrons
       nuclear repulsion energy        83.0119602663 Hartrees.
 One-electron integrals computed using PRISM.
   1 Symmetry operations used in ECPInt.
 ECPInt:  NShTT=     171 NPrTT=     693 LenC2=     172 LenP2D=     643.
 LDataN:  DoStor=F MaxTD1= 2 Len=   12
 LDataN:  DoStor=T MaxTD1= 2 Len=   12
 NBasis=    48 RedAO= T  NBF=    38    10
 NBsUse=    48 1.00D-04 NBFU=    38    10
 Initial guess read from the read-write file:
 Initial guess orbital symmetries:
       Occupied  (A') (A') (A') (A') (A') (A') (A') (A') (A") (A')
                 (A") (A') (A")
       Virtual   (A") (A") (A') (A') (A') (A') (A') (A') (A') (A')
                 (A") (A') (A') (A") (A') (A") (A') (A') (A') (A")
                 (A') (A') (A") (A') (A') (A') (A') (A') (A') (A')
                 (A') (A') (A') (A') (A')
 Requested convergence on RMS density matrix=1.00D-08 within  64 cycles.
 Requested convergence on MAX density matrix=1.00D-06.
 Keep R1 and R2 integrals in memory in canonical form, NReq=     1796396.
 SCF Done:  E(RB+HF-LYP) =  -39.0744268893     A.U. after   10 cycles
             Convg  =    0.9886D-08             -V/T =  2.3177
             S**2   =   0.0000
   2 Symmetry operations used in ECPInt.
 ECPInt:  NShTT=     171 NPrTT=     693 LenC2=     172 LenP2D=     643.
 LDataN:  DoStor=F MaxTD1= 3 Len=   28
 LDataN:  DoStor=T MaxTD1= 3 Len=   28
 ***** Axes restored to original set *****
 -------------------------------------------------------------------
 Center     Atomic                   Forces (Hartrees/Bohr)
 Number     Number              X              Y              Z
 -------------------------------------------------------------------
    1          7           0.002541405    0.000000000   -0.000050783
    2          1          -0.000163939    0.000000000   -0.000135941
    3          6          -0.000315890    0.000000000    0.001393227
    4          1          -0.000139630    0.000000000   -0.000311152
    5          6          -0.001288249    0.000000000   -0.002156668
    6          1           0.000091120    0.000000000    0.000358604
    7          1           0.000326580    0.000000000   -0.000067939
    8          6          -0.002254973    0.000000000    0.001034763
    9          7           0.001203575    0.000000000   -0.000064112
 -------------------------------------------------------------------
 Cartesian Forces:  Max     0.002541405 RMS     0.000919565

 GradGradGradGradGradGradGradGradGradGradGradGradGradGradGradGradGradGrad
 Berny optimization.
 Internal  Forces:  Max     0.001440680 RMS     0.000433972
 Search for a local minimum.
 Step number   5 out of a maximum of  48
 All quantities printed in internal units (Hartrees-Bohrs-Radians)
 Update second derivatives using information from points  2  3  4  5
 Trust test= 1.22D+00 RLast= 2.72D-02 DXMaxT set to 4.24D-01
     Eigenvalues ---    0.03204   0.03262   0.03287   0.03304   0.03350
     Eigenvalues ---    0.03404   0.14481   0.15985   0.16000   0.16032
     Eigenvalues ---    0.21277   0.29350   0.41857   0.47922   0.49444
     Eigenvalues ---    0.49665   0.57129   0.59708   0.65130   0.67746
     Eigenvalues ---    0.774131000.000001000.000001000.000001000.00000
     Eigenvalues --- 1000.000001000.000001000.000001000.000001000.00000
     Eigenvalues --- 1000.000001000.000001000.000001000.000001000.00000
     Eigenvalues --- 1000.000001000.000001000.00000
 RFO step:  Lambda=-8.37479880D-06.
 Quartic linear search produced a step of  0.27794.
 Iteration  1 RMS(Cart)=  0.00103708 RMS(Int)=  0.00000210
 Iteration  2 RMS(Cart)=  0.00000142 RMS(Int)=  0.00000163
 Iteration  3 RMS(Cart)=  0.00000000 RMS(Int)=  0.00000163
 Variable       Old X    -DE/DX   Delta X   Delta X   Delta X     New X
                                 (Linear)    (Quad)   (Total)
    R1        2.65928   0.00144   0.00287   0.00168   0.00455   2.66383
    R2        2.54601  -0.00136  -0.00166  -0.00117  -0.00282   2.54319
    R3        1.91938   0.00009  -0.00083   0.00071  -0.00012   1.91926
    R4        2.04888   0.00029  -0.00126   0.00147   0.00021   2.04909
    R5        2.65886  -0.00096  -0.00255  -0.00052  -0.00308   2.65578
    R6        2.65704   0.00037   0.00248   0.00028   0.00277   2.65980
    R7        2.04993   0.00019  -0.00155   0.00150  -0.00005   2.04988
    R8        2.05174   0.00033  -0.00129   0.00171   0.00042   2.05217
    R9        2.64039  -0.00036   0.00077  -0.00094  -0.00017   2.64022
    A1        1.84357  -0.00064  -0.00191  -0.00029  -0.00220   1.84137
    A2        2.30726   0.00029   0.00113   0.00081   0.00194   2.30921
    A3        2.13993  -0.00007  -0.00137  -0.00045  -0.00182   2.13811
    A4        1.83600  -0.00022   0.00024  -0.00036  -0.00012   1.83587
    A5        1.92664   0.00025   0.00119  -0.00015   0.00104   1.92768
    A6        2.11731  -0.00045  -0.00190  -0.00148  -0.00338   2.11394
    A7        2.23923   0.00020   0.00071   0.00162   0.00234   2.24157
    A8        2.19073  -0.00035  -0.00113   0.00022  -0.00091   2.18981
    A9        1.94260   0.00075   0.00230   0.00039   0.00270   1.94530
   A10        2.14986  -0.00040  -0.00118  -0.00061  -0.00179   2.14807
   A11        2.20008  -0.00011   0.00011  -0.00078  -0.00067   2.19941
   A12        2.20713   0.00025   0.00170   0.00038   0.00208   2.20922
   A13        1.87597  -0.00014  -0.00182   0.00040  -0.00141   1.87456
    D1        0.00000   0.00000   0.00000   0.00000   0.00000   0.00000
    D2        3.14159   0.00000   0.00000   0.00000   0.00000   3.14159
    D3        3.14159   0.00000   0.00000   0.00000   0.00000   3.14159
    D4        0.00000   0.00000   0.00000   0.00000   0.00000   0.00000
    D5        3.14159   0.00000   0.00000   0.00000   0.00000   3.14159
    D6        0.00000   0.00000   0.00000   0.00000   0.00000   0.00000
    D7        0.00000   0.00000   0.00000   0.00000   0.00000   0.00000
    D8        3.14159   0.00000   0.00000   0.00000   0.00000   3.14159
    D9        0.00000   0.00000   0.00000   0.00000   0.00000   0.00000
   D10        3.14159   0.00000   0.00000   0.00000   0.00000   3.14159
   D11        3.14159   0.00000   0.00000   0.00000   0.00000   3.14159
   D12        0.00000   0.00000   0.00000   0.00000   0.00000   0.00000
   D13        3.14159   0.00000   0.00000   0.00000   0.00000   3.14159
   D14        0.00000   0.00000   0.00000   0.00000   0.00000   0.00000
   D15        0.00000   0.00000   0.00000   0.00000   0.00000   0.00000
   D16        3.14159   0.00000   0.00000   0.00000   0.00000   3.14159
         Item               Value     Threshold  Converged?
 Maximum Force            0.001441     0.000450     NO 
 RMS     Force            0.000434     0.000300     NO 
 Maximum Displacement     0.002642     0.001800     NO 
 RMS     Displacement     0.001037     0.001200     YES
 Predicted change in Energy=-1.141617D-05
 GradGradGradGradGradGradGradGradGradGradGradGradGradGradGradGradGradGrad

                          Input orientation:                          
 ---------------------------------------------------------------------
 Center     Atomic     Atomic              Coordinates (Angstroms)
 Number     Number      Type              X           Y           Z
 ---------------------------------------------------------------------
    1          7             0        0.509078    0.000000    1.175343
    2          1             0        0.495041    0.000000   -2.065083
    3          6             0       -1.042636    0.000000   -0.538878
    4          1             0       -1.930947    0.000000   -1.160709
    5          6             0       -0.863692    0.000000    0.855062
    6          1             0       -1.620654    0.000000    1.632041
    7          1             0        2.232283    0.000000   -0.135017
    8          6             0        1.154034    0.000000   -0.005842
    9          7             0        0.257703    0.000000   -1.077573
 ---------------------------------------------------------------------
                    Distance matrix (angstroms):
                    1          2          3          4          5
     1  N    0.000000
     2  H    3.240456   0.000000
     3  C    2.312222   2.166506   0.000000
     4  H    3.377997   2.589075   1.084330   0.000000
     5  C    1.409638   3.220776   1.405379   2.280870   0.000000
     6  H    2.178149   4.259681   2.246552   2.809935   1.084752
     7  H    2.164828   2.596761   3.299727   4.287719   3.250434
     8  C    1.345796   2.162115   2.260417   3.294060   2.193713
     9  N    2.266897   1.015630   1.407506   2.190229   2.234414
                    6          7          8          9
     6  H    0.000000
     7  H    4.238823   0.000000
     8  C    3.222042   1.085959   0.000000
     9  N    3.297004   2.188008   1.397146   0.000000
 Stoichiometry    C3H4N2
 Framework group  CS[SG(C3H4N2)]
 Deg. of freedom   15
 Full point group                 CS      NOp   2
 Largest Abelian subgroup         CS      NOp   2
 Largest concise Abelian subgroup C1      NOp   1
                         Standard orientation:                         
 ---------------------------------------------------------------------
 Center     Atomic     Atomic              Coordinates (Angstroms)
 Number     Number      Type              X           Y           Z
 ---------------------------------------------------------------------
    1          7             0       -0.768435   -1.024671    0.000000
    2          1             0       -0.001169    2.123639    0.000000
    3          6             0        1.139402    0.281671    0.000000
    4          1             0        2.147973    0.679860    0.000000
    5          6             0        0.641182   -1.032432    0.000000
    6          1             0        1.196689   -1.964151    0.000000
    7          1             0       -2.139645    0.650518    0.000000
    8          6             0       -1.121003    0.274121    0.000000
    9          7             0        0.000000    1.108010    0.000000
 ---------------------------------------------------------------------
 Rotational constants (GHZ):      9.3465494      8.9949472      4.5836891
 Isotopes: N-14,H-1,C-12,H-1,C-12,H-1,H-1,C-12,N-14
 Standard basis: CEP-31G (6D, 10F)
 There are    38 symmetry adapted basis functions of A'  symmetry.
 There are    10 symmetry adapted basis functions of A"  symmetry.
 Crude estimate of integral set expansion from redundant integrals=1.000.
 Integral buffers will be    262144 words long.
 Raffenetti 2 integral format.
 Two-electron integral symmetry is turned on.
    48 basis functions       96 primitive gaussians
    13 alpha electrons       13 beta electrons
       nuclear repulsion energy        83.0052114304 Hartrees.
 One-electron integrals computed using PRISM.
   1 Symmetry operations used in ECPInt.
 ECPInt:  NShTT=     171 NPrTT=     693 LenC2=     172 LenP2D=     643.
 LDataN:  DoStor=F MaxTD1= 2 Len=   12
 LDataN:  DoStor=T MaxTD1= 2 Len=   12
 NBasis=    48 RedAO= T  NBF=    38    10
 NBsUse=    48 1.00D-04 NBFU=    38    10
 Initial guess read from the read-write file:
 Initial guess orbital symmetries:
       Occupied  (A') (A') (A') (A') (A') (A') (A') (A') (A") (A')
                 (A") (A') (A")
       Virtual   (A") (A") (A') (A') (A') (A') (A') (A') (A') (A')
                 (A") (A') (A') (A") (A') (A") (A') (A') (A') (A")
                 (A') (A') (A") (A') (A') (A') (A') (A') (A') (A')
                 (A') (A') (A') (A') (A')
 Requested convergence on RMS density matrix=1.00D-08 within  64 cycles.
 Requested convergence on MAX density matrix=1.00D-06.
 Keep R1 and R2 integrals in memory in canonical form, NReq=     1796396.
 SCF Done:  E(RB+HF-LYP) =  -39.0744396993     A.U. after   10 cycles
             Convg  =    0.3535D-08             -V/T =  2.3178
             S**2   =   0.0000
   2 Symmetry operations used in ECPInt.
 ECPInt:  NShTT=     171 NPrTT=     693 LenC2=     172 LenP2D=     643.
 LDataN:  DoStor=F MaxTD1= 3 Len=   28
 LDataN:  DoStor=T MaxTD1= 3 Len=   28
 ***** Axes restored to original set *****
 -------------------------------------------------------------------
 Center     Atomic                   Forces (Hartrees/Bohr)
 Number     Number              X              Y              Z
 -------------------------------------------------------------------
    1          7           0.000498527    0.000000000   -0.000027805
    2          1          -0.000011807    0.000000000   -0.000127292
    3          6           0.000421267    0.000000000    0.000006048
    4          1          -0.000160375    0.000000000   -0.000124063
    5          6          -0.000335982    0.000000000   -0.000248912
    6          1          -0.000083740    0.000000000    0.000207731
    7          1           0.000246270    0.000000000   -0.000045488
    8          6          -0.000763953    0.000000000   -0.000143483
    9          7           0.000189792    0.000000000    0.000503263
 -------------------------------------------------------------------
 Cartesian Forces:  Max     0.000763953 RMS     0.000248364

 GradGradGradGradGradGradGradGradGradGradGradGradGradGradGradGradGradGrad
 Berny optimization.
 Internal  Forces:  Max     0.000416967 RMS     0.000125182
 Search for a local minimum.
 Step number   6 out of a maximum of  48
 All quantities printed in internal units (Hartrees-Bohrs-Radians)
 Update second derivatives using information from points  2  3  4  5  6

 Trust test= 1.12D+00 RLast= 9.70D-03 DXMaxT set to 4.24D-01
     Eigenvalues ---    0.03204   0.03262   0.03287   0.03304   0.03349
     Eigenvalues ---    0.03404   0.13525   0.15937   0.16000   0.16039
     Eigenvalues ---    0.20904   0.29994   0.42041   0.47258   0.49444
     Eigenvalues ---    0.49687   0.56617   0.59603   0.63936   0.66420
     Eigenvalues ---    0.770101000.000001000.000001000.000001000.00000
     Eigenvalues --- 1000.000001000.000001000.000001000.000001000.00000
     Eigenvalues --- 1000.000001000.000001000.000001000.000001000.00000
     Eigenvalues --- 1000.000001000.000001000.00000
 RFO step:  Lambda=-9.65106549D-07.
 Quartic linear search produced a step of  0.13634.
 Iteration  1 RMS(Cart)=  0.00029682 RMS(Int)=  0.00000012
 Iteration  2 RMS(Cart)=  0.00000009 RMS(Int)=  0.00000008
 Variable       Old X    -DE/DX   Delta X   Delta X   Delta X     New X
                                 (Linear)    (Quad)   (Total)
    R1        2.66383   0.00031   0.00062   0.00028   0.00090   2.66473
    R2        2.54319  -0.00017  -0.00039  -0.00006  -0.00044   2.54274
    R3        1.91926   0.00012  -0.00002   0.00020   0.00019   1.91945
    R4        2.04909   0.00020   0.00003   0.00039   0.00041   2.04950
    R5        2.65578   0.00000  -0.00042   0.00026  -0.00016   2.65563
    R6        2.65980  -0.00017   0.00038  -0.00036   0.00001   2.65981
    R7        2.04988   0.00021  -0.00001   0.00042   0.00041   2.05030
    R8        2.05217   0.00025   0.00006   0.00048   0.00053   2.05270
    R9        2.64022  -0.00042  -0.00002  -0.00064  -0.00067   2.63956
    A1        1.84137  -0.00011  -0.00030  -0.00002  -0.00032   1.84106
    A2        2.30921   0.00000   0.00026  -0.00015   0.00012   2.30932
    A3        2.13811  -0.00002  -0.00025  -0.00007  -0.00032   2.13779
    A4        1.83587   0.00002  -0.00002   0.00022   0.00020   1.83607
    A5        1.92768  -0.00015   0.00014  -0.00044  -0.00030   1.92738
    A6        2.11394  -0.00001  -0.00046  -0.00015  -0.00061   2.11332
    A7        2.24157   0.00016   0.00032   0.00059   0.00091   2.24248
    A8        2.18981  -0.00006  -0.00012  -0.00003  -0.00015   2.18966
    A9        1.94530   0.00016   0.00037   0.00021   0.00058   1.94587
   A10        2.14807  -0.00009  -0.00024  -0.00018  -0.00042   2.14765
   A11        2.19941  -0.00007  -0.00009  -0.00016  -0.00025   2.19916
   A12        2.20922   0.00000   0.00028   0.00013   0.00042   2.20963
   A13        1.87456   0.00007  -0.00019   0.00003  -0.00017   1.87439
    D1        0.00000   0.00000   0.00000   0.00000   0.00000   0.00000
    D2        3.14159   0.00000   0.00000   0.00000   0.00000   3.14159
    D3        3.14159   0.00000   0.00000   0.00000   0.00000   3.14159
    D4        0.00000   0.00000   0.00000   0.00000   0.00000   0.00000
    D5        3.14159   0.00000   0.00000   0.00000   0.00000   3.14159
    D6        0.00000   0.00000   0.00000   0.00000   0.00000   0.00000
    D7        0.00000   0.00000   0.00000   0.00000   0.00000   0.00000
    D8        3.14159   0.00000   0.00000   0.00000   0.00000   3.14159
    D9        0.00000   0.00000   0.00000   0.00000   0.00000   0.00000
   D10        3.14159   0.00000   0.00000   0.00000   0.00000   3.14159
   D11        3.14159   0.00000   0.00000   0.00000   0.00000   3.14159
   D12        0.00000   0.00000   0.00000   0.00000   0.00000   0.00000
   D13        3.14159   0.00000   0.00000   0.00000   0.00000   3.14159
   D14        0.00000   0.00000   0.00000   0.00000   0.00000   0.00000
   D15        0.00000   0.00000   0.00000   0.00000   0.00000   0.00000
   D16        3.14159   0.00000   0.00000   0.00000   0.00000   3.14159
         Item               Value     Threshold  Converged?
 Maximum Force            0.000417     0.000450     YES
 RMS     Force            0.000125     0.000300     YES
 Maximum Displacement     0.001127     0.001800     YES
 RMS     Displacement     0.000297     0.001200     YES
 Predicted change in Energy=-6.694182D-07
 Optimization completed.
    -- Stationary point found.
                         ----------------------------
                         !   Optimized Parameters   !
                         ! (Angstroms and Degrees)  !
 ------------------------                            -------------------------
 ! Name  Definition              Value          Derivative Info.             !
 -----------------------------------------------------------------------------
 ! R1    R(1,5)                  1.4096         -DE/DX =    0.0003           !
 ! R2    R(1,8)                  1.3458         -DE/DX =   -0.0002           !
 ! R3    R(2,9)                  1.0156         -DE/DX =    0.0001           !
 ! R4    R(3,4)                  1.0843         -DE/DX =    0.0002           !
 ! R5    R(3,5)                  1.4054         -DE/DX =    0.               !
 ! R6    R(3,9)                  1.4075         -DE/DX =   -0.0002           !
 ! R7    R(5,6)                  1.0848         -DE/DX =    0.0002           !
 ! R8    R(7,8)                  1.086          -DE/DX =    0.0002           !
 ! R9    R(8,9)                  1.3971         -DE/DX =   -0.0004           !
 ! A1    A(5,1,8)              105.5029         -DE/DX =   -0.0001           !
 ! A2    A(4,3,5)              132.3078         -DE/DX =    0.               !
 ! A3    A(4,3,9)              122.5045         -DE/DX =    0.               !
 ! A4    A(5,3,9)              105.1877         -DE/DX =    0.               !
 ! A5    A(1,5,3)              110.448          -DE/DX =   -0.0001           !
 ! A6    A(1,5,6)              121.1196         -DE/DX =    0.               !
 ! A7    A(3,5,6)              128.4325         -DE/DX =    0.0002           !
 ! A8    A(1,8,7)              125.4671         -DE/DX =   -0.0001           !
 ! A9    A(1,8,9)              111.4573         -DE/DX =    0.0002           !
 ! A10   A(7,8,9)              123.0756         -DE/DX =   -0.0001           !
 ! A11   A(2,9,3)              126.017          -DE/DX =   -0.0001           !
 ! A12   A(2,9,8)              126.5788         -DE/DX =    0.               !
 ! A13   A(3,9,8)              107.4042         -DE/DX =    0.0001           !
 ! D1    D(8,1,5,3)              0.             -DE/DX =    0.               !
 ! D2    D(8,1,5,6)            180.             -DE/DX =    0.               !
 ! D3    D(5,1,8,7)            180.             -DE/DX =    0.               !
 ! D4    D(5,1,8,9)              0.             -DE/DX =    0.               !
 ! D5    D(4,3,5,1)            180.             -DE/DX =    0.               !
 ! D6    D(4,3,5,6)              0.             -DE/DX =    0.               !
 ! D7    D(9,3,5,1)              0.             -DE/DX =    0.               !
[...]
   4   1     0.22   0.09   0.00     0.71   0.29   0.00     0.02   0.00   0.00
   5   6     0.00   0.00   0.00    -0.03   0.05   0.00     0.00   0.00   0.00
   6   1     0.02  -0.04   0.00     0.30  -0.52   0.00     0.00   0.00   0.00
   7   1     0.91  -0.33   0.00    -0.20   0.07   0.00    -0.02   0.00   0.00
   8   6    -0.08   0.03   0.00     0.02  -0.01   0.00     0.00   0.00   0.00
   9   7     0.00   0.00   0.00     0.00   0.00   0.00     0.00  -0.08   0.00

 -------------------
 - Thermochemistry -
 -------------------
 Temperature   298.150 Kelvin.  Pressure   1.00000 Atm.
 Atom  1 has atomic number  7 and mass  14.00307
 Atom  2 has atomic number  1 and mass   1.00783
 Atom  3 has atomic number  6 and mass  12.00000
 Atom  4 has atomic number  1 and mass   1.00783
 Atom  5 has atomic number  6 and mass  12.00000
 Atom  6 has atomic number  1 and mass   1.00783
 Atom  7 has atomic number  1 and mass   1.00783
 Atom  8 has atomic number  6 and mass  12.00000
 Atom  9 has atomic number  7 and mass  14.00307
 Molecular mass:    68.03745 amu.
 Principal axes and moments of inertia in atomic units:
                           1         2         3
     EIGENVALUES --   193.09171 200.63944 393.73115
           X            0.46520   0.88521   0.00000
           Y            0.88521  -0.46520   0.00000
           Z            0.00000   0.00000   1.00000
 THIS MOLECULE IS AN ASYMMETRIC TOP.
 ROTATIONAL SYMMETRY NUMBER  1.
 ROTATIONAL TEMPERATURES (KELVIN)      0.44856     0.43169     0.21998
 ROTATIONAL CONSTANTS (GHZ)            9.34655     8.99495     4.58369
 Zero-point vibrational energy     186480.7 (Joules/Mol)
                                   44.56995 (Kcal/Mol)
 WARNING-- EXPLICIT CONSIDERATION OF   1 DEGREES OF FREEDOM AS
           VIBRATIONS MAY CAUSE SIGNIFICANT ERROR
 VIBRATIONAL TEMPERATURES:    886.66   932.41   956.86  1097.76  1198.82
          (KELVIN)           1272.68  1284.14  1335.30  1517.79  1564.65
                             1613.23  1654.45  1814.57  1918.58  2000.51
                             2110.46  2203.23  4712.25  4733.82  4758.27
                             5290.24
 
 Zero-point correction=                           0.071027 (Hartree/Particle)
 Thermal correction to Energy=                    0.074734
 Thermal correction to Enthalpy=                  0.075678
 Thermal correction to Gibbs Free Energy=         0.044728
 Sum of electronic and zero-point Energies=            -39.003413
 Sum of electronic and thermal Energies=               -38.999706
 Sum of electronic and thermal Enthalpies=             -38.998762
 Sum of electronic and thermal Free Energies=          -39.029712
 
                     E (Thermal)             CV                S
                      KCAL/MOL        CAL/MOL-KELVIN    CAL/MOL-KELVIN
 TOTAL                   46.896             13.270             65.140
 ELECTRONIC               0.000              0.000              0.000
 TRANSLATIONAL            0.889              2.981             38.570
 ROTATIONAL               0.889              2.981             24.238
 VIBRATIONAL             45.119              7.308              2.332
 VIBRATION  1             0.976              0.998              0.423
                       Q            LOG10(Q)             LN(Q)
 TOTAL BOT       0.267198D-20        -20.573167        -47.371467
 TOTAL V=0       0.124922D+13         12.096639         27.853540
 VIB (BOT)       0.273975D-32        -32.562288        -74.977440
 VIB (BOT)  1    0.238239D+00         -0.622987         -1.434480
 VIB (V=0)       0.128091D+01          0.107517          0.247567
 VIB (V=0)  1    0.105386D+01          0.022782          0.052457
 ELECTRONIC      0.100000D+01          0.000000          0.000000
 TRANSLATIONAL   0.220588D+08          7.343582         16.909224
 ROTATIONAL      0.442119D+05          4.645539         10.696749
 ***** Axes restored to original set *****
 -------------------------------------------------------------------
 Center     Atomic                   Forces (Hartrees/Bohr)
 Number     Number              X              Y              Z
 -------------------------------------------------------------------
    1          7           0.000498530    0.000000000   -0.000027806
    2          1          -0.000011809    0.000000000   -0.000127289
    3          6           0.000421269    0.000000000    0.000006034
    4          1          -0.000160378    0.000000000   -0.000124064
    5          6          -0.000335980    0.000000000   -0.000248901
    6          1          -0.000083743    0.000000000    0.000207733
    7          1           0.000246266    0.000000000   -0.000045488
    8          6          -0.000763952    0.000000000   -0.000143485
    9          7           0.000189796    0.000000000    0.000503266
 -------------------------------------------------------------------
 Cartesian Forces:  Max     0.000763952 RMS     0.000248364

 GradGradGradGradGradGradGradGradGradGradGradGradGradGradGradGradGradGrad
 Berny optimization.
 Internal  Forces:  Max     0.000416969 RMS     0.000125182
 Search for a local minimum.
 Step number   1 out of a maximum of  48
 All quantities printed in internal units (Hartrees-Bohrs-Radians)
 Second derivative matrix not updated -- analytic derivatives used.
     Eigenvalues ---    0.00756   0.01218   0.02171   0.02866   0.05968
     Eigenvalues ---    0.06175   0.09747   0.10419   0.10884   0.11621
     Eigenvalues ---    0.23147   0.23991   0.32238   0.37443   0.37936
     Eigenvalues ---    0.38043   0.38612   0.42398   0.46852   0.48255
     Eigenvalues ---    0.533131000.000001000.000001000.000001000.00000
     Eigenvalues --- 1000.000001000.000001000.000001000.000001000.00000
     Eigenvalues --- 1000.000001000.000001000.000001000.000001000.00000
     Eigenvalues --- 1000.000001000.000001000.00000
 Angle between quadratic step and forces=  26.01 degrees.
 Linear search not attempted -- first point.
 Iteration  1 RMS(Cart)=  0.00039524 RMS(Int)=  0.00000014
 Iteration  2 RMS(Cart)=  0.00000014 RMS(Int)=  0.00000001
 Variable       Old X    -DE/DX   Delta X   Delta X   Delta X     New X
                                 (Linear)    (Quad)   (Total)
    R1        2.66383   0.00031   0.00000   0.00130   0.00130   2.66513
    R2        2.54319  -0.00017   0.00000  -0.00035  -0.00035   2.54283
    R3        1.91926   0.00012   0.00000   0.00024   0.00024   1.91950
    R4        2.04909   0.00020   0.00000   0.00054   0.00054   2.04963
    R5        2.65578   0.00000   0.00000  -0.00005  -0.00005   2.65573
    R6        2.65980  -0.00017   0.00000  -0.00034  -0.00034   2.65946
    R7        2.04988   0.00021   0.00000   0.00051   0.00051   2.05039
    R8        2.05217   0.00025   0.00000   0.00069   0.00069   2.05286
    R9        2.64022  -0.00042   0.00000  -0.00122  -0.00122   2.63901
    A1        1.84137  -0.00011   0.00000  -0.00043  -0.00043   1.84094
    A2        2.30921   0.00000   0.00000  -0.00003  -0.00003   2.30917
    A3        2.13811  -0.00002   0.00000  -0.00015  -0.00015   2.13796
    A4        1.83587   0.00002   0.00000   0.00018   0.00018   1.83605
    A5        1.92768  -0.00015   0.00000  -0.00047  -0.00047   1.92721
    A6        2.11394  -0.00001   0.00000  -0.00075  -0.00075   2.11319
    A7        2.24157   0.00016   0.00000   0.00122   0.00122   2.24279
    A8        2.18981  -0.00006   0.00000  -0.00030  -0.00030   2.18951
    A9        1.94530   0.00016   0.00000   0.00059   0.00059   1.94589
   A10        2.14807  -0.00009   0.00000  -0.00029  -0.00029   2.14778
   A11        2.19941  -0.00007   0.00000  -0.00051  -0.00051   2.19891
   A12        2.20922   0.00000   0.00000   0.00037   0.00037   2.20959
   A13        1.87456   0.00007   0.00000   0.00013   0.00013   1.87469
    D1        0.00000   0.00000   0.00000   0.00000   0.00000   0.00000
    D2        3.14159   0.00000   0.00000   0.00000   0.00000   3.14159
    D3        3.14159   0.00000   0.00000   0.00000   0.00000   3.14159
    D4        0.00000   0.00000   0.00000   0.00000   0.00000   0.00000
    D5        3.14159   0.00000   0.00000   0.00000   0.00000   3.14159
    D6        0.00000   0.00000   0.00000   0.00000   0.00000   0.00000
    D7        0.00000   0.00000   0.00000   0.00000   0.00000   0.00000
    D8        3.14159   0.00000   0.00000   0.00000   0.00000   3.14159
    D9        0.00000   0.00000   0.00000   0.00000   0.00000   0.00000
   D10        3.14159   0.00000   0.00000   0.00000   0.00000   3.14159
   D11        3.14159   0.00000   0.00000   0.00000   0.00000   3.14159
   D12        0.00000   0.00000   0.00000   0.00000   0.00000   0.00000
   D13        3.14159   0.00000   0.00000   0.00000   0.00000   3.14159
   D14        0.00000   0.00000   0.00000   0.00000   0.00000   0.00000
   D15        0.00000   0.00000   0.00000   0.00000   0.00000   0.00000
   D16        3.14159   0.00000   0.00000   0.00000   0.00000   3.14159
         Item               Value     Threshold  Converged?
 Maximum Force            0.000417     0.000450     YES
 RMS     Force            0.000125     0.000300     YES
 Maximum Displacement     0.001384     0.001800     YES
 RMS     Displacement     0.000395     0.001200     YES
 Predicted change in Energy=-9.794109D-07
 Optimization completed.
    -- Stationary point found.
                         ----------------------------
                         !   Optimized Parameters   !
                         ! (Angstroms and Degrees)  !
 ------------------------                            -------------------------
 ! Name  Definition              Value          Derivative Info.             !
 -----------------------------------------------------------------------------
 ! R1    R(1,5)                  1.4096         -DE/DX =    0.0003           !
 ! R2    R(1,8)                  1.3458         -DE/DX =   -0.0002           !
 ! R3    R(2,9)                  1.0156         -DE/DX =    0.0001           !
 ! R4    R(3,4)                  1.0843         -DE/DX =    0.0002           !
 ! R5    R(3,5)                  1.4054         -DE/DX =    0.               !
 ! R6    R(3,9)                  1.4075         -DE/DX =   -0.0002           !
 ! R7    R(5,6)                  1.0848         -DE/DX =    0.0002           !
 ! R8    R(7,8)                  1.086          -DE/DX =    0.0002           !
 ! R9    R(8,9)                  1.3971         -DE/DX =   -0.0004           !
 ! A1    A(5,1,8)              105.5029         -DE/DX =   -0.0001           !
 ! A2    A(4,3,5)              132.3078         -DE/DX =    0.               !
 ! A3    A(4,3,9)              122.5045         -DE/DX =    0.               !
 ! A4    A(5,3,9)              105.1877         -DE/DX =    0.               !
 ! A5    A(1,5,3)              110.448          -DE/DX =   -0.0001           !
 ! A6    A(1,5,6)              121.1196         -DE/DX =    0.               !
 ! A7    A(3,5,6)              128.4325         -DE/DX =    0.0002           !
 ! A8    A(1,8,7)              125.4671         -DE/DX =   -0.0001           !
 ! A9    A(1,8,9)              111.4573         -DE/DX =    0.0002           !
 ! A10   A(7,8,9)              123.0756         -DE/DX =   -0.0001           !
 ! A11   A(2,9,3)              126.017          -DE/DX =   -0.0001           !
 ! A12   A(2,9,8)              126.5788         -DE/DX =    0.               !
 ! A13   A(3,9,8)              107.4042         -DE/DX =    0.0001           !
 ! D1    D(8,1,5,3)              0.             -DE/DX =    0.               !
 ! D2    D(8,1,5,6)            180.             -DE/DX =    0.               !
 ! D3    D(5,1,8,7)            180.             -DE/DX =    0.               !
 ! D4    D(5,1,8,9)              0.             -DE/DX =    0.               !
 ! D5    D(4,3,5,1)            180.             -DE/DX =    0.               !
 ! D6    D(4,3,5,6)              0.             -DE/DX =    0.               !
 ! D7    D(9,3,5,1)              0.             -DE/DX =    0.               !
 ! D8    D(9,3,5,6)            180.             -DE/DX =    0.               !
 ! D9    D(4,3,9,2)              0.             -DE/DX =    0.               !
 ! D10   D(4,3,9,8)            180.             -DE/DX =    0.               !
 ! D11   D(5,3,9,2)            180.             -DE/DX =    0.               !
 ! D12   D(5,3,9,8)              0.             -DE/DX =    0.               !
 ! D13   D(1,8,9,2)            180.             -DE/DX =    0.               !
 ! D14   D(1,8,9,3)              0.             -DE/DX =    0.               !
 ! D15   D(7,8,9,2)              0.             -DE/DX =    0.               !
 ! D16   D(7,8,9,3)            180.             -DE/DX =    0.               !
 -----------------------------------------------------------------------------
 GradGradGradGradGradGradGradGradGradGradGradGradGradGradGradGradGradGrad

 1\1\GINC-INDIUM\Freq\RB3LYP\CEP-31G\C3H4N2\RDJ3\10-Sep-2000\0\\#N GEOM
 =ALLCHECK GUESS=TCHECK RB3LYP/CEP-31G FREQ\\1H imidazole C3H4N2 casno=
 288324\\0,1\N,0.5090606975,0.,1.1752874325\H,0.4950232671,0.,-2.065138
 1699\C,-1.042653269,0.,-0.5389340462\H,-1.930964778,0.,-1.1607648508\C
 ,-0.8637095901,0.,0.8550061406\H,-1.6206712818,0.,1.6319853434\H,2.232
 2659666,0.,-0.1350724962\C,1.1540167362,0.,-0.0058978218\N,0.257685565
 9,0.,-1.0776288158\\Version=IBM-RS6000-G98RevA.6\State=1-A'\HF=-39.074
 4397\RMSD=9.421e-10\RMSF=2.484e-04\Dipole=-0.1917476,0.,-1.635786\Dipo
 leDeriv=-0.3070825,0.0000702,0.01504,0.0000261,-0.2941213,-0.0000264,0
 .0285705,0.0000369,-0.484503,0.1971461,0.0000074,-0.0173593,-0.0000081
 ,0.389671,-0.0000157,0.0075112,0.0000368,0.1641529,-0.0151788,0.000294
 2,-0.2993515,0.0000049,-0.1885821,0.0000496,-0.0847868,0.0002396,0.180
 9143,0.0153182,-0.0002685,-0.0539529,-0.0000688,0.2517599,0.0000107,-0
 .0959604,-0.000134,0.0408694,0.1636993,-0.0001355,-0.0298045,0.0000159
 ,-0.1943681,-0.0000407,-0.1340605,-0.0001862,0.1002241,0.0065088,0.000
 0441,0.0661205,-0.0001118,0.2057679,0.0000842,0.1083406,0.0000296,0.03
 77539,-0.0475547,-0.0000966,0.0378276,0.0000483,0.2122579,0.0000237,0.
 0390498,0.0000192,0.0851238,0.1134236,0.0000115,0.0905463,-0.0000833,-
 0.0725369,0.0000491,0.0299243,-0.0001302,0.5237947,-0.1262789,0.000073
 4,0.1909335,0.0001768,-0.3098482,-0.0001346,0.1014113,0.0000884,-0.648
 3297\Polar=48.4863984,0.0000827,21.2627744,-0.0754055,0.0003201,48.002
 8125\PG=CS [SG(C3H4N2)]\NImag=0\\0.45996056,0.00000231,0.09847524,-0.0
 5951743,0.00000071,0.51050406,-0.00338691,0.00000046,-0.00741415,0.081
 81517,0.00000038,0.00620015,0.00000056,-0.00000014,0.01466952,-0.00240
 855,-0.00000014,-0.00226523,-0.09607827,0.00000076,0.45656574,-0.03339
 265,0.00000410,-0.01739219,0.00574547,0.00000157,-0.00723010,0.7191289
 0,0.00000011,0.01738369,0.00000208,0.00000193,-0.00473956,-0.00000477,
 -0.00000132,0.11517185,-0.07989267,0.00000218,-0.02295314,0.03020130,0
 .00000023,0.00055180,0.17067290,0.00000701,0.73052918,0.00154884,-0.00
 000424,0.00142578,-0.00004460,-0.00000078,0.00029639,-0.26075133,-0.00
 000597,-0.14414438,0.27271200,-0.00000154,0.00638674,0.00000075,-0.000
 00020,-0.00108562,0.00000051,0.00000030,-0.02423961,-0.00000006,0.0000
 0096,0.01953312,-0.00333199,-0.00000231,-0.00429737,-0.00103861,-0.000
 00037,0.00031222,-0.15600528,-0.00000314,-0.16533943,0.15454674,0.0000
 0065,0.15731209,-0.23618742,-0.00000168,-0.01722726,-0.00870520,-0.000
 00078,-0.00167946,-0.09441538,-0.00000294,-0.02347269,0.00437613,-0.00
 000070,-0.02123204,0.63519960,-0.00000055,-0.06703353,-0.00000157,-0.0
 0000137,0.00286952,0.00000319,-0.00000131,-0.06579647,-0.00000592,0.00
 000591,-0.00018267,0.00000313,0.00000286,0.13253228,-0.04241179,-0.000
 00186,-0.09802896,0.00244356,-0.00000072,0.00076198,-0.03339975,0.0000
 0002,-0.38342781,0.00546352,0.00000008,0.00411404,-0.17092948,0.000000
 79,0.77901909,-0.01607265,-0.00000034,0.01992556,0.00072120,-0.0000000
 3,0.00004950,0.00740808,0.00000357,-0.00892340,0.00011982,0.00000133,0
 .00088652,-0.19738311,-0.00000277,0.15432837,0.21025424,-0.00000171,-0
 .00476657,0.00000054,0.00000031,0.00165397,-0.00000143,-0.00000019,0.0
 0015930,0.00000147,-0.00000161,-0.00198991,-0.00000058,-0.00000035,-0.
 03045083,-0.00000038,0.00000223,0.02358073,-0.01037372,0.00000150,0.01
 072354,0.00109517,0.00000036,0.00014093,0.02069273,-0.00000301,-0.0049
 4157,-0.00087917,-0.00000127,-0.00060637,0.15856337,0.00000181,-0.2225
 8493,-0.16281137,-0.00000142,0.22071397,-0.00558422,-0.00000250,-0.000
 57459,-0.00039123,-0.00000052,-0.00062042,0.00111736,-0.00000390,-0.00
 357383,-0.00038356,0.00000090,0.00026715,0.00197255,0.00000276,0.00271
 801,-0.00050704,0.00000091,0.00006926,0.37519921,0.00000118,-0.0044861
 4,-0.00000059,0.00000092,-0.00100245,-0.00000207,0.00000161,0.00339812
 ,0.00000578,-0.00000470,0.00156045,-0.00000251,-0.00000137,0.00714618,
 -0.00000245,0.00000106,0.00087727,-0.00000028,-0.00000192,0.02195073,0
 .02805339,0.00000052,-0.00000178,0.00041343,0.00000011,0.00025404,-0.0
 0063367,-0.00000009,-0.00568628,-0.00106434,-0.00000018,0.00101130,0.0
 0263420,-0.00000008,-0.00407440,0.00146596,-0.00000058,0.00056541,-0.0
 3743547,0.00000022,0.06037309,-0.15995755,0.00000081,0.10399524,0.0150
 5779,0.00000011,0.01548707,-0.08534098,0.00000510,0.00341526,-0.002521
 84,-0.00000044,0.00439771,-0.08730863,-0.00000274,0.01834005,-0.005364
 79,0.00000083,-0.00480699,-0.36222435,0.00000117,0.03704296,0.87762662
 ,-0.00000204,-0.07275831,0.00000012,0.00000006,-0.00582797,-0.00000115
 ,-0.00000354,0.01451404,-0.00000053,0.00000177,0.00328443,0.00000099,0
 .00000037,0.00865282,0.00000150,0.00000160,0.00574071,-0.00000185,0.00
 000128,-0.02746918,-0.00000044,0.00000069,0.13475434,0.14184273,-0.000
 00331,-0.29246293,-0.02092386,-0.00000137,-0.00814896,-0.03969270,-0.0
 0000121,-0.01078908,0.00341318,-0.00000045,-0.00576347,0.06100350,0.00
 000156,-0.00832198,-0.00126411,0.00000214,0.00041441,0.03306107,0.0000
 0030,-0.05808417,-0.09226467,0.00000219,0.58092159,-0.00692802,0.00000
 107,-0.02322097,-0.09081170,0.00000019,0.09218382,-0.25949948,0.000003
 41,0.05571752,-0.01505547,-0.00000062,0.02150980,-0.01754853,-0.000002
 80,0.06344753,0.00082424,-0.00000042,-0.00154929,-0.00919872,0.0000020
 4,-0.03047645,-0.18996629,-0.00000019,-0.08517516,0.58818397,0.0000018
 6,0.02059872,-0.00000261,-0.00000197,-0.01273757,0.00000510,-0.0000012
 2,-0.05585136,-0.00001015,0.00000865,-0.00326693,0.00000412,0.00000458
 ,0.01226270,0.00000303,-0.00000666,0.00519533,0.00000416,0.00000298,-0
 .00197498,0.00000051,-0.00000554,-0.06089087,0.00000016,-0.00000268,0.
 09666495,0.02804005,0.00000271,-0.10121820,0.09130142,0.00000045,-0.44
 817253,0.06298806,0.00000311,-0.13794368,-0.01905772,-0.00000004,0.013
 25700,0.01233986,-0.00000290,-0.06745703,-0.00365704,0.00000024,-0.004
 42540,0.00608882,0.00000160,0.00564279,-0.08560665,-0.00000083,-0.1977
 6541,-0.09243681,-0.00000432,0.93808245\\-0.00049853,0.,0.00002781,0.0
 0001181,0.,0.00012729,-0.00042127,0.,-0.00000603,0.00016038,0.,0.00012
 406,0.00033598,0.,0.00024890,0.00008374,0.,-0.00020773,-0.00024627,0.,
 0.00004549,0.00076395,0.,0.00014349,-0.00018980,0.,-0.00050327\\\@


 I (ERNEST RUTHERFORD) CAME INTO THE ROOM, WHICH WAS HALF DARK, AND PRESENTLY
 SPOTTED LORD KELVIN IN THE AUDIENCE AND REALIZED I WAS IN TROUBLE AT
 THE LAST PART OF MY SPEECH DEALING THE AGE OF THE EARTH, WHERE MY VIEWS
 CONFLICTED WITH HIS.  TO MY RELIEF KELVIN FELL FAST ASLEEP, BUT AS I CAME
 TO THE IMPORTANT POINT, I SAW THE OLD BIRD SIT UP AND COCK A BALEFUL GLANCE
 AT ME! THEN A SUDDEN INSPIRATION CAME AND I SAID LORD KELVIN HAD LIMITED
 THE AGE OF THE EARTH PROVIDED NO NEW SOURCE WAS DISCOVERED. THAT
 PROPHETIC UTTERANCE REFERS TO WHAT WE ARE NOW CONSIDERING TONIGHT, RADIUM!
 BEHOLD!  THE OLD BOY BEAMED UPON ME.
 Job cpu time:  0 days  0 hours  2 minutes 42.6 seconds.
 File lengths (MBytes):  RWF=   12 Int=    0 D2E=    0 Chk=    8 Scr=    1
 Normal termination of Gaussian 98.
