 Entering Gaussian System, Link 0=g98
 Initial command:
 /usr/local/apps/g98a6/g98/l1.exe /wrk/rdj3/Gau-15926.inp -scrdir=/wrk/rdj3/
 Entering Link 1 = /usr/local/apps/g98a6/g98/l1.exe PID=     17424.
  
 Copyright (c) 1988,1990,1992,1993,1995,1998 Gaussian, Inc.
                  All Rights Reserved.
  
 This is part of the Gaussian(R) 98 program.  It is based on
 the Gaussian 94(TM) system (copyright 1995 Gaussian, Inc.),
 the Gaussian 92(TM) system (copyright 1992 Gaussian, Inc.),
 the Gaussian 90(TM) system (copyright 1990 Gaussian, Inc.),
 the Gaussian 88(TM) system (copyright 1988 Gaussian, Inc.),
 the Gaussian 86(TM) system (copyright 1986 Carnegie Mellon
 University), and the Gaussian 82(TM) system (copyright 1983
 Carnegie Mellon University). Gaussian is a federally registered
 trademark of Gaussian, Inc.
  
 This software contains proprietary and confidential information,
 including trade secrets, belonging to Gaussian, Inc.
  
 This software is provided under written license and may be
 used, copied, transmitted, or stored only in accord with that
 written license.
  
 The following legend is applicable only to US Government
 contracts under DFARS:
  
                    RESTRICTED RIGHTS LEGEND
  
 Use, duplication or disclosure by the US Government is subject
 to restrictions as set forth in subparagraph (c)(1)(ii) of the
 Rights in Technical Data and Computer Software clause at DFARS
 252.227-7013.
  
 Gaussian, Inc.
 Carnegie Office Park, Building 6, Pittsburgh, PA 15106 USA
  
 The following legend is applicable only to US Government
 contracts under FAR:
  
                    RESTRICTED RIGHTS LEGEND
  
 Use, reproduction and disclosure by the US Government is subject
 to restrictions as set forth in subparagraph (c) of the
 Commercial Computer Software - Restricted Rights clause at FAR
 52.227-19.
  
 Gaussian, Inc.
 Carnegie Office Park, Building 6, Pittsburgh, PA 15106 USA
  
  
 ---------------------------------------------------------------
 Warning -- This program may not be used in any manner that
 competes with the business of Gaussian, Inc. or will provide
 assistance to any competitor of Gaussian, Inc.  The licensee
 of this program is prohibited from giving any competitor of
 Gaussian, Inc. access to this program.  By using this program,
 the user acknowledges that Gaussian, Inc. is engaged in the
 business of creating and licensing software in the field of
 computational chemistry and represents and warrants to the
 licensee that it is not a competitor of Gaussian, Inc. and that
 it will not use this program in any manner prohibited above.
 ---------------------------------------------------------------
  

 Cite this work as:
 Gaussian 98, Revision A.6,
 M. J. Frisch, G. W. Trucks, H. B. Schlegel, G. E. Scuseria, 
 M. A. Robb, J. R. Cheeseman, V. G. Zakrzewski, J. A. Montgomery, Jr., 
 R. E. Stratmann, J. C. Burant, S. Dapprich, J. M. Millam, 
 A. D. Daniels, K. N. Kudin, M. C. Strain, O. Farkas, J. Tomasi, 
 V. Barone, M. Cossi, R. Cammi, B. Mennucci, C. Pomelli, C. Adamo, 
 S. Clifford, J. Ochterski, G. A. Petersson, P. Y. Ayala, Q. Cui, 
 K. Morokuma, D. K. Malick, A. D. Rabuck, K. Raghavachari, 
 J. B. Foresman, J. Cioslowski, J. V. Ortiz, B. B. Stefanov, G. Liu, 
 A. Liashenko, P. Piskorz, I. Komaromi, R. Gomperts, R. L. Martin, 
 D. J. Fox, T. Keith, M. A. Al-Laham, C. Y. Peng, A. Nanayakkara, 
 C. Gonzalez, M. Challacombe, P. M. W. Gill, B. Johnson, W. Chen, 
 M. W. Wong, J. L. Andres, C. Gonzalez, M. Head-Gordon, 
 E. S. Replogle, and J. A. Pople, 
 Gaussian, Inc., Pittsburgh PA, 1998.

 **********************************************
 Gaussian 98:  IBM-RS6000-G98RevA.6 19-Oct-1998
                   2-Jan-2001 
 **********************************************
 %mem=24000000
 -------------------
 #B3LYP/SDD opt freq
 -------------------
 1/14=-1,18=20,26=3,38=1/1,3;
 2/9=110,17=6,18=5/2;
 3/5=17,6=7,11=2,16=1,25=1,30=1/1,2,3;
 4/11=1/1;
 5/5=2,38=4,42=-5/2;
 6/7=2,8=2,9=2,10=2,28=1/1;
 7//1,2,3,16;
 1/14=-1,18=20/3(1);
 99//99;
 2/9=110/2;
 3/5=17,6=7,11=2,16=1,25=1,30=1/1,2,3;
 4/5=5,11=1,16=2/1;
 5/5=2,38=4,42=-5/2;
 7//1,2,3,16;
 1/14=-1,18=20/3(-5);
 2/9=110/2;
 6/7=2,8=2,9=2,10=2,19=2,28=1/1;
 99/9=1/99;
 --------------------------------
 1H imidazole C3H4N2 casno=288324
 --------------------------------
 Symbolic Z-matrix:
 Charge =  0 Multiplicity = 1
 N                     0.30938   0.        1.30938 
 H                     0.3125    0.       -1.6875 
 C                    -1.06875   0.       -0.28438 
 H                    -1.91875   0.       -0.79063 
 C                    -0.93438   0.        1.02812 
 H                    -1.675     0.        1.6875 
 H                     1.91875   0.        0.09063 
 C                     0.93438   0.        0.19063 
 N                     0.09688   0.       -0.775 

 GradGradGradGradGradGradGradGradGradGradGradGradGradGradGradGradGradGrad
 Berny optimization.
 Initialization pass.
                         ----------------------------
                         !    Initial Parameters    !
                         ! (Angstroms and Degrees)  !
 ------------------------                            -------------------------
 ! Name  Definition              Value          Derivative Info.             !
 -----------------------------------------------------------------------------
 ! R1    R(1,5)                  1.2752         estimate D2E/DX2             !
 ! R2    R(1,8)                  1.2815         estimate D2E/DX2             !
 ! R3    R(2,9)                  0.9376         estimate D2E/DX2             !
 ! R4    R(3,4)                  0.9893         estimate D2E/DX2             !
 ! R5    R(3,5)                  1.3194         estimate D2E/DX2             !
 ! R6    R(3,9)                  1.2647         estimate D2E/DX2             !
 ! R7    R(5,6)                  0.9916         estimate D2E/DX2             !
 ! R8    R(7,8)                  0.9894         estimate D2E/DX2             !
 ! R9    R(8,9)                  1.2782         estimate D2E/DX2             !
 ! A1    A(5,1,8)              106.4483         estimate D2E/DX2             !
 ! A2    A(4,3,5)              126.6232         estimate D2E/DX2             !
 ! A3    A(4,3,9)              126.3957         estimate D2E/DX2             !
 ! A4    A(5,3,9)              106.9812         estimate D2E/DX2             !
 ! A5    A(1,5,3)              108.5877         estimate D2E/DX2             !
 ! A6    A(1,5,6)              125.5794         estimate D2E/DX2             !
 ! A7    A(3,5,6)              125.8329         estimate D2E/DX2             !
 ! A8    A(1,8,7)              124.9909         estimate D2E/DX2             !
 ! A9    A(1,8,9)              109.8741         estimate D2E/DX2             !
 ! A10   A(7,8,9)              125.1349         estimate D2E/DX2             !
 ! A11   A(2,9,3)              126.122          estimate D2E/DX2             !
 ! A12   A(2,9,8)              125.7693         estimate D2E/DX2             !
 ! A13   A(3,9,8)              108.1088         estimate D2E/DX2             !
 ! D1    D(8,1,5,3)              0.             estimate D2E/DX2             !
 ! D2    D(8,1,5,6)            180.             estimate D2E/DX2             !
 ! D3    D(5,1,8,7)            180.             estimate D2E/DX2             !
 ! D4    D(5,1,8,9)              0.             estimate D2E/DX2             !
 ! D5    D(4,3,5,1)            180.             estimate D2E/DX2             !
 ! D6    D(4,3,5,6)              0.             estimate D2E/DX2             !
 ! D7    D(9,3,5,1)              0.             estimate D2E/DX2             !
 ! D8    D(9,3,5,6)            180.             estimate D2E/DX2             !
 ! D9    D(4,3,9,2)              0.             estimate D2E/DX2             !
 ! D10   D(4,3,9,8)            180.             estimate D2E/DX2             !
 ! D11   D(5,3,9,2)            180.             estimate D2E/DX2             !
 ! D12   D(5,3,9,8)              0.             estimate D2E/DX2             !
 ! D13   D(1,8,9,2)            180.             estimate D2E/DX2             !
 ! D14   D(1,8,9,3)              0.             estimate D2E/DX2             !
 ! D15   D(7,8,9,2)              0.             estimate D2E/DX2             !
 ! D16   D(7,8,9,3)            180.             estimate D2E/DX2             !
 -----------------------------------------------------------------------------
 Trust Radius=3.00D-01 FncErr=1.00D-07 GrdErr=1.00D-06
 Number of steps in this run=  48 maximum allowed number of steps= 100.
 GradGradGradGradGradGradGradGradGradGradGradGradGradGradGradGradGradGrad

                          Input orientation:                          
 ---------------------------------------------------------------------
 Center     Atomic     Atomic              Coordinates (Angstroms)
 Number     Number      Type              X           Y           Z
 ---------------------------------------------------------------------
    1          7             0        0.309375    0.000000    1.309375
    2          1             0        0.312500    0.000000   -1.687500
    3          6             0       -1.068750    0.000000   -0.284375
    4          1             0       -1.918750    0.000000   -0.790625
    5          6             0       -0.934375    0.000000    1.028125
    6          1             0       -1.675000    0.000000    1.687500
    7          1             0        1.918750    0.000000    0.090625
    8          6             0        0.934375    0.000000    0.190625
    9          7             0        0.096875    0.000000   -0.775000
 ---------------------------------------------------------------------
                    Distance matrix (angstroms):
                    1          2          3          4          5
     1  N    0.000000
     2  H    2.996877   0.000000
     3  C    2.106957   1.968911   0.000000
     4  H    3.061787   2.404758   0.989338   0.000000
     5  C    1.275153   2.988196   1.319361   2.068054   0.000000
     6  H    2.020080   3.916731   2.062966   2.490084   0.991615
     7  H    2.018772   2.396199   3.010944   3.937386   3.003203
     8  C    1.281494   1.978404   2.058673   3.017147   2.047836
     9  N    2.095179   0.937630   1.264672   2.015686   2.077194
                    6          7          8          9
     6  H    0.000000
     7  H    3.932563   0.000000
     8  C    3.008234   0.989441   0.000000
     9  N    3.033718   2.017061   1.278217   0.000000
 Stoichiometry    C3H4N2
 Framework group  CS[SG(C3H4N2)]
 Deg. of freedom   15
 Full point group                 CS      NOp   2
 Largest Abelian subgroup         CS      NOp   2
 Largest concise Abelian subgroup C1      NOp   1
                         Standard orientation:                         
 ---------------------------------------------------------------------
 Center     Atomic     Atomic              Coordinates (Angstroms)
 Number     Number      Type              X           Y           Z
 ---------------------------------------------------------------------
    1          7             0       -0.674969   -0.941702    0.000000
    2          1             0       -0.005288    1.979393    0.000000
    3          6             0        1.025744    0.302019    0.000000
    4          1             0        1.967693    0.604544    0.000000
    5          6             0        0.600174   -0.946822    0.000000
    6          1             0        1.173884   -1.755622    0.000000
    7          1             0       -1.969692    0.607211    0.000000
    8          6             0       -1.032886    0.288794    0.000000
    9          7             0        0.000000    1.041778    0.000000
 ---------------------------------------------------------------------
 Rotational constants (GHZ):     11.1543393     10.4769603      5.4025219
 Isotopes: N-14,H-1,C-12,H-1,C-12,H-1,H-1,C-12,N-14
 Standard basis: SDD (6D, 10F)
 There are    48 symmetry adapted basis functions of A'  symmetry.
 There are    10 symmetry adapted basis functions of A"  symmetry.
 Crude estimate of integral set expansion from redundant integrals=1.000.
 Integral buffers will be    262144 words long.
 Raffenetti 2 integral format.
 Two-electron integral symmetry is turned on.
    58 basis functions      136 primitive gaussians
    18 alpha electrons       18 beta electrons
       nuclear repulsion energy       173.5664837334 Hartrees.
 One-electron integrals computed using PRISM.
   1 Symmetry operations used in ECPInt.
 ECPInt:  NShTT=     741 NPrTT=    3858 LenC2=     741 LenP2D=    3133.
 LDataN:  DoStor=F MaxTD1= 2 Len=   12
 LDataN:  DoStor=T MaxTD1= 2 Len=   12
 NBasis=    58 RedAO= T  NBF=    48    10
 NBsUse=    58 1.00D-04 NBFU=    48    10
 Projected Huckel Guess.
 Initial guess orbital symmetries:
       Occupied  (A') (A') (A') (A') (A') (A') (A') (A') (A') (A')
                 (A') (A") (A') (A') (A') (A") (A') (A")
       Virtual   (A") (A") (A') (A') (A') (A') (A') (A') (A') (A')
                 (A') (A') (A') (A') (A') (A') (A') (A') (A') (A')
                 (A') (A') (A') (A') (A') (A') (A') (A') (A') (A')
                 (A') (A') (A') (A') (A') (A") (A") (A") (A") (A")
 Requested convergence on RMS density matrix=1.00D-08 within  64 cycles.
 Requested convergence on MAX density matrix=1.00D-06.
 Keep R1 and R2 integrals in memory in canonical form, NReq=     3345028.
 Integral accuracy reduced to 1.0D-05 until final iterations.
 Initial convergence to 1.0D-05 achieved.  Increase integral accuracy.
 SCF Done:  E(RB+HF-LYP) =  -226.093057025     A.U. after   16 cycles
             Convg  =    0.5403D-08             -V/T =  1.9965
             S**2   =   0.0000

 **********************************************************************

            Population analysis using the SCF density.

 **********************************************************************

 Orbital Symmetries:
       Occupied  (A') (A') (A') (A') (A') (A') (A') (A') (A') (A')
                 (A') (A") (A') (A') (A') (A") (A') (A")
       Virtual   (A") (A') (A") (A') (A') (A') (A') (A') (A') (A")
                 (A') (A") (A') (A") (A') (A') (A') (A') (A") (A')
                 (A') (A") (A') (A') (A') (A') (A') (A') (A') (A')
                 (A') (A') (A') (A') (A') (A') (A') (A') (A') (A')
  The electronic state is 1-A'.
 Alpha  occ. eigenvalues --  -14.38745 -14.29531 -10.22109 -10.19742 -10.17650
 Alpha  occ. eigenvalues --   -1.10499  -0.92492  -0.78205  -0.66444  -0.62657
 Alpha  occ. eigenvalues --   -0.60091  -0.48103  -0.47575  -0.45438  -0.43441
 Alpha  occ. eigenvalues --   -0.30612  -0.24479  -0.23949
 Alpha virt. eigenvalues --    0.04073   0.08497   0.08637   0.14633   0.16132
 Alpha virt. eigenvalues --    0.18315   0.20240   0.25919   0.26247   0.28987
 Alpha virt. eigenvalues --    0.31977   0.34300   0.37060   0.38647   0.40179
 Alpha virt. eigenvalues --    0.43290   0.45347   0.51577   0.56396   0.61099
 Alpha virt. eigenvalues --    0.65168   0.65333   0.68769   0.74052   0.80383
 Alpha virt. eigenvalues --    0.83035   0.87203   0.90149   0.92776   1.10582
 Alpha virt. eigenvalues --    1.21687   1.26451   1.28494   1.38118   1.56412
 Alpha virt. eigenvalues --   22.67626  22.76114  22.96134  31.73013  31.83444
          Condensed to atoms (all electrons):
              1          2          3          4          5          6
  1  N    6.007230   0.011885  -0.155406   0.003711   0.579608  -0.007032
  2  H    0.011885   0.490493  -0.051948   0.001566   0.017334   0.000091
  3  C   -0.155406  -0.051948   5.639650   0.325868   0.416853  -0.043769
  4  H    0.003711   0.001566   0.325868   0.359494   0.002625   0.001954
  5  C    0.579608   0.017334   0.416853   0.002625   5.397397   0.363278
  6  H   -0.007032   0.000091  -0.043769   0.001954   0.363278   0.379592
  7  H   -0.008239   0.002173  -0.002447   0.000001   0.009258   0.000011
  8  C    0.629813  -0.013062  -0.222037   0.010919  -0.340607   0.011695
  9  N   -0.066135   0.233188   0.438466  -0.006615  -0.087515   0.003521
              7          8          9
  1  N   -0.008239   0.629813  -0.066135
  2  H    0.002173  -0.013062   0.233188
  3  C   -0.002447  -0.222037   0.438466
  4  H    0.000001   0.010919  -0.006615
  5  C    0.009258  -0.340607  -0.087515
  6  H    0.000011   0.011695   0.003521
  7  H    0.400102   0.335315  -0.030343
  8  C    0.335315   5.490720   0.454947
  9  N   -0.030343   0.454947   6.197477
 Total atomic charges:
              1
  1  N    0.004565
  2  H    0.308281
  3  C   -0.345229
  4  H    0.300477
  5  C   -0.358231
  6  H    0.290660
  7  H    0.294169
  8  C   -0.357702
  9  N   -0.136990
 Sum of Mulliken charges=   0.00000
 Atomic charges with hydrogens summed into heavy atoms:
              1
  1  N    0.004565
  2  H    0.000000
  3  C   -0.044752
  4  H    0.000000
  5  C   -0.067571
  6  H    0.000000
  7  H    0.000000
  8  C   -0.063533
  9  N    0.171291
 Sum of Mulliken charges=   0.00000
 Electronic spatial extent (au):  <R**2>=   259.4212
 Charge=     0.0000 electrons
 Dipole moment (Debye):
    X=     1.3890    Y=     4.0788    Z=     0.0000  Tot=     4.3089
 Quadrupole moment (Debye-Ang):
   XX=   -27.2212   YY=   -25.9750   ZZ=   -30.7924
   XY=    -3.5570   XZ=     0.0000   YZ=     0.0000
 Octapole moment (Debye-Ang**2):
  XXX=     1.2545  YYY=    16.4515  ZZZ=     0.0000  XYY=     5.8143
  XXY=     5.7845  XXZ=     0.0000  XZZ=    -0.6626  YZZ=     1.3958
  YYZ=     0.0000  XYZ=     0.0000
 Hexadecapole moment (Debye-Ang**3):
 XXXX=  -138.2807 YYYY=  -128.7054 ZZZZ=   -31.5013 XXXY=    -3.4572
 XXXZ=     0.0000 YYYX=    -8.7745 YYYZ=     0.0000 ZZZX=     0.0000
 ZZZY=     0.0000 XXYY=   -51.6388 XXZZ=   -34.5898 YYZZ=   -32.2744
 XXYZ=     0.0000 YYXZ=     0.0000 ZZXY=     0.5594
 N-N= 1.735664837334D+02 E-N=-8.743871258120D+02  KE= 2.268954542257D+02
 Symmetry A'   KE= 2.185444597814D+02
 Symmetry A"   KE= 8.350994444375D+00
   2 Symmetry operations used in ECPInt.
 ECPInt:  NShTT=     741 NPrTT=    3858 LenC2=     741 LenP2D=    3133.
 LDataN:  DoStor=F MaxTD1= 3 Len=   28
 LDataN:  DoStor=T MaxTD1= 3 Len=   28
 ***** Axes restored to original set *****
 -------------------------------------------------------------------
 Center     Atomic                   Forces (Hartrees/Bohr)
 Number     Number              X              Y              Z
 -------------------------------------------------------------------
    1          7           0.093436197    0.000000000    0.108717767
    2          1           0.019456050    0.000000000   -0.080969038
    3          6          -0.103557477    0.000000000    0.002406407
    4          1          -0.067810979    0.000000000   -0.047658194
    5          6          -0.060529497    0.000000000    0.008409915
    6          1          -0.057699467    0.000000000    0.057402672
    7          1           0.083162262    0.000000000   -0.009782484
    8          6           0.056488491    0.000000000    0.038096365
    9          7           0.037054420    0.000000000   -0.076623411
 -------------------------------------------------------------------
 Cartesian Forces:  Max     0.108717767 RMS     0.052472544

 GradGradGradGradGradGradGradGradGradGradGradGradGradGradGradGradGradGrad
 Berny optimization.
 Internal  Forces:  Max     0.157830817 RMS     0.054086915
 Search for a local minimum.
 Step number   1 out of a maximum of  48
 All quantities printed in internal units (Hartrees-Bohrs-Radians)
 Second derivative matrix not updated -- first step.
     Eigenvalues ---    0.03211   0.03261   0.03288   0.03318   0.03352
     Eigenvalues ---    0.03407   0.16000   0.16000   0.16000   0.16000
     Eigenvalues ---    0.22000   0.22917   0.49193   0.49594   0.49613
     Eigenvalues ---    0.54578   0.60577   0.63413   0.68379   0.73836
     Eigenvalues ---    0.765081000.000001000.000001000.000001000.00000
     Eigenvalues --- 1000.000001000.000001000.000001000.000001000.00000
     Eigenvalues --- 1000.000001000.000001000.000001000.000001000.00000
     Eigenvalues --- 1000.000001000.000001000.00000
 RFO step:  Lambda=-1.38430120D-01.
 Linear search not attempted -- first point.
 Maximum step size (   0.300) exceeded in Quadratic search.
    -- Step size scaled by   0.713
 Iteration  1 RMS(Cart)=  0.06707834 RMS(Int)=  0.00029455
 Iteration  2 RMS(Cart)=  0.00034000 RMS(Int)=  0.00008505
 Iteration  3 RMS(Cart)=  0.00000012 RMS(Int)=  0.00008505
 Variable       Old X    -DE/DX   Delta X   Delta X   Delta X     New X
                                 (Linear)    (Quad)   (Total)
    R1        2.40969   0.14577   0.00000   0.11543   0.11537   2.52506
    R2        2.42167   0.08813   0.00000   0.07140   0.07124   2.49292
    R3        1.77186   0.08327   0.00000   0.07980   0.07980   1.85167
    R4        1.86958   0.08265   0.00000   0.09289   0.09289   1.96247
    R5        2.49323   0.10236   0.00000   0.09612   0.09624   2.58947
    R6        2.38988   0.15783   0.00000   0.12456   0.12469   2.51457
    R7        1.87388   0.08126   0.00000   0.09194   0.09194   1.96582
    R8        1.86977   0.08373   0.00000   0.09413   0.09413   1.96390
    R9        2.41548   0.13725   0.00000   0.11322   0.11318   2.52866
    A1        1.85787   0.00858   0.00000   0.00668   0.00642   1.86429
    A2        2.20999   0.01259   0.00000   0.02469   0.02456   2.23456
    A3        2.20602   0.00092   0.00000  -0.00321  -0.00333   2.20269
    A4        1.86717  -0.01351   0.00000  -0.02148  -0.02123   1.84594
    A5        1.89521   0.00707   0.00000   0.01029   0.01037   1.90558
    A6        2.19177  -0.00776   0.00000  -0.01524  -0.01528   2.17649
    A7        2.19620   0.00069   0.00000   0.00495   0.00492   2.20111
    A8        2.18150   0.00277   0.00000   0.00562   0.00570   2.18720
    A9        1.91767  -0.00305   0.00000  -0.00530  -0.00546   1.91221
   A10        2.18402   0.00028   0.00000  -0.00032  -0.00025   2.18377
   A11        2.20124  -0.00018   0.00000  -0.00425  -0.00429   2.19695
   A12        2.19509  -0.00073   0.00000  -0.00556  -0.00561   2.18948
   A13        1.88685   0.00090   0.00000   0.00981   0.00991   1.89676
    D1        0.00000   0.00000   0.00000   0.00000   0.00000   0.00000
    D2        3.14159   0.00000   0.00000   0.00000   0.00000   3.14159
    D3        3.14159   0.00000   0.00000   0.00000   0.00000   3.14159
    D4        0.00000   0.00000   0.00000   0.00000   0.00000   0.00000
    D5        3.14159   0.00000   0.00000   0.00000   0.00000   3.14159
    D6        0.00000   0.00000   0.00000   0.00000   0.00000   0.00000
    D7        0.00000   0.00000   0.00000   0.00000   0.00000   0.00000
    D8        3.14159   0.00000   0.00000   0.00000   0.00000   3.14159
    D9        0.00000   0.00000   0.00000   0.00000   0.00000   0.00000
   D10        3.14159   0.00000   0.00000   0.00000   0.00000   3.14159
   D11        3.14159   0.00000   0.00000   0.00000   0.00000   3.14159
   D12        0.00000   0.00000   0.00000   0.00000   0.00000   0.00000
   D13        3.14159   0.00000   0.00000   0.00000   0.00000   3.14159
   D14        0.00000   0.00000   0.00000   0.00000   0.00000   0.00000
   D15        0.00000   0.00000   0.00000   0.00000   0.00000   0.00000
   D16        3.14159   0.00000   0.00000   0.00000   0.00000   3.14159
         Item               Value     Threshold  Converged?
 Maximum Force            0.157831     0.000450     NO 
 RMS     Force            0.054087     0.000300     NO 
 Maximum Displacement     0.193971     0.001800     NO 
 RMS     Displacement     0.067064     0.001200     NO 
 Predicted change in Energy=-2.897836D-02
 GradGradGradGradGradGradGradGradGradGradGradGradGradGradGradGradGradGrad

                          Input orientation:                          
 ---------------------------------------------------------------------
 Center     Atomic     Atomic              Coordinates (Angstroms)
 Number     Number      Type              X           Y           Z
 ---------------------------------------------------------------------
    1          7             0        0.476504    0.000000    1.111981
    2          1             0        0.475904    0.000000   -1.999347
    3          6             0       -0.984306    0.000000   -0.541007
    4          1             0       -1.870158    0.000000   -1.082977
    5          6             0       -0.827474    0.000000    0.820279
    6          1             0       -1.592149    0.000000    1.525567
    7          1             0        2.158374    0.000000   -0.143716
    8          6             0        1.124612    0.000000   -0.037031
    9          7             0        0.246505    0.000000   -1.046717
 ---------------------------------------------------------------------
                    Distance matrix (angstroms):
                    1          2          3          4          5
     1  N    0.000000
     2  H    3.111328   0.000000
     3  C    2.205977   2.063727   0.000000
     4  H    3.213201   2.518678   1.038492   0.000000
     5  C    1.336207   3.106297   1.370290   2.170155   0.000000
     6  H    2.109592   4.086791   2.154113   2.623317   1.040269
     7  H    2.098919   2.504810   3.167693   4.136578   3.137607
     8  C    1.319194   2.066762   2.168301   3.172168   2.132047
     9  N    2.170916   0.979860   1.330654   2.116974   2.153859
                    6          7          8          9
     6  H    0.000000
     7  H    4.105232   0.000000
     8  C    3.134088   1.039252   0.000000
     9  N    3.161850   2.114392   1.338110   0.000000
 Stoichiometry    C3H4N2
 Framework group  CS[SG(C3H4N2)]
 Deg. of freedom   15
 Full point group                 CS      NOp   2
 Largest Abelian subgroup         CS      NOp   2
 Largest concise Abelian subgroup C1      NOp   1
                         Standard orientation:                         
 ---------------------------------------------------------------------
 Center     Atomic     Atomic              Coordinates (Angstroms)
 Number     Number      Type              X           Y           Z
 ---------------------------------------------------------------------
    1          7             0       -0.710537   -0.971011    0.000000
    2          1             0       -0.008826    2.060154    0.000000
    3          6             0        1.085193    0.310271    0.000000
    4          1             0        2.070391    0.638678    0.000000
    5          6             0        0.625635   -0.980659    0.000000
    6          1             0        1.211707   -1.840123    0.000000
    7          1             0       -2.066181    0.631391    0.000000
    8          6             0       -1.083050    0.294495    0.000000
    9          7             0        0.000000    1.080333    0.000000
 ---------------------------------------------------------------------
 Rotational constants (GHZ):     10.1029777      9.7589814      4.9640003
 Isotopes: N-14,H-1,C-12,H-1,C-12,H-1,H-1,C-12,N-14
 Standard basis: SDD (6D, 10F)
 There are    48 symmetry adapted basis functions of A'  symmetry.
 There are    10 symmetry adapted basis functions of A"  symmetry.
 Crude estimate of integral set expansion from redundant integrals=1.000.
 Integral buffers will be    262144 words long.
 Raffenetti 2 integral format.
 Two-electron integral symmetry is turned on.
    58 basis functions      136 primitive gaussians
    18 alpha electrons       18 beta electrons
       nuclear repulsion energy       166.3088663629 Hartrees.
 One-electron integrals computed using PRISM.
   1 Symmetry operations used in ECPInt.
 ECPInt:  NShTT=     741 NPrTT=    3858 LenC2=     740 LenP2D=    3096.
 LDataN:  DoStor=F MaxTD1= 2 Len=   12
 LDataN:  DoStor=T MaxTD1= 2 Len=   12
 NBasis=    58 RedAO= T  NBF=    48    10
 NBsUse=    58 1.00D-04 NBFU=    48    10
 Initial guess read from the read-write file:
 Initial guess orbital symmetries:
       Occupied  (A') (A') (A') (A') (A') (A') (A') (A') (A') (A')
                 (A') (A") (A') (A') (A') (A") (A') (A")
       Virtual   (A") (A') (A") (A') (A') (A') (A') (A') (A') (A")
                 (A') (A") (A') (A") (A') (A') (A') (A') (A") (A')
                 (A') (A") (A') (A') (A') (A') (A') (A') (A') (A')
                 (A') (A') (A') (A') (A') (A') (A') (A') (A') (A')
 Requested convergence on RMS density matrix=1.00D-08 within  64 cycles.
 Requested convergence on MAX density matrix=1.00D-06.
 Keep R1 and R2 integrals in memory in canonical form, NReq=     3345028.
 Integral accuracy reduced to 1.0D-05 until final iterations.
 Initial convergence to 1.0D-05 achieved.  Increase integral accuracy.
 SCF Done:  E(RB+HF-LYP) =  -226.159172168     A.U. after   14 cycles
             Convg  =    0.7032D-08             -V/T =  2.0018
             S**2   =   0.0000
   2 Symmetry operations used in ECPInt.
 ECPInt:  NShTT=     741 NPrTT=    3858 LenC2=     740 LenP2D=    3096.
 LDataN:  DoStor=F MaxTD1= 3 Len=   28
 LDataN:  DoStor=T MaxTD1= 3 Len=   28
 ***** Axes restored to original set *****
 -------------------------------------------------------------------
 Center     Atomic                   Forces (Hartrees/Bohr)
 Number     Number              X              Y              Z
 -------------------------------------------------------------------
    1          7           0.040873837    0.000000000    0.043570157
    2          1           0.007041326    0.000000000   -0.030327864
    3          6          -0.040229140    0.000000000    0.014438526
    4          1          -0.024180874    0.000000000   -0.021526712
    5          6          -0.024017886    0.000000000   -0.009912267
    6          1          -0.020071962    0.000000000    0.024355305
    7          1           0.031333840    0.000000000   -0.004831898
    8          6           0.011409298    0.000000000    0.020419861
    9          7           0.017841561    0.000000000   -0.036185108
 -------------------------------------------------------------------
 Cartesian Forces:  Max     0.043570157 RMS     0.021312939

 GradGradGradGradGradGradGradGradGradGradGradGradGradGradGradGradGradGrad
 Berny optimization.
 Internal  Forces:  Max     0.060164757 RMS     0.020180521
 Search for a local minimum.
 Step number   2 out of a maximum of  48
 All quantities printed in internal units (Hartrees-Bohrs-Radians)
 Update second derivatives using information from points  1  2
 Trust test= 2.28D+00 RLast= 3.00D-01 DXMaxT set to 4.24D-01
     Eigenvalues ---    0.03210   0.03262   0.03288   0.03316   0.03352
     Eigenvalues ---    0.03406   0.15942   0.16000   0.16000   0.16001
     Eigenvalues ---    0.22111   0.22862   0.49296   0.49602   0.50733
     Eigenvalues ---    0.55756   0.60932   0.63993   0.70290   0.73728
     Eigenvalues ---    0.770801000.000001000.000001000.000001000.00000
     Eigenvalues --- 1000.000001000.000001000.000001000.000001000.00000
     Eigenvalues --- 1000.000001000.000001000.000001000.000001000.00000
     Eigenvalues --- 1000.000001000.000001000.00000
 RFO step:  Lambda=-2.50198078D-03.
 Quartic linear search produced a step of  0.79328.
 Iteration  1 RMS(Cart)=  0.05538913 RMS(Int)=  0.00089810
 Iteration  2 RMS(Cart)=  0.00107299 RMS(Int)=  0.00009609
 Iteration  3 RMS(Cart)=  0.00000131 RMS(Int)=  0.00009609
 Iteration  4 RMS(Cart)=  0.00000000 RMS(Int)=  0.00009609
 Variable       Old X    -DE/DX   Delta X   Delta X   Delta X     New X
                                 (Linear)    (Quad)   (Total)
    R1        2.52506   0.05608   0.09152   0.00304   0.09444   2.61951
    R2        2.49292   0.02911   0.05652  -0.00934   0.04704   2.53995
    R3        1.85167   0.03113   0.06331   0.00290   0.06621   1.91787
    R4        1.96247   0.03186   0.07369   0.01074   0.08443   2.04689
    R5        2.58947   0.03264   0.07635  -0.01345   0.06296   2.65243
    R6        2.51457   0.06016   0.09891   0.00249   0.10157   2.61614
    R7        1.96582   0.03127   0.07294   0.01060   0.08353   2.04936
    R8        1.96390   0.03166   0.07467   0.00869   0.08336   2.04726
    R9        2.52866   0.05127   0.08978   0.00084   0.09066   2.61932
    A1        1.86429  -0.00110   0.00509  -0.03331  -0.02856   1.83573
    A2        2.23456   0.00757   0.01949   0.04479   0.06416   2.29871
    A3        2.20269  -0.00370  -0.00264  -0.04704  -0.04981   2.15288
    A4        1.84594  -0.00388  -0.01684   0.00225  -0.01435   1.83159
    A5        1.90558   0.00521   0.00822   0.02081   0.02900   1.93458
    A6        2.17649  -0.00683  -0.01212  -0.04523  -0.05733   2.11916
    A7        2.20111   0.00162   0.00390   0.02442   0.02833   2.22945
    A8        2.18720  -0.00010   0.00452  -0.00361   0.00096   2.18816
    A9        1.91221   0.00333  -0.00433   0.03476   0.03035   1.94256
   A10        2.18377  -0.00323  -0.00020  -0.03115  -0.03131   2.15246
   A11        2.19695   0.00154  -0.00341   0.00888   0.00536   2.20231
   A12        2.18948   0.00202  -0.00445   0.01563   0.01108   2.20055
   A13        1.89676  -0.00356   0.00786  -0.02451  -0.01644   1.88032
    D1        0.00000   0.00000   0.00000   0.00000   0.00000   0.00000
    D2        3.14159   0.00000   0.00000   0.00000   0.00000   3.14159
    D3        3.14159   0.00000   0.00000   0.00000   0.00000   3.14159
    D4        0.00000   0.00000   0.00000   0.00000   0.00000   0.00000
    D5        3.14159   0.00000   0.00000   0.00000   0.00000   3.14159
    D6        0.00000   0.00000   0.00000   0.00000   0.00000   0.00000
    D7        0.00000   0.00000   0.00000   0.00000   0.00000   0.00000
    D8        3.14159   0.00000   0.00000   0.00000   0.00000   3.14159
    D9        0.00000   0.00000   0.00000   0.00000   0.00000   0.00000
   D10        3.14159   0.00000   0.00000   0.00000   0.00000   3.14159
   D11        3.14159   0.00000   0.00000   0.00000   0.00000   3.14159
   D12        0.00000   0.00000   0.00000   0.00000   0.00000   0.00000
   D13        3.14159   0.00000   0.00000   0.00000   0.00000   3.14159
   D14        0.00000   0.00000   0.00000   0.00000   0.00000   0.00000
   D15        0.00000   0.00000   0.00000   0.00000   0.00000   0.00000
   D16        3.14159   0.00000   0.00000   0.00000   0.00000   3.14159
         Item               Value     Threshold  Converged?
 Maximum Force            0.060165     0.000450     NO 
 RMS     Force            0.020181     0.000300     NO 
 Maximum Displacement     0.161118     0.001800     NO 
 RMS     Displacement     0.055261     0.001200     NO 
 Predicted change in Energy=-2.075879D-02
 GradGradGradGradGradGradGradGradGradGradGradGradGradGradGradGradGradGrad

                          Input orientation:                          
 ---------------------------------------------------------------------
 Center     Atomic     Atomic              Coordinates (Angstroms)
 Number     Number      Type              X           Y           Z
 ---------------------------------------------------------------------
    1          7             0        0.498782    0.000000    1.157863
    2          1             0        0.491977    0.000000   -2.068002
    3          6             0       -1.030779    0.000000   -0.555796
    4          1             0       -1.925719    0.000000   -1.165989
    5          6             0       -0.849531    0.000000    0.836059
    6          1             0       -1.614260    0.000000    1.604999
    7          1             0        2.218065    0.000000   -0.149878
    8          6             0        1.142253    0.000000   -0.022184
    9          7             0        0.249518    0.000000   -1.082494
 ---------------------------------------------------------------------
                    Distance matrix (angstroms):
                    1          2          3          4          5
     1  N    0.000000
     2  H    3.225872   0.000000
     3  C    2.296994   2.146055   0.000000
     4  H    3.358347   2.580481   1.083168   0.000000
     5  C    1.386184   3.198939   1.403606   2.272966   0.000000
     6  H    2.159833   4.234049   2.238188   2.788437   1.084472
     7  H    2.160120   2.580422   3.274104   4.266547   3.222144
     8  C    1.344086   2.146679   2.237590   3.274254   2.168821
     9  N    2.254181   1.014895   1.384403   2.176839   2.211052
                    6          7          8          9
     6  H    0.000000
     7  H    4.215010   0.000000
     8  C    3.200952   1.083364   0.000000
     9  N    3.270518   2.178291   1.386085   0.000000
 Stoichiometry    C3H4N2
 Framework group  CS[SG(C3H4N2)]
 Deg. of freedom   15
 Full point group                 CS      NOp   2
 Largest Abelian subgroup         CS      NOp   2
 Largest concise Abelian subgroup C1      NOp   1
                         Standard orientation:                         
 ---------------------------------------------------------------------
 Center     Atomic     Atomic              Coordinates (Angstroms)
 Number     Number      Type              X           Y           Z
 ---------------------------------------------------------------------
    1          7             0       -0.743621   -1.008944    0.000000
    2          1             0       -0.016092    2.133818    0.000000
    3          6             0        1.130215    0.319559    0.000000
    4          1             0        2.138884    0.714325    0.000000
    5          6             0        0.642507   -0.996591    0.000000
    6          1             0        1.216059   -1.916982    0.000000
    7          1             0       -2.127178    0.649939    0.000000
    8          6             0       -1.107109    0.285059    0.000000
    9          7             0        0.000000    1.119050    0.000000
 ---------------------------------------------------------------------
 Rotational constants (GHZ):      9.5648718      9.0825839      4.6587455
 Isotopes: N-14,H-1,C-12,H-1,C-12,H-1,H-1,C-12,N-14
 Standard basis: SDD (6D, 10F)
 There are    48 symmetry adapted basis functions of A'  symmetry.
 There are    10 symmetry adapted basis functions of A"  symmetry.
 Crude estimate of integral set expansion from redundant integrals=1.000.
 Integral buffers will be    262144 words long.
 Raffenetti 2 integral format.
 Two-electron integral symmetry is turned on.
    58 basis functions      136 primitive gaussians
    18 alpha electrons       18 beta electrons
       nuclear repulsion energy       161.0723399558 Hartrees.
 One-electron integrals computed using PRISM.
   1 Symmetry operations used in ECPInt.
 ECPInt:  NShTT=     741 NPrTT=    3858 LenC2=     739 LenP2D=    3079.
 LDataN:  DoStor=F MaxTD1= 2 Len=   12
 LDataN:  DoStor=T MaxTD1= 2 Len=   12
 NBasis=    58 RedAO= T  NBF=    48    10
 NBsUse=    58 1.00D-04 NBFU=    48    10
 Initial guess read from the read-write file:
 Initial guess orbital symmetries:
       Occupied  (A') (A') (A') (A') (A') (A') (A') (A') (A') (A')
                 (A') (A') (A") (A') (A') (A") (A') (A")
       Virtual   (A") (A") (A') (A') (A') (A') (A') (A') (A') (A")
                 (A') (A") (A') (A') (A") (A') (A') (A') (A") (A')
                 (A') (A") (A') (A') (A') (A') (A') (A') (A') (A')
                 (A') (A') (A') (A') (A') (A') (A') (A') (A') (A')
 Requested convergence on RMS density matrix=1.00D-08 within  64 cycles.
 Requested convergence on MAX density matrix=1.00D-06.
 Keep R1 and R2 integrals in memory in canonical form, NReq=     3345028.
 Integral accuracy reduced to 1.0D-05 until final iterations.
 Initial convergence to 1.0D-05 achieved.  Increase integral accuracy.
 SCF Done:  E(RB+HF-LYP) =  -226.173767677     A.U. after   14 cycles
             Convg  =    0.7569D-08             -V/T =  2.0053
             S**2   =   0.0000
   2 Symmetry operations used in ECPInt.
 ECPInt:  NShTT=     741 NPrTT=    3858 LenC2=     739 LenP2D=    3079.
 LDataN:  DoStor=F MaxTD1= 3 Len=   28
 LDataN:  DoStor=T MaxTD1= 3 Len=   28
 ***** Axes restored to original set *****
 -------------------------------------------------------------------
 Center     Atomic                   Forces (Hartrees/Bohr)
 Number     Number              X              Y              Z
 -------------------------------------------------------------------
    1          7           0.008032405    0.000000000   -0.007086860
    2          1          -0.000592812    0.000000000    0.003588824
    3          6          -0.008954310    0.000000000    0.012161219
    4          1           0.003232980    0.000000000    0.002000612
    5          6          -0.016048693    0.000000000   -0.005953911
    6          1           0.002559079    0.000000000   -0.002601710
    7          1          -0.003099170    0.000000000   -0.000002071
    8          6           0.006540286    0.000000000    0.003547154
    9          7           0.008330234    0.000000000   -0.005653257
 -------------------------------------------------------------------
 Cartesian Forces:  Max     0.016048693 RMS     0.005588168

 GradGradGradGradGradGradGradGradGradGradGradGradGradGradGradGradGradGrad
 Berny optimization.
 Internal  Forces:  Max     0.010362178 RMS     0.003360032
 Search for a local minimum.
 Step number   3 out of a maximum of  48
 All quantities printed in internal units (Hartrees-Bohrs-Radians)
 Update second derivatives using information from points  1  2  3
 Trust test= 7.03D-01 RLast= 2.72D-01 DXMaxT set to 4.24D-01
     Eigenvalues ---    0.03205   0.03261   0.03287   0.03306   0.03350
     Eigenvalues ---    0.03405   0.15644   0.16000   0.16000   0.16003
     Eigenvalues ---    0.22117   0.23492   0.45866   0.49332   0.49607
     Eigenvalues ---    0.56202   0.58687   0.63315   0.65020   0.72404
     Eigenvalues ---    0.746971000.000001000.000001000.000001000.00000
     Eigenvalues --- 1000.000001000.000001000.000001000.000001000.00000
     Eigenvalues --- 1000.000001000.000001000.000001000.000001000.00000
     Eigenvalues --- 1000.000001000.000001000.00000
 RFO step:  Lambda=-7.85833695D-04.
 Quartic linear search produced a step of -0.02050.
 Iteration  1 RMS(Cart)=  0.00732192 RMS(Int)=  0.00003141
 Iteration  2 RMS(Cart)=  0.00002982 RMS(Int)=  0.00000534
 Iteration  3 RMS(Cart)=  0.00000000 RMS(Int)=  0.00000534
 Variable       Old X    -DE/DX   Delta X   Delta X   Delta X     New X
                                 (Linear)    (Quad)   (Total)
    R1        2.61951   0.00928  -0.00194   0.01564   0.01371   2.63322
    R2        2.53995  -0.00409  -0.00096  -0.00372  -0.00469   2.53526
    R3        1.91787  -0.00363  -0.00136  -0.00340  -0.00475   1.91312
    R4        2.04689  -0.00380  -0.00173  -0.00445  -0.00618   2.04071
    R5        2.65243  -0.01036  -0.00129  -0.01396  -0.01525   2.63719
    R6        2.61614   0.01022  -0.00208   0.01686   0.01477   2.63091
    R7        2.04936  -0.00365  -0.00171  -0.00426  -0.00597   2.04339
    R8        2.04726  -0.00308  -0.00171  -0.00306  -0.00477   2.04249
    R9        2.61932  -0.00059  -0.00186   0.00279   0.00092   2.62024
    A1        1.83573   0.00497   0.00059   0.01844   0.01904   1.85476
    A2        2.29871  -0.00037  -0.00132  -0.00002  -0.00134   2.29737
    A3        2.15288  -0.00071   0.00102  -0.00519  -0.00417   2.14871
    A4        1.83159   0.00108   0.00029   0.00522   0.00551   1.83710
    A5        1.93458  -0.00310  -0.00059  -0.01297  -0.01355   1.92103
    A6        2.11916   0.00157   0.00118   0.00545   0.00662   2.12578
    A7        2.22945   0.00153  -0.00058   0.00752   0.00694   2.23638
    A8        2.18816   0.00226  -0.00002   0.01034   0.01033   2.19849
    A9        1.94256  -0.00377  -0.00062  -0.01521  -0.01584   1.92673
   A10        2.15246   0.00151   0.00064   0.00487   0.00551   2.15797
   A11        2.20231  -0.00014  -0.00011  -0.00069  -0.00080   2.20152
   A12        2.20055  -0.00068  -0.00023  -0.00383  -0.00405   2.19650
   A13        1.88032   0.00082   0.00034   0.00452   0.00484   1.88516
    D1        0.00000   0.00000   0.00000   0.00000   0.00000   0.00000
    D2        3.14159   0.00000   0.00000   0.00000   0.00000   3.14159
    D3        3.14159   0.00000   0.00000   0.00000   0.00000   3.14159
    D4        0.00000   0.00000   0.00000   0.00000   0.00000   0.00000
    D5        3.14159   0.00000   0.00000   0.00000   0.00000   3.14159
    D6        0.00000   0.00000   0.00000   0.00000   0.00000   0.00000
    D7        0.00000   0.00000   0.00000   0.00000   0.00000   0.00000
    D8        3.14159   0.00000   0.00000   0.00000   0.00000   3.14159
    D9        0.00000   0.00000   0.00000   0.00000   0.00000   0.00000
   D10        3.14159   0.00000   0.00000   0.00000   0.00000   3.14159
   D11        3.14159   0.00000   0.00000   0.00000   0.00000   3.14159
   D12        0.00000   0.00000   0.00000   0.00000   0.00000   0.00000
   D13        3.14159   0.00000   0.00000   0.00000   0.00000   3.14159
   D14        0.00000   0.00000   0.00000   0.00000   0.00000   0.00000
   D15        0.00000   0.00000   0.00000   0.00000   0.00000   0.00000
   D16        3.14159   0.00000   0.00000   0.00000   0.00000   3.14159
         Item               Value     Threshold  Converged?
 Maximum Force            0.010362     0.000450     NO 
 RMS     Force            0.003360     0.000300     NO 
 Maximum Displacement     0.021333     0.001800     NO 
 RMS     Displacement     0.007320     0.001200     NO 
 Predicted change in Energy=-3.988295D-04
 GradGradGradGradGradGradGradGradGradGradGradGradGradGradGradGradGradGrad

                          Input orientation:                          
 ---------------------------------------------------------------------
 Center     Atomic     Atomic              Coordinates (Angstroms)
 Number     Number      Type              X           Y           Z
 ---------------------------------------------------------------------
    1          7             0        0.498450    0.000000    1.138319
    2          1             0        0.493371    0.000000   -2.072013
    3          6             0       -1.033732    0.000000   -0.557575
    4          1             0       -1.924026    0.000000   -1.168762
    5          6             0       -0.859785    0.000000    0.827081
    6          1             0       -1.620435    0.000000    1.595619
    7          1             0        2.225752    0.000000   -0.160804
    8          6             0        1.152487    0.000000   -0.033064
    9          7             0        0.253268    0.000000   -1.088519
 ---------------------------------------------------------------------
                    Distance matrix (angstroms):
                    1          2          3          4          5
     1  N    0.000000
     2  H    3.210336   0.000000
     3  C    2.285527   2.150713   0.000000
     4  H    3.345297   2.580634   1.079895   0.000000
     5  C    1.393439   3.199340   1.395539   2.261857   0.000000
     6  H    2.167671   4.233167   2.231695   2.781002   1.081314
     7  H    2.161317   2.579508   3.283544   4.270438   3.239823
     8  C    1.341604   2.142836   2.248258   3.279442   2.188399
     9  N    2.240294   1.012379   1.392217   2.178772   2.215492
                    6          7          8          9
     6  H    0.000000
     7  H    4.228259   0.000000
     8  C    3.215852   1.080840   0.000000
     9  N    3.273432   2.179759   1.386571   0.000000
 Stoichiometry    C3H4N2
 Framework group  CS[SG(C3H4N2)]
 Deg. of freedom   15
 Full point group                 CS      NOp   2
 Largest Abelian subgroup         CS      NOp   2
 Largest concise Abelian subgroup C1      NOp   1
                         Standard orientation:                         
 ---------------------------------------------------------------------
 Center     Atomic     Atomic              Coordinates (Angstroms)
 Number     Number      Type              X           Y           Z
 ---------------------------------------------------------------------
    1          7             0       -0.744393   -0.996400    0.000000
    2          1             0       -0.010525    2.128931    0.000000
    3          6             0        1.132832    0.307311    0.000000
    4          1             0        2.138646    0.700389    0.000000
    5          6             0        0.649035   -1.001685    0.000000
    6          1             0        1.215318   -1.922860    0.000000
    7          1             0       -2.131609    0.660985    0.000000
    8          6             0       -1.115380    0.292891    0.000000
    9          7             0        0.000000    1.116607    0.000000
 ---------------------------------------------------------------------
 Rotational constants (GHZ):      9.4345912      9.1902705      4.6554142
 Isotopes: N-14,H-1,C-12,H-1,C-12,H-1,H-1,C-12,N-14
 Standard basis: SDD (6D, 10F)
 There are    48 symmetry adapted basis functions of A'  symmetry.
 There are    10 symmetry adapted basis functions of A"  symmetry.
 Crude estimate of integral set expansion from redundant integrals=1.000.
 Integral buffers will be    262144 words long.
 Raffenetti 2 integral format.
 Two-electron integral symmetry is turned on.
    58 basis functions      136 primitive gaussians
    18 alpha electrons       18 beta electrons
       nuclear repulsion energy       161.0113984154 Hartrees.
 One-electron integrals computed using PRISM.
   1 Symmetry operations used in ECPInt.
 ECPInt:  NShTT=     741 NPrTT=    3858 LenC2=     739 LenP2D=    3078.
 LDataN:  DoStor=F MaxTD1= 2 Len=   12
 LDataN:  DoStor=T MaxTD1= 2 Len=   12
 NBasis=    58 RedAO= T  NBF=    48    10
 NBsUse=    58 1.00D-04 NBFU=    48    10
 Initial guess read from the read-write file:
 Initial guess orbital symmetries:
       Occupied  (A') (A') (A') (A') (A') (A') (A') (A') (A') (A')
                 (A') (A') (A') (A") (A') (A") (A') (A")
       Virtual   (A") (A") (A') (A') (A') (A') (A') (A') (A') (A')
                 (A") (A') (A") (A') (A") (A') (A') (A') (A') (A')
                 (A") (A') (A") (A') (A') (A') (A') (A') (A') (A')
                 (A') (A') (A') (A') (A') (A') (A') (A') (A') (A')
 Requested convergence on RMS density matrix=1.00D-08 within  64 cycles.
 Requested convergence on MAX density matrix=1.00D-06.
 Keep R1 and R2 integrals in memory in canonical form, NReq=     3345028.
 Integral accuracy reduced to 1.0D-05 until final iterations.
 Initial convergence to 1.0D-05 achieved.  Increase integral accuracy.
 SCF Done:  E(RB+HF-LYP) =  -226.174168750     A.U. after   12 cycles
             Convg  =    0.3586D-08             -V/T =  2.0053
             S**2   =   0.0000
   2 Symmetry operations used in ECPInt.
 ECPInt:  NShTT=     741 NPrTT=    3858 LenC2=     739 LenP2D=    3078.
 LDataN:  DoStor=F MaxTD1= 3 Len=   28
 LDataN:  DoStor=T MaxTD1= 3 Len=   28
 ***** Axes restored to original set *****
 -------------------------------------------------------------------
 Center     Atomic                   Forces (Hartrees/Bohr)
 Number     Number              X              Y              Z
 -------------------------------------------------------------------
    1          7           0.006739785    0.000000000    0.001029001
    2          1          -0.000826757    0.000000000    0.000969836
    3          6          -0.003158808    0.000000000    0.005017196
    4          1           0.001404799    0.000000000    0.000218356
    5          6          -0.003814458    0.000000000   -0.005681779
    6          1           0.001730210    0.000000000   -0.000759004
    7          1          -0.001491335    0.000000000    0.000176463
    8          6          -0.004429331    0.000000000    0.004063652
    9          7           0.003845896    0.000000000   -0.005033721
 -------------------------------------------------------------------
 Cartesian Forces:  Max     0.006739785 RMS     0.002816606

 GradGradGradGradGradGradGradGradGradGradGradGradGradGradGradGradGradGrad
 Berny optimization.
 Internal  Forces:  Max     0.003582787 RMS     0.001433558
 Search for a local minimum.
 Step number   4 out of a maximum of  48
 All quantities printed in internal units (Hartrees-Bohrs-Radians)
 Update second derivatives using information from points  1  2  3  4
 Trust test= 1.01D+00 RLast= 4.35D-02 DXMaxT set to 4.24D-01
     Eigenvalues ---    0.03205   0.03262   0.03287   0.03306   0.03350
     Eigenvalues ---    0.03405   0.15255   0.15994   0.16000   0.16051
     Eigenvalues ---    0.21740   0.34769   0.42641   0.47704   0.49428
     Eigenvalues ---    0.49677   0.57181   0.59850   0.64537   0.67921
     Eigenvalues ---    0.771911000.000001000.000001000.000001000.00000
     Eigenvalues --- 1000.000001000.000001000.000001000.000001000.00000
     Eigenvalues --- 1000.000001000.000001000.000001000.000001000.00000
     Eigenvalues --- 1000.000001000.000001000.00000
 RFO step:  Lambda=-2.09369652D-04.
 Quartic linear search produced a step of  0.00770.
 Iteration  1 RMS(Cart)=  0.00304900 RMS(Int)=  0.00000711
 Iteration  2 RMS(Cart)=  0.00000761 RMS(Int)=  0.00000385
 Iteration  3 RMS(Cart)=  0.00000000 RMS(Int)=  0.00000385
 Variable       Old X    -DE/DX   Delta X   Delta X   Delta X     New X
                                 (Linear)    (Quad)   (Total)
    R1        2.63322   0.00320   0.00011   0.00882   0.00892   2.64214
    R2        2.53526  -0.00358  -0.00004  -0.00568  -0.00571   2.52955
    R3        1.91312  -0.00114  -0.00004  -0.00232  -0.00236   1.91076
    R4        2.04071  -0.00128  -0.00005  -0.00321  -0.00326   2.03745
    R5        2.63719  -0.00350  -0.00012  -0.00853  -0.00866   2.62853
    R6        2.63091   0.00174   0.00011   0.00744   0.00755   2.63846
    R7        2.04339  -0.00176  -0.00005  -0.00416  -0.00420   2.03918
    R8        2.04249  -0.00150  -0.00004  -0.00328  -0.00331   2.03918
    R9        2.62024   0.00067   0.00001   0.00227   0.00229   2.62252
    A1        1.85476  -0.00252   0.00015  -0.00676  -0.00661   1.84815
    A2        2.29737   0.00069  -0.00001   0.00386   0.00385   2.30123
    A3        2.14871  -0.00057  -0.00003  -0.00515  -0.00517   2.14354
    A4        1.83710  -0.00013   0.00004   0.00129   0.00132   1.83842
    A5        1.92103   0.00168  -0.00010   0.00392   0.00381   1.92484
    A6        2.12578  -0.00155   0.00005  -0.00660  -0.00655   2.11923
    A7        2.23638  -0.00013   0.00005   0.00268   0.00274   2.23912
    A8        2.19849  -0.00144   0.00008  -0.00349  -0.00342   2.19507
    A9        1.92673   0.00289  -0.00012   0.00829   0.00818   1.93490
   A10        2.15797  -0.00144   0.00004  -0.00480  -0.00476   2.15321
   A11        2.20152   0.00041  -0.00001   0.00036   0.00035   2.20187
   A12        2.19650   0.00151  -0.00003   0.00638   0.00634   2.20285
   A13        1.88516  -0.00192   0.00004  -0.00674  -0.00670   1.87847
    D1        0.00000   0.00000   0.00000   0.00000   0.00000   0.00000
    D2        3.14159   0.00000   0.00000   0.00000   0.00000   3.14159
    D3        3.14159   0.00000   0.00000   0.00000   0.00000   3.14159
    D4        0.00000   0.00000   0.00000   0.00000   0.00000   0.00000
    D5        3.14159   0.00000   0.00000   0.00000   0.00000   3.14159
    D6        0.00000   0.00000   0.00000   0.00000   0.00000   0.00000
    D7        0.00000   0.00000   0.00000   0.00000   0.00000   0.00000
    D8        3.14159   0.00000   0.00000   0.00000   0.00000   3.14159
    D9        0.00000   0.00000   0.00000   0.00000   0.00000   0.00000
   D10        3.14159   0.00000   0.00000   0.00000   0.00000   3.14159
   D11        3.14159   0.00000   0.00000   0.00000   0.00000   3.14159
   D12        0.00000   0.00000   0.00000   0.00000   0.00000   0.00000
   D13        3.14159   0.00000   0.00000   0.00000   0.00000   3.14159
   D14        0.00000   0.00000   0.00000   0.00000   0.00000   0.00000
   D15        0.00000   0.00000   0.00000   0.00000   0.00000   0.00000
   D16        3.14159   0.00000   0.00000   0.00000   0.00000   3.14159
         Item               Value     Threshold  Converged?
 Maximum Force            0.003583     0.000450     NO 
 RMS     Force            0.001434     0.000300     NO 
 Maximum Displacement     0.008505     0.001800     NO 
 RMS     Displacement     0.003051     0.001200     NO 
 Predicted change in Energy=-1.046385D-04
 GradGradGradGradGradGradGradGradGradGradGradGradGradGradGradGradGradGrad

                          Input orientation:                          
 ---------------------------------------------------------------------
 Center     Atomic     Atomic              Coordinates (Angstroms)
 Number     Number      Type              X           Y           Z
 ---------------------------------------------------------------------
    1          7             0        0.501871    0.000000    1.141517
    2          1             0        0.492619    0.000000   -2.072754
    3          6             0       -1.034769    0.000000   -0.554602
    4          1             0       -1.921871    0.000000   -1.167385
    5          6             0       -0.860069    0.000000    0.825340
    6          1             0       -1.616314    0.000000    1.595098
    7          1             0        2.221515    0.000000   -0.157572
    8          6             0        1.150035    0.000000   -0.029671
    9          7             0        0.254706    0.000000   -1.090011
 ---------------------------------------------------------------------
                    Distance matrix (angstroms):
                    1          2          3          4          5
     1  N    0.000000
     2  H    3.214284   0.000000
     3  C    2.288686   2.153532   0.000000
     4  H    3.347469   2.578654   1.078170   0.000000
     5  C    1.398160   3.198237   1.390957   2.257958   0.000000
     6  H    2.166205   4.230927   2.226972   2.779330   1.079089
     7  H    2.155181   2.580117   3.280400   4.264665   3.234545
     8  C    1.338580   2.146249   2.246981   3.275820   2.184391
     9  N    2.245174   1.011132   1.396212   2.177951   2.216144
                    6          7          8          9
     6  H    0.000000
     7  H    4.219098   0.000000
     8  C    3.208202   1.079087   0.000000
     9  N    3.272694   2.176644   1.387780   0.000000
 Stoichiometry    C3H4N2
 Framework group  CS[SG(C3H4N2)]
 Deg. of freedom   15
 Full point group                 CS      NOp   2
 Largest Abelian subgroup         CS      NOp   2
 Largest concise Abelian subgroup C1      NOp   1
                         Standard orientation:                         
 ---------------------------------------------------------------------
 Center     Atomic     Atomic              Coordinates (Angstroms)
 Number     Number      Type              X           Y           Z
 ---------------------------------------------------------------------
    1          7             0       -0.748237   -0.997354    0.000000
    2          1             0       -0.008158    2.130570    0.000000
    3          6             0        1.133903    0.304811    0.000000
    4          1             0        2.137129    0.699766    0.000000
    5          6             0        0.649922   -0.999230    0.000000
    6          1             0        1.211268   -1.920817    0.000000
    7          1             0       -2.127339    0.658811    0.000000
    8          6             0       -1.113032    0.290560    0.000000
    9          7             0        0.000000    1.119471    0.000000
 ---------------------------------------------------------------------
 Rotational constants (GHZ):      9.4441420      9.1739482      4.6535423
 Isotopes: N-14,H-1,C-12,H-1,C-12,H-1,H-1,C-12,N-14
 Standard basis: SDD (6D, 10F)
 There are    48 symmetry adapted basis functions of A'  symmetry.
 There are    10 symmetry adapted basis functions of A"  symmetry.
 Crude estimate of integral set expansion from redundant integrals=1.000.
 Integral buffers will be    262144 words long.
 Raffenetti 2 integral format.
 Two-electron integral symmetry is turned on.
    58 basis functions      136 primitive gaussians
    18 alpha electrons       18 beta electrons
       nuclear repulsion energy       160.9949969785 Hartrees.
 One-electron integrals computed using PRISM.
   1 Symmetry operations used in ECPInt.
 ECPInt:  NShTT=     741 NPrTT=    3858 LenC2=     739 LenP2D=    3078.
 LDataN:  DoStor=F MaxTD1= 2 Len=   12
 LDataN:  DoStor=T MaxTD1= 2 Len=   12
 NBasis=    58 RedAO= T  NBF=    48    10
 NBsUse=    58 1.00D-04 NBFU=    48    10
 Initial guess read from the read-write file:
 Initial guess orbital symmetries:
       Occupied  (A') (A') (A') (A') (A') (A') (A') (A') (A') (A')
                 (A') (A') (A') (A") (A') (A") (A') (A")
       Virtual   (A") (A") (A') (A') (A') (A') (A') (A') (A') (A')
                 (A") (A') (A") (A') (A") (A') (A') (A') (A') (A')
                 (A") (A') (A") (A') (A') (A') (A') (A') (A') (A')
                 (A') (A') (A') (A') (A') (A') (A') (A') (A') (A')
 Requested convergence on RMS density matrix=1.00D-08 within  64 cycles.
 Requested convergence on MAX density matrix=1.00D-06.
 Keep R1 and R2 integrals in memory in canonical form, NReq=     3345028.
 SCF Done:  E(RB+HF-LYP) =  -226.174301286     A.U. after   10 cycles
             Convg  =    0.7602D-08             -V/T =  2.0053
             S**2   =   0.0000
   2 Symmetry operations used in ECPInt.
 ECPInt:  NShTT=     741 NPrTT=    3858 LenC2=     739 LenP2D=    3078.
 LDataN:  DoStor=F MaxTD1= 3 Len=   28
 LDataN:  DoStor=T MaxTD1= 3 Len=   28
 ***** Axes restored to original set *****
 -------------------------------------------------------------------
 Center     Atomic                   Forces (Hartrees/Bohr)
 Number     Number              X              Y              Z
 -------------------------------------------------------------------
    1          7           0.002408271    0.000000000   -0.000004650
    2          1          -0.000230199    0.000000000    0.000110083
    3          6          -0.000227972    0.000000000    0.001427880
    4          1           0.000114281    0.000000000   -0.000133305
    5          6          -0.001372587    0.000000000   -0.001969507
    6          1           0.000318258    0.000000000    0.000122397
    7          1          -0.000023278    0.000000000   -0.000017489
    8          6          -0.002227817    0.000000000    0.000999177
    9          7           0.001241042    0.000000000   -0.000534586
 -------------------------------------------------------------------
 Cartesian Forces:  Max     0.002408271 RMS     0.000895547

 GradGradGradGradGradGradGradGradGradGradGradGradGradGradGradGradGradGrad
 Berny optimization.
 Internal  Forces:  Max     0.001355970 RMS     0.000429157
 Search for a local minimum.
 Step number   5 out of a maximum of  48
 All quantities printed in internal units (Hartrees-Bohrs-Radians)
 Update second derivatives using information from points  1  2  3  4  5

 Trust test= 1.27D+00 RLast= 2.52D-02 DXMaxT set to 4.24D-01
     Eigenvalues ---    0.03204   0.03262   0.03287   0.03305   0.03350
     Eigenvalues ---    0.03405   0.14234   0.15968   0.16006   0.16024
     Eigenvalues ---    0.21283   0.28994   0.43533   0.47584   0.49460
     Eigenvalues ---    0.49678   0.57010   0.59641   0.64900   0.67167
     Eigenvalues ---    0.767981000.000001000.000001000.000001000.00000
     Eigenvalues --- 1000.000001000.000001000.000001000.000001000.00000
     Eigenvalues --- 1000.000001000.000001000.000001000.000001000.00000
     Eigenvalues --- 1000.000001000.000001000.00000
 RFO step:  Lambda=-4.26366907D-06.
 Quartic linear search produced a step of  0.36069.
 Iteration  1 RMS(Cart)=  0.00113272 RMS(Int)=  0.00000244
 Iteration  2 RMS(Cart)=  0.00000150 RMS(Int)=  0.00000206
 Iteration  3 RMS(Cart)=  0.00000000 RMS(Int)=  0.00000206
 Variable       Old X    -DE/DX   Delta X   Delta X   Delta X     New X
                                 (Linear)    (Quad)   (Total)
    R1        2.64214   0.00119   0.00322   0.00102   0.00423   2.64637
    R2        2.52955  -0.00136  -0.00206  -0.00091  -0.00297   2.52658
    R3        1.91076  -0.00016  -0.00085   0.00029  -0.00056   1.91020
    R4        2.03745  -0.00002  -0.00118   0.00084  -0.00033   2.03711
    R5        2.62853  -0.00105  -0.00312  -0.00033  -0.00346   2.62507
    R6        2.63846   0.00021   0.00272  -0.00023   0.00249   2.64095
    R7        2.03918  -0.00014  -0.00152   0.00086  -0.00066   2.03852
    R8        2.03918  -0.00002  -0.00120   0.00100  -0.00020   2.03898
    R9        2.62252  -0.00042   0.00082  -0.00117  -0.00034   2.62218
    A1        1.84815  -0.00073  -0.00238  -0.00007  -0.00246   1.84570
    A2        2.30123   0.00021   0.00139   0.00020   0.00159   2.30282
    A3        2.14354  -0.00015  -0.00187  -0.00026  -0.00213   2.14141
    A4        1.83842  -0.00006   0.00048   0.00006   0.00054   1.83896
    A5        1.92484   0.00024   0.00137  -0.00053   0.00084   1.92568
    A6        2.11923  -0.00044  -0.00236  -0.00095  -0.00331   2.11592
    A7        2.23912   0.00020   0.00099   0.00148   0.00247   2.24159
    A8        2.19507  -0.00043  -0.00123   0.00003  -0.00121   2.19387
    A9        1.93490   0.00090   0.00295   0.00034   0.00330   1.93820
   A10        2.15321  -0.00047  -0.00172  -0.00037  -0.00209   2.15112
   A11        2.20187  -0.00001   0.00013  -0.00051  -0.00039   2.20148
   A12        2.20285   0.00037   0.00229   0.00031   0.00260   2.20545
   A13        1.87847  -0.00036  -0.00242   0.00020  -0.00221   1.87625
    D1        0.00000   0.00000   0.00000   0.00000   0.00000   0.00000
    D2        3.14159   0.00000   0.00000   0.00000   0.00000   3.14159
    D3        3.14159   0.00000   0.00000   0.00000   0.00000   3.14159
    D4        0.00000   0.00000   0.00000   0.00000   0.00000   0.00000
    D5        3.14159   0.00000   0.00000   0.00000   0.00000   3.14159
    D6        0.00000   0.00000   0.00000   0.00000   0.00000   0.00000
    D7        0.00000   0.00000   0.00000   0.00000   0.00000   0.00000
    D8        3.14159   0.00000   0.00000   0.00000   0.00000   3.14159
    D9        0.00000   0.00000   0.00000   0.00000   0.00000   0.00000
   D10        3.14159   0.00000   0.00000   0.00000   0.00000   3.14159
   D11        3.14159   0.00000   0.00000   0.00000   0.00000   3.14159
   D12        0.00000   0.00000   0.00000   0.00000   0.00000   0.00000
   D13        3.14159   0.00000   0.00000   0.00000   0.00000   3.14159
   D14        0.00000   0.00000   0.00000   0.00000   0.00000   0.00000
   D15        0.00000   0.00000   0.00000   0.00000   0.00000   0.00000
   D16        3.14159   0.00000   0.00000   0.00000   0.00000   3.14159
         Item               Value     Threshold  Converged?
 Maximum Force            0.001356     0.000450     NO 
 RMS     Force            0.000429     0.000300     NO 
 Maximum Displacement     0.002832     0.001800     NO 
 RMS     Displacement     0.001133     0.001200     YES
 Predicted change in Energy=-1.213700D-05
 GradGradGradGradGradGradGradGradGradGradGradGradGradGradGradGradGradGrad

                          Input orientation:                          
 ---------------------------------------------------------------------
 Center     Atomic     Atomic              Coordinates (Angstroms)
 Number     Number      Type              X           Y           Z
 ---------------------------------------------------------------------
    1          7             0        0.503065    0.000000    1.141908
    2          1             0        0.492177    0.000000   -2.073325
    3          6             0       -1.035211    0.000000   -0.554095
    4          1             0       -1.921173    0.000000   -1.168214
    5          6             0       -0.860783    0.000000    0.824038
    6          1             0       -1.614903    0.000000    1.595389
    7          1             0        2.219939    0.000000   -0.157230
    8          6             0        1.148610    0.000000   -0.028932
    9          7             0        0.255210    0.000000   -1.090660
 ---------------------------------------------------------------------
                    Distance matrix (angstroms):
                    1          2          3          4          5
     1  N    0.000000
     2  H    3.215251   0.000000
     3  C    2.289698   2.154291   0.000000
     4  H    3.348670   2.577495   1.077994   0.000000
     5  C    1.400401   3.197689   1.389128   2.256878   0.000000
     6  H    2.165972   4.230750   2.226280   2.780522   1.078740
     7  H    2.153001   2.580035   3.279253   4.262733   3.233223
     8  C    1.337010   2.147195   2.246079   3.274375   2.182938
     9  N    2.246284   1.010833   1.397529   2.177764   2.216193
                    6          7          8          9
     6  H    0.000000
     7  H    4.216359   0.000000
     8  C    3.205530   1.078983   0.000000
     9  N    3.272947   2.175190   1.387599   0.000000
 Stoichiometry    C3H4N2
 Framework group  CS[SG(C3H4N2)]
 Deg. of freedom   15
 Full point group                 CS      NOp   2
 Largest Abelian subgroup         CS      NOp   2
 Largest concise Abelian subgroup C1      NOp   1
                         Standard orientation:                         
 ---------------------------------------------------------------------
 Center     Atomic     Atomic              Coordinates (Angstroms)
 Number     Number      Type              X           Y           Z
 ---------------------------------------------------------------------
    1          7             0       -0.750007   -0.997214    0.000000
    2          1             0       -0.006843    2.130972    0.000000
    3          6             0        1.134229    0.303698    0.000000
    4          1             0        2.136810    0.699806    0.000000
    5          6             0        0.650393   -0.998446    0.000000
    6          1             0        1.208933   -1.921328    0.000000
    7          1             0       -2.125727    0.658929    0.000000
    8          6             0       -1.111808    0.289913    0.000000
    9          7             0        0.000000    1.120162    0.000000
 ---------------------------------------------------------------------
 Rotational constants (GHZ):      9.4478425      9.1709761      4.6536754
 Isotopes: N-14,H-1,C-12,H-1,C-12,H-1,H-1,C-12,N-14
 Standard basis: SDD (6D, 10F)
 There are    48 symmetry adapted basis functions of A'  symmetry.
 There are    10 symmetry adapted basis functions of A"  symmetry.
 Crude estimate of integral set expansion from redundant integrals=1.000.
 Integral buffers will be    262144 words long.
 Raffenetti 2 integral format.
 Two-electron integral symmetry is turned on.
    58 basis functions      136 primitive gaussians
    18 alpha electrons       18 beta electrons
       nuclear repulsion energy       161.0006289122 Hartrees.
 One-electron integrals computed using PRISM.
   1 Symmetry operations used in ECPInt.
 ECPInt:  NShTT=     741 NPrTT=    3858 LenC2=     739 LenP2D=    3079.
 LDataN:  DoStor=F MaxTD1= 2 Len=   12
 LDataN:  DoStor=T MaxTD1= 2 Len=   12
 NBasis=    58 RedAO= T  NBF=    48    10
 NBsUse=    58 1.00D-04 NBFU=    48    10
 Initial guess read from the read-write file:
 Initial guess orbital symmetries:
       Occupied  (A') (A') (A') (A') (A') (A') (A') (A') (A') (A')
                 (A') (A') (A') (A") (A') (A") (A') (A")
       Virtual   (A") (A") (A') (A') (A') (A') (A') (A') (A') (A')
                 (A") (A') (A") (A') (A") (A') (A') (A') (A') (A')
                 (A") (A') (A") (A') (A') (A') (A') (A') (A') (A')
                 (A') (A') (A') (A') (A') (A') (A') (A') (A') (A')
 Requested convergence on RMS density matrix=1.00D-08 within  64 cycles.
 Requested convergence on MAX density matrix=1.00D-06.
 Keep R1 and R2 integrals in memory in canonical form, NReq=     3345028.
 SCF Done:  E(RB+HF-LYP) =  -226.174314223     A.U. after    9 cycles
             Convg  =    0.5388D-08             -V/T =  2.0052
             S**2   =   0.0000
   2 Symmetry operations used in ECPInt.
 ECPInt:  NShTT=     741 NPrTT=    3858 LenC2=     739 LenP2D=    3079.
 LDataN:  DoStor=F MaxTD1= 3 Len=   28
 LDataN:  DoStor=T MaxTD1= 3 Len=   28
 ***** Axes restored to original set *****
 -------------------------------------------------------------------
 Center     Atomic                   Forces (Hartrees/Bohr)
 Number     Number              X              Y              Z
 -------------------------------------------------------------------
    1          7           0.000393718    0.000000000    0.000008373
    2          1          -0.000017380    0.000000000   -0.000060116
    3          6           0.000323364    0.000000000   -0.000107890
    4          1          -0.000097124    0.000000000   -0.000062314
    5          6          -0.000317507    0.000000000   -0.000139118
    6          1          -0.000028621    0.000000000    0.000123943
    7          1           0.000143154    0.000000000   -0.000016968
    8          6          -0.000515190    0.000000000   -0.000208166
    9          7           0.000115586    0.000000000    0.000462257
 -------------------------------------------------------------------
 Cartesian Forces:  Max     0.000515190 RMS     0.000190656

 GradGradGradGradGradGradGradGradGradGradGradGradGradGradGradGradGradGrad
 Berny optimization.
 Internal  Forces:  Max     0.000356837 RMS     0.000097418
 Search for a local minimum.
 Step number   6 out of a maximum of  48
 All quantities printed in internal units (Hartrees-Bohrs-Radians)
 Update second derivatives using information from points  1  2  3  4  5
                                                        6
 Trust test= 1.07D+00 RLast= 1.03D-02 DXMaxT set to 4.24D-01
     Eigenvalues ---    0.03204   0.03262   0.03287   0.03305   0.03350
     Eigenvalues ---    0.03404   0.13683   0.15903   0.16001   0.16029
     Eigenvalues ---    0.21267   0.29267   0.43160   0.47558   0.49456
     Eigenvalues ---    0.49681   0.56903   0.59280   0.63741   0.66516
     Eigenvalues ---    0.765241000.000001000.000001000.000001000.00000
     Eigenvalues --- 1000.000001000.000001000.000001000.000001000.00000
     Eigenvalues --- 1000.000001000.000001000.000001000.000001000.00000
     Eigenvalues --- 1000.000001000.000001000.00000
 RFO step:  Lambda=-5.97190842D-07.
 Quartic linear search produced a step of  0.06712.
 Iteration  1 RMS(Cart)=  0.00019517 RMS(Int)=  0.00000006
 Iteration  2 RMS(Cart)=  0.00000004 RMS(Int)=  0.00000005
 Variable       Old X    -DE/DX   Delta X   Delta X   Delta X     New X
                                 (Linear)    (Quad)   (Total)
    R1        2.64637   0.00026   0.00028   0.00033   0.00062   2.64699
    R2        2.52658  -0.00010  -0.00020  -0.00007  -0.00027   2.52632
    R3        1.91020   0.00005  -0.00004   0.00010   0.00006   1.91026
    R4        2.03711   0.00012  -0.00002   0.00023   0.00021   2.03732
    R5        2.62507   0.00002  -0.00023   0.00018  -0.00005   2.62502
    R6        2.64095  -0.00018   0.00017  -0.00031  -0.00014   2.64080
    R7        2.03852   0.00011  -0.00004   0.00023   0.00019   2.03871
    R8        2.03898   0.00014  -0.00001   0.00029   0.00028   2.03926
    R9        2.62218  -0.00036  -0.00002  -0.00055  -0.00057   2.62161
    A1        1.84570  -0.00009  -0.00016  -0.00005  -0.00022   1.84548
    A2        2.30282   0.00000   0.00011  -0.00008   0.00003   2.30285
    A3        2.14141   0.00000  -0.00014   0.00006  -0.00008   2.14133
    A4        1.83896   0.00000   0.00004   0.00001   0.00005   1.83901
    A5        1.92568  -0.00012   0.00006  -0.00025  -0.00020   1.92548
    A6        2.11592  -0.00001  -0.00022  -0.00021  -0.00043   2.11549
    A7        2.24159   0.00013   0.00017   0.00046   0.00063   2.24222
    A8        2.19387  -0.00005  -0.00008  -0.00006  -0.00014   2.19372
    A9        1.93820   0.00010   0.00022   0.00009   0.00031   1.93851
   A10        2.15112  -0.00005  -0.00014  -0.00003  -0.00017   2.15096
   A11        2.20148  -0.00008  -0.00003  -0.00024  -0.00026   2.20122
   A12        2.20545  -0.00002   0.00017   0.00003   0.00021   2.20565
   A13        1.87625   0.00011  -0.00015   0.00021   0.00006   1.87631
    D1        0.00000   0.00000   0.00000   0.00000   0.00000   0.00000
    D2        3.14159   0.00000   0.00000   0.00000   0.00000   3.14159
    D3        3.14159   0.00000   0.00000   0.00000   0.00000   3.14159
    D4        0.00000   0.00000   0.00000   0.00000   0.00000   0.00000
    D5        3.14159   0.00000   0.00000   0.00000   0.00000   3.14159
    D6        0.00000   0.00000   0.00000   0.00000   0.00000   0.00000
    D7        0.00000   0.00000   0.00000   0.00000   0.00000   0.00000
    D8        3.14159   0.00000   0.00000   0.00000   0.00000   3.14159
    D9        0.00000   0.00000   0.00000   0.00000   0.00000   0.00000
   D10        3.14159   0.00000   0.00000   0.00000   0.00000   3.14159
   D11        3.14159   0.00000   0.00000   0.00000   0.00000   3.14159
   D12        0.00000   0.00000   0.00000   0.00000   0.00000   0.00000
   D13        3.14159   0.00000   0.00000   0.00000   0.00000   3.14159
   D14        0.00000   0.00000   0.00000   0.00000   0.00000   0.00000
   D15        0.00000   0.00000   0.00000   0.00000   0.00000   0.00000
   D16        3.14159   0.00000   0.00000   0.00000   0.00000   3.14159
         Item               Value     Threshold  Converged?
 Maximum Force            0.000357     0.000450     YES
 RMS     Force            0.000097     0.000300     YES
 Maximum Displacement     0.000656     0.001800     YES
 RMS     Displacement     0.000195     0.001200     YES
 Predicted change in Energy=-3.499130D-07
 Optimization completed.
    -- Stationary point found.
                         ----------------------------
                         !   Optimized Parameters   !
                         ! (Angstroms and Degrees)  !
 ------------------------                            -------------------------
 ! Name  Definition              Value          Derivative Info.             !
 -----------------------------------------------------------------------------
 ! R1    R(1,5)                  1.4004         -DE/DX =    0.0003           !
 ! R2    R(1,8)                  1.337          -DE/DX =   -0.0001           !
 ! R3    R(2,9)                  1.0108         -DE/DX =    0.0001           !
 ! R4    R(3,4)                  1.078          -DE/DX =    0.0001           !
 ! R5    R(3,5)                  1.3891         -DE/DX =    0.               !
 ! R6    R(3,9)                  1.3975         -DE/DX =   -0.0002           !
 ! R7    R(5,6)                  1.0787         -DE/DX =    0.0001           !
 ! R8    R(7,8)                  1.079          -DE/DX =    0.0001           !
 ! R9    R(8,9)                  1.3876         -DE/DX =   -0.0004           !
 ! A1    A(5,1,8)              105.7506         -DE/DX =   -0.0001           !
 ! A2    A(4,3,5)              131.9419         -DE/DX =    0.               !
 ! A3    A(4,3,9)              122.6938         -DE/DX =    0.               !
 ! A4    A(5,3,9)              105.3644         -DE/DX =    0.               !
 ! A5    A(1,5,3)              110.3331         -DE/DX =   -0.0001           !
 ! A6    A(1,5,6)              121.2333         -DE/DX =    0.               !
 ! A7    A(3,5,6)              128.4337         -DE/DX =    0.0001           !
 ! A8    A(1,8,7)              125.6992         -DE/DX =   -0.0001           !
 ! A9    A(1,8,9)              111.0505         -DE/DX =    0.0001           !
 ! A10   A(7,8,9)              123.2503         -DE/DX =   -0.0001           !
 ! A11   A(2,9,3)              126.1357         -DE/DX =   -0.0001           !
 ! A12   A(2,9,8)              126.3629         -DE/DX =    0.               !
 ! A13   A(3,9,8)              107.5014         -DE/DX =    0.0001           !
[...]
                    19                     20                     21
                    A'                     A'                     A'
 Frequencies --  3309.4424              3329.6249              3683.5914
 Red. masses --     1.0982                 1.1098                 1.0827
 Frc consts  --     7.0866                 7.2493                 8.6557
 IR Inten    --     2.3072                 2.5674                51.1037
 Raman Activ --     0.0000                 0.0000                 0.0000
 Depolar     --     0.0000                 0.0000                 0.0000
 Atom AN      X      Y      Z        X      Y      Z        X      Y      Z
   1   7     0.00   0.00   0.00     0.00   0.00   0.00     0.00   0.00   0.00
   2   1    -0.01   0.02   0.00     0.00  -0.03   0.00    -0.01   1.00   0.00
   3   6    -0.02  -0.01   0.00    -0.07  -0.03   0.00     0.00   0.00   0.00
   4   1     0.20   0.08   0.00     0.74   0.29   0.00     0.02   0.01   0.00
   5   6     0.00   0.01   0.00    -0.02   0.05   0.00     0.00   0.00   0.00
   6   1     0.03  -0.05   0.00     0.28  -0.48   0.00     0.00   0.00   0.00
   7   1     0.91  -0.33   0.00    -0.19   0.07   0.00    -0.02   0.00   0.00
   8   6    -0.08   0.03   0.00     0.02  -0.01   0.00     0.00   0.00   0.00
   9   7     0.00   0.00   0.00     0.00   0.00   0.00     0.00  -0.08   0.00

 -------------------
 - Thermochemistry -
 -------------------
 Temperature   298.150 Kelvin.  Pressure   1.00000 Atm.
 Atom  1 has atomic number  7 and mass  14.00307
 Atom  2 has atomic number  1 and mass   1.00783
 Atom  3 has atomic number  6 and mass  12.00000
 Atom  4 has atomic number  1 and mass   1.00783
 Atom  5 has atomic number  6 and mass  12.00000
 Atom  6 has atomic number  1 and mass   1.00783
 Atom  7 has atomic number  1 and mass   1.00783
 Atom  8 has atomic number  6 and mass  12.00000
 Atom  9 has atomic number  7 and mass  14.00307
 Molecular mass:    68.03745 amu.
 Principal axes and moments of inertia in atomic units:
                           1         2         3
     EIGENVALUES --   191.02151 196.78834 387.80985
           X            0.45886   0.88851   0.00000
           Y            0.88851  -0.45886   0.00000
           Z            0.00000   0.00000   1.00000
 THIS MOLECULE IS AN ASYMMETRIC TOP.
 ROTATIONAL SYMMETRY NUMBER  1.
 ROTATIONAL TEMPERATURES (KELVIN)      0.45342     0.44013     0.22334
 ROTATIONAL CONSTANTS (GHZ)            9.44784     9.17098     4.65368
 Zero-point vibrational energy     187978.4 (Joules/Mol)
                                   44.92791 (Kcal/Mol)
 VIBRATIONAL TEMPERATURES:    902.59   953.92   976.28  1099.46  1183.48
          (KELVIN)           1281.94  1302.73  1357.02  1532.05  1581.21
                             1633.70  1673.95  1838.72  1948.51  2015.29
                             2126.10  2211.37  4746.70  4761.52  4790.56
                             5299.84
 
 Zero-point correction=                           0.071597 (Hartree/Particle)
 Thermal correction to Energy=                    0.075274
 Thermal correction to Enthalpy=                  0.076219
 Thermal correction to Gibbs Free Energy=         0.045330
 Sum of electronic and zero-point Energies=           -226.102717
 Sum of electronic and thermal Energies=              -226.099040
 Sum of electronic and thermal Enthalpies=            -226.098096
 Sum of electronic and thermal Free Energies=         -226.128984
 
                     E (Thermal)             CV                S
                      KCAL/MOL        CAL/MOL-KELVIN    CAL/MOL-KELVIN
 TOTAL                   47.235             13.092             65.010
 ELECTRONIC               0.000              0.000              0.000
 TRANSLATIONAL            0.889              2.981             38.570
 ROTATIONAL               0.889              2.981             24.193
 VIBRATIONAL             45.458              7.130              2.247
                       Q            LOG10(Q)             LN(Q)
 TOTAL BOT       0.141135D-20        -20.850364        -48.009737
 TOTAL V=0       0.120733D+13         12.081827         27.819434
 VIB (BOT)       0.148031D-32        -32.829646        -75.593054
 VIB (V=0)       0.126632D+01          0.102545          0.236118
 ELECTRONIC      0.100000D+01          0.000000          0.000000
 TRANSLATIONAL   0.220588D+08          7.343582         16.909224
 ROTATIONAL      0.432215D+05          4.635700         10.674093
 ***** Axes restored to original set *****
 -------------------------------------------------------------------
 Center     Atomic                   Forces (Hartrees/Bohr)
 Number     Number              X              Y              Z
 -------------------------------------------------------------------
    1          7           0.000393607    0.000000000    0.000008463
    2          1          -0.000017366    0.000000000   -0.000060119
    3          6           0.000323399    0.000000000   -0.000107813
    4          1          -0.000097102    0.000000000   -0.000062306
    5          6          -0.000317503    0.000000000   -0.000139180
    6          1          -0.000028599    0.000000000    0.000123927
    7          1           0.000143196    0.000000000   -0.000016966
    8          6          -0.000515123    0.000000000   -0.000208231
    9          7           0.000115491    0.000000000    0.000462225
 -------------------------------------------------------------------
 Cartesian Forces:  Max     0.000515123 RMS     0.000190641

 GradGradGradGradGradGradGradGradGradGradGradGradGradGradGradGradGradGrad
 Berny optimization.
 Internal  Forces:  Max     0.000356797 RMS     0.000097407
 Search for a local minimum.
 Step number   1 out of a maximum of  48
 All quantities printed in internal units (Hartrees-Bohrs-Radians)
 Second derivative matrix not updated -- analytic derivatives used.
     Eigenvalues ---    0.00789   0.01241   0.02043   0.02767   0.06143
     Eigenvalues ---    0.06400   0.09848   0.10595   0.10953   0.11659
     Eigenvalues ---    0.23491   0.24400   0.32599   0.37866   0.38421
     Eigenvalues ---    0.38556   0.39150   0.43492   0.47434   0.48538
     Eigenvalues ---    0.547351000.000001000.000001000.000001000.00000
     Eigenvalues --- 1000.000001000.000001000.000001000.000001000.00000
     Eigenvalues --- 1000.000001000.000001000.000001000.000001000.00000
     Eigenvalues --- 1000.000001000.000001000.00000
 Angle between quadratic step and forces=  25.57 degrees.
 Linear search not attempted -- first point.
 Iteration  1 RMS(Cart)=  0.00030074 RMS(Int)=  0.00000008
 Iteration  2 RMS(Cart)=  0.00000008 RMS(Int)=  0.00000001
 Variable       Old X    -DE/DX   Delta X   Delta X   Delta X     New X
                                 (Linear)    (Quad)   (Total)
    R1        2.64637   0.00026   0.00000   0.00104   0.00104   2.64741
    R2        2.52658  -0.00010   0.00000  -0.00016  -0.00016   2.52643
    R3        1.91020   0.00005   0.00000   0.00011   0.00011   1.91031
    R4        2.03711   0.00012   0.00000   0.00030   0.00030   2.03741
    R5        2.62507   0.00002   0.00000   0.00005   0.00005   2.62512
    R6        2.64095  -0.00018   0.00000  -0.00042  -0.00042   2.64052
    R7        2.03852   0.00011   0.00000   0.00026   0.00026   2.03878
    R8        2.03898   0.00014   0.00000   0.00040   0.00040   2.03938
    R9        2.62218  -0.00036   0.00000  -0.00105  -0.00105   2.62113
    A1        1.84570  -0.00009   0.00000  -0.00035  -0.00035   1.84535
    A2        2.30282   0.00000   0.00000  -0.00011  -0.00011   2.30271
    A3        2.14141   0.00000   0.00000   0.00003   0.00003   2.14144
    A4        1.83896   0.00000   0.00000   0.00007   0.00007   1.83903
    A5        1.92568  -0.00012   0.00000  -0.00037  -0.00037   1.92530
    A6        2.11592  -0.00001   0.00000  -0.00058  -0.00058   2.11534
    A7        2.24159   0.00013   0.00000   0.00095   0.00095   2.24254
    A8        2.19387  -0.00005   0.00000  -0.00031  -0.00031   2.19355
    A9        1.93820   0.00010   0.00000   0.00037   0.00037   1.93857
   A10        2.15112  -0.00005   0.00000  -0.00006  -0.00006   2.15106
   A11        2.20148  -0.00008   0.00000  -0.00046  -0.00046   2.20103
   A12        2.20545  -0.00002   0.00000   0.00018   0.00018   2.20563
   A13        1.87625   0.00011   0.00000   0.00028   0.00028   1.87653
    D1        0.00000   0.00000   0.00000   0.00000   0.00000   0.00000
    D2        3.14159   0.00000   0.00000   0.00000   0.00000   3.14159
    D3        3.14159   0.00000   0.00000   0.00000   0.00000   3.14159
    D4        0.00000   0.00000   0.00000   0.00000   0.00000   0.00000
    D5        3.14159   0.00000   0.00000   0.00000   0.00000   3.14159
    D6        0.00000   0.00000   0.00000   0.00000   0.00000   0.00000
    D7        0.00000   0.00000   0.00000   0.00000   0.00000   0.00000
    D8        3.14159   0.00000   0.00000   0.00000   0.00000   3.14159
    D9        0.00000   0.00000   0.00000   0.00000   0.00000   0.00000
   D10        3.14159   0.00000   0.00000   0.00000   0.00000   3.14159
   D11        3.14159   0.00000   0.00000   0.00000   0.00000   3.14159
   D12        0.00000   0.00000   0.00000   0.00000   0.00000   0.00000
   D13        3.14159   0.00000   0.00000   0.00000   0.00000   3.14159
   D14        0.00000   0.00000   0.00000   0.00000   0.00000   0.00000
   D15        0.00000   0.00000   0.00000   0.00000   0.00000   0.00000
   D16        3.14159   0.00000   0.00000   0.00000   0.00000   3.14159
         Item               Value     Threshold  Converged?
 Maximum Force            0.000357     0.000450     YES
 RMS     Force            0.000097     0.000300     YES
 Maximum Displacement     0.000932     0.001800     YES
 RMS     Displacement     0.000301     0.001200     YES
 Predicted change in Energy=-5.932913D-07
 Optimization completed.
    -- Stationary point found.
                         ----------------------------
                         !   Optimized Parameters   !
                         ! (Angstroms and Degrees)  !
 ------------------------                            -------------------------
 ! Name  Definition              Value          Derivative Info.             !
 -----------------------------------------------------------------------------
 ! R1    R(1,5)                  1.4004         -DE/DX =    0.0003           !
 ! R2    R(1,8)                  1.337          -DE/DX =   -0.0001           !
 ! R3    R(2,9)                  1.0108         -DE/DX =    0.0001           !
 ! R4    R(3,4)                  1.078          -DE/DX =    0.0001           !
 ! R5    R(3,5)                  1.3891         -DE/DX =    0.               !
 ! R6    R(3,9)                  1.3975         -DE/DX =   -0.0002           !
 ! R7    R(5,6)                  1.0787         -DE/DX =    0.0001           !
 ! R8    R(7,8)                  1.079          -DE/DX =    0.0001           !
 ! R9    R(8,9)                  1.3876         -DE/DX =   -0.0004           !
 ! A1    A(5,1,8)              105.7506         -DE/DX =   -0.0001           !
 ! A2    A(4,3,5)              131.9419         -DE/DX =    0.               !
 ! A3    A(4,3,9)              122.6938         -DE/DX =    0.               !
 ! A4    A(5,3,9)              105.3644         -DE/DX =    0.               !
 ! A5    A(1,5,3)              110.3331         -DE/DX =   -0.0001           !
 ! A6    A(1,5,6)              121.2333         -DE/DX =    0.               !
 ! A7    A(3,5,6)              128.4337         -DE/DX =    0.0001           !
 ! A8    A(1,8,7)              125.6992         -DE/DX =   -0.0001           !
 ! A9    A(1,8,9)              111.0505         -DE/DX =    0.0001           !
 ! A10   A(7,8,9)              123.2503         -DE/DX =   -0.0001           !
 ! A11   A(2,9,3)              126.1357         -DE/DX =   -0.0001           !
 ! A12   A(2,9,8)              126.3629         -DE/DX =    0.               !
 ! A13   A(3,9,8)              107.5014         -DE/DX =    0.0001           !
 ! D1    D(8,1,5,3)              0.             -DE/DX =    0.               !
 ! D2    D(8,1,5,6)            180.             -DE/DX =    0.               !
 ! D3    D(5,1,8,7)            180.             -DE/DX =    0.               !
 ! D4    D(5,1,8,9)              0.             -DE/DX =    0.               !
 ! D5    D(4,3,5,1)            180.             -DE/DX =    0.               !
 ! D6    D(4,3,5,6)              0.             -DE/DX =    0.               !
 ! D7    D(9,3,5,1)              0.             -DE/DX =    0.               !
 ! D8    D(9,3,5,6)            180.             -DE/DX =    0.               !
 ! D9    D(4,3,9,2)              0.             -DE/DX =    0.               !
 ! D10   D(4,3,9,8)            180.             -DE/DX =    0.               !
 ! D11   D(5,3,9,2)            180.             -DE/DX =    0.               !
 ! D12   D(5,3,9,8)              0.             -DE/DX =    0.               !
 ! D13   D(1,8,9,2)            180.             -DE/DX =    0.               !
 ! D14   D(1,8,9,3)              0.             -DE/DX =    0.               !
 ! D15   D(7,8,9,2)              0.             -DE/DX =    0.               !
 ! D16   D(7,8,9,3)            180.             -DE/DX =    0.               !
 -----------------------------------------------------------------------------
 GradGradGradGradGradGradGradGradGradGradGradGradGradGradGradGradGradGrad

 1\1\GINC-INDIUM\Freq\RB3LYP\SDD\C3H4N2\RDJ3\02-Jan-2001\0\\#N GEOM=ALL
 CHECK GUESS=TCHECK RB3LYP/SDD FREQ\\1H imidazole C3H4N2 casno=288324\\
 0,1\N,0.5030743923,0.,1.141868276\H,0.4921859782,0.,-2.0733642985\C,-1
 .0352013349,0.,-0.5541346567\H,-1.921163588,0.,-1.1682535929\C,-0.8607
 734644,0.,0.823998898\H,-1.6148938785,0.,1.5953493081\H,2.219948141,0.
 ,-0.157269245\C,1.1486195842,0.,-0.0289715518\N,0.2552191273,0.,-1.090
 699463\\Version=IBM-RS6000-G98RevA.6\State=1-A'\HF=-226.1743142\RMSD=6
 .982e-09\RMSF=1.906e-04\Dipole=-0.17846,0.,-1.6194359\DipoleDeriv=-0.3
 151527,-0.0000921,0.0200839,0.000196,-0.2915937,-0.0000499,0.0195739,-
 0.000469,-0.5117852,0.2045804,0.0000377,-0.0107012,0.0001153,0.3811251
 ,0.0000256,0.0028642,-0.000121,0.1838098,-0.0273296,-0.0002479,-0.2825
 656,-0.0001298,-0.1986451,0.0003478,-0.0894028,-0.0001301,0.1744933,0.
 0284978,0.0000258,-0.0507333,-0.0000204,0.2444078,0.000061,-0.0841545,
 0.0000669,0.0529856,0.1633135,0.0004093,-0.0386478,-0.000095,-0.184418
 1,0.0001657,-0.1088669,0.0000322,0.0738553,0.00846,-0.0000858,0.063214
 ,0.0000745,0.2012229,0.0000789,0.0981702,0.0001007,0.0500458,-0.019475
 9,-0.0001812,0.0372663,-0.0000008,0.2072493,0.0001337,0.041452,0.00001
 73,0.0849225,0.0810952,0.0002182,0.0960059,0.0001448,-0.0821804,-0.000
 2973,0.0159117,0.0004328,0.5354478,-0.1239879,-0.0000841,0.1660776,-0.
 0002846,-0.2771679,-0.0004656,0.1044522,0.0000703,-0.6437745\Polar=48.
 223572,-0.0052782,19.1340811,-0.3733329,-0.011479,46.5968331\PG=CS [SG
 (C3H4N2)]\NImag=0\\0.47272312,0.00000240,0.10337398,-0.06322860,0.0000
 0017,0.52519364,-0.00340115,0.00000007,-0.00710504,0.08308609,0.000000
 39,0.00646640,-0.00000307,0.00000017,0.01539009,-0.00265728,0.00000099
 ,-0.00234639,-0.09673211,0.00000012,0.45819797,-0.03501975,0.00000184,
 -0.01879207,0.00426824,-0.00000003,-0.00735543,0.74216306,-0.00000437,
 0.01865059,-0.00001155,0.00000072,-0.00479713,-0.00000547,-0.00000901,
 0.12151369,-0.08162609,-0.00000291,-0.02472444,0.03077524,-0.00000126,
 0.00013133,0.17157773,0.00000044,0.73094800,0.00174898,-0.00000193,0.0
 0138321,-0.00009363,-0.00000128,0.00024937,-0.26807896,0.00000152,-0.1
 4560672,0.27890621,0.00000058,0.00665202,0.00000051,0.00000035,-0.0010
 9744,-0.00000120,-0.00000171,-0.02526736,-0.00000030,-0.00000027,0.020
 05449,-0.00312594,-0.00000034,-0.00443379,-0.00110443,-0.00000067,0.00
 025670,-0.15690431,0.00000088,-0.16524334,0.15572297,0.00000018,0.1578
 7012,-0.24070995,-0.00000064,-0.01713445,-0.00835008,0.00000244,-0.001
 78280,-0.09875169,0.00001205,-0.02183617,0.00519262,0.00000053,-0.0222
 0956,0.65122759,-0.00000702,-0.07118518,-0.00001276,-0.00000066,0.0029
 3735,0.,-0.00000326,-0.07121507,-0.00000025,0.00000499,0.00035981,0.00
 000250,0.00000983,0.13768804,-0.04406325,0.00000160,-0.09858675,0.0025
 0786,0.00000189,0.00097035,-0.03266130,-0.00000042,-0.37993667,0.00572
 064,-0.00000193,0.00347961,-0.17605282,0.00000324,0.78362141,-0.017161
 46,-0.00000113,0.02071187,0.00073531,-0.00000104,0.00007088,0.00810183
 ,-0.00000113,-0.00921831,-0.00004567,-0.00000091,0.00088988,-0.2012662
 1,0.00000136,0.15617966,0.21434752,-0.00000069,-0.00467366,-0.00000441
 ,0.00000043,0.00166949,-0.00000118,-0.00000178,0.00085313,-0.00000071,
 -0.00000035,-0.00229610,-0.00000003,0.00000356,-0.03018830,0.00000153,
 -0.00000039,0.02326744,-0.01044115,0.00000163,0.01075337,0.00100144,0.
 00000112,0.00009229,0.02109364,0.00000108,-0.00525867,-0.00078193,0.00
 000141,-0.00053959,0.16035706,-0.00000308,-0.22511191,-0.16471744,0.00
 000039,0.22299735,-0.00629052,-0.00000049,-0.00027864,-0.00086550,-0.0
 0000047,-0.00064597,0.00186566,-0.00000249,-0.00230053,-0.00039615,-0.
 00000221,0.00022879,0.00177523,0.00000248,0.00166860,-0.00040176,-0.00
 000023,-0.00013945,0.37977171,-0.00000026,-0.00454751,-0.00000373,0.00
 000054,-0.00117892,-0.00000224,-0.00000352,0.00251968,-0.00000038,-0.0
 0000027,0.00160379,0.00000026,0.00000375,0.00704405,-0.00000081,-0.000
 00099,0.00095412,0.00000144,-0.00000212,0.02093630,0.02877394,-0.00000
 025,-0.00013792,0.00063742,-0.00000013,0.00026577,-0.00121156,0.000000
 12,-0.00572537,-0.00083804,0.00000056,0.00099882,0.00282076,-0.0000008
 5,-0.00397233,0.00129887,-0.00000023,0.00064057,-0.03746688,0.00000034
 ,0.06118947,-0.16429077,0.00000028,0.10773664,0.01578079,-0.00000042,0
 .01588185,-0.09122225,0.00000421,-0.00095840,-0.00191826,0.00000376,0.
 00480154,-0.09000133,-0.00000521,0.02193640,-0.00510926,-0.00000015,-0
 .00452958,-0.36611970,0.00000325,0.03685316,0.89755267,0.00000555,-0.0
 7624287,0.00001049,-0.00000042,-0.00566126,0.00000425,0.00000798,0.017
 15213,0.00000127,-0.00000498,0.00295711,-0.00000380,-0.00000978,0.0105
 6201,0.00000103,-0.00000057,0.00544901,0.00000102,0.00000046,-0.026212
 52,0.00000036,-0.00000239,0.13705236,0.14783809,-0.00000068,-0.3010504
 2,-0.02186570,0.00000237,-0.00930063,-0.03841069,0.00001583,-0.0132498
 2,0.00348414,-0.00000060,-0.00523394,0.06203699,0.00001348,-0.00914031
 ,-0.00156978,0.00000496,0.00068897,0.03232060,0.00000453,-0.05896844,-
 0.09385850,-0.00001441,0.59470057,-0.00759850,-0.00000040,-0.02329293,
 -0.09116006,0.00000024,0.09297150,-0.26332614,-0.00000149,0.05919327,-
 0.01531515,-0.00000012,0.02170106,-0.01911619,-0.00000251,0.06476421,0
 .00079970,-0.00000040,-0.00184261,-0.00933897,-0.00000038,-0.03086768,
 -0.19467188,0.00000416,-0.08997515,0.59972720,0.00000342,0.02150624,0.
 00002436,-0.00000120,-0.01372857,0.00000473,0.00000950,-0.05940966,0.0
 0000411,0.00000257,-0.00296631,0.00000103,-0.00002173,0.01399730,-0.00
 000613,0.00000480,0.00496487,-0.00000500,0.00000508,-0.00111899,0.0000
 0007,-0.00000331,-0.06505598,-0.00002548,0.00000088,0.10181111,0.02853
 028,-0.00000020,-0.10466730,0.09188531,-0.00000038,-0.44826739,0.06266
 400,-0.00000091,-0.13694102,-0.01933363,0.00000138,0.01284541,0.013800
 99,-0.00000227,-0.07132340,-0.00364564,-0.00000032,-0.00426239,0.00661
 348,0.00000059,0.00570942,-0.08786312,-0.00000022,-0.19844599,-0.09265
 168,0.00000232,0.94535265\\-0.00039361,0.,-0.00000846,0.00001737,0.,0.
 00006012,-0.00032340,0.,0.00010781,0.00009710,0.,0.00006231,0.00031750
 ,0.,0.00013918,0.00002860,0.,-0.00012393,-0.00014320,0.,0.00001697,0.0
 0051512,0.,0.00020823,-0.00011549,0.,-0.00046223\\\@


 LENDING MONEY TO FRIENDS CAUSES THEM TO LOSE THEIR MEMORIES.

    --  PETER'S THEORY OF RECIPROCAL INHIBITION OF FISCAL RECALL
 Job cpu time:  0 days  0 hours  3 minutes 31.8 seconds.
 File lengths (MBytes):  RWF=   16 Int=    0 D2E=    0 Chk=    8 Scr=    1
 Normal termination of Gaussian 98.
