 Entering Gaussian System, Link 0=g98
 Initial command:
 /usr/local/apps/g98/g98/l1.exe /wrk/rdj3/Gau-30392.inp -scrdir=/wrk/rdj3/
 Entering Link 1 = /usr/local/apps/g98/g98/l1.exe PID=     30393.
  
 Copyright (c) 1988,1990,1992,1993,1995,1998 Gaussian, Inc.
                  All Rights Reserved.
  
 This is part of the Gaussian(R) 98 program.  It is based on
 the Gaussian 94(TM) system (copyright 1995 Gaussian, Inc.),
 the Gaussian 92(TM) system (copyright 1992 Gaussian, Inc.),
 the Gaussian 90(TM) system (copyright 1990 Gaussian, Inc.),
 the Gaussian 88(TM) system (copyright 1988 Gaussian, Inc.),
 the Gaussian 86(TM) system (copyright 1986 Carnegie Mellon
 University), and the Gaussian 82(TM) system (copyright 1983
 Carnegie Mellon University). Gaussian is a federally registered
 trademark of Gaussian, Inc.
  
 This software contains proprietary and confidential information,
 including trade secrets, belonging to Gaussian, Inc.
  
 This software is provided under written license and may be
 used, copied, transmitted, or stored only in accord with that
 written license.
  
 The following legend is applicable only to US Government
 contracts under DFARS:
  
                    RESTRICTED RIGHTS LEGEND
  
 Use, duplication or disclosure by the US Government is subject
 to restrictions as set forth in subparagraph (c)(1)(ii) of the
 Rights in Technical Data and Computer Software clause at DFARS
 252.227-7013.
  
 Gaussian, Inc.
 Carnegie Office Park, Building 6, Pittsburgh, PA 15106 USA
  
 The following legend is applicable only to US Government
 contracts under FAR:
  
                    RESTRICTED RIGHTS LEGEND
  
 Use, reproduction and disclosure by the US Government is subject
 to restrictions as set forth in subparagraph (c) of the
 Commercial Computer Software - Restricted Rights clause at FAR
 52.227-19.
  
 Gaussian, Inc.
 Carnegie Office Park, Building 6, Pittsburgh, PA 15106 USA
  
  
 ---------------------------------------------------------------
 Warning -- This program may not be used in any manner that
 competes with the business of Gaussian, Inc. or will provide
 assistance to any competitor of Gaussian, Inc.  The licensee
 of this program is prohibited from giving any competitor of
 Gaussian, Inc. access to this program.  By using this program,
 the user acknowledges that Gaussian, Inc. is engaged in the
 business of creating and licensing software in the field of
 computational chemistry and represents and warrants to the
 licensee that it is not a competitor of Gaussian, Inc. and that
 it will not use this program in any manner prohibited above.
 ---------------------------------------------------------------
  

 Cite this work as:
 Gaussian 98, Revision A.4,
 M. J. Frisch, G. W. Trucks, H. B. Schlegel, G. E. Scuseria, 
 M. A. Robb, J. R. Cheeseman, V. G. Zakrzewski, J. A. Montgomery, Jr., 
 R. E. Stratmann, J. C. Burant, S. Dapprich, J. M. Millam, 
 A. D. Daniels, K. N. Kudin, M. C. Strain, O. Farkas, J. Tomasi, 
 V. Barone, M. Cossi, R. Cammi, B. Mennucci, C. Pomelli, C. Adamo, 
 S. Clifford, J. Ochterski, G. A. Petersson, P. Y. Ayala, Q. Cui, 
 K. Morokuma, D. K. Malick, A. D. Rabuck, K. Raghavachari, 
 J. B. Foresman, J. Cioslowski, J. V. Ortiz, B. B. Stefanov, G. Liu, 
 A. Liashenko, P. Piskorz, I. Komaromi, R. Gomperts, R. L. Martin, 
 D. J. Fox, T. Keith, M. A. Al-Laham, C. Y. Peng, A. Nanayakkara, 
 C. Gonzalez, M. Challacombe, P. M. W. Gill, B. Johnson, W. Chen, 
 M. W. Wong, J. L. Andres, C. Gonzalez, M. Head-Gordon, 
 E. S. Replogle, and J. A. Pople, 
 Gaussian, Inc., Pittsburgh PA, 1998.

 *********************************************
 Gaussian 98:  x86-Linux-G98RevA.4 11-Sep-1998
                  11-Oct-1999 
 *********************************************
 %mem=24000000
 ---------------------
 #B3LYP/3-21G opt freq
 ---------------------
 1/14=-1,18=20,26=3,38=1/1,3;
 2/9=110,17=6,18=5/2;
 3/5=5,11=2,25=1,30=1/1,2,3;
 4//1;
 5/5=2,38=4,42=-5/2;
 6/7=2,8=2,9=2,10=2,28=1/1;
 7//1,2,3,16;
 1/14=-1,18=20/3(1);
 99//99;
 2/9=110/2;
 3/5=5,11=2,25=1,30=1/1,2,3;
 4/5=5,16=2/1;
 5/5=2,38=4,42=-5/2;
 7//1,2,3,16;
 1/14=-1,18=20/3(-5);
 2/9=110/2;
 6/7=2,8=2,9=2,10=2,19=2,28=1/1;
 99/9=1/99;
 --------------------------------
 1H imidazole C3H4N2 casno=288324
 --------------------------------
 Symbolic Z-matrix:
 Charge =  0 Multiplicity = 1
 N                     0.30938   0.        1.30938 
 H                     0.3125    0.       -1.6875 
 C                    -1.06875   0.       -0.28438 
 H                    -1.91875   0.       -0.79063 
 C                    -0.93438   0.        1.02812 
 H                    -1.675     0.        1.6875 
 H                     1.91875   0.        0.09063 
 C                     0.93438   0.        0.19063 
 N                     0.09688   0.       -0.775 

 GradGradGradGradGradGradGradGradGradGradGradGradGradGradGradGradGradGrad
 Berny optimization.
 Initialization pass.
                         ----------------------------
                         !    Initial Parameters    !
                         ! (Angstroms and Degrees)  !
 ------------------------                            -------------------------
 ! Name  Definition              Value          Derivative Info.             !
 -----------------------------------------------------------------------------
 ! R1    R(1,5)                  1.2752         estimate D2E/DX2             !
 ! R2    R(1,8)                  1.2815         estimate D2E/DX2             !
 ! R3    R(2,9)                  0.9376         estimate D2E/DX2             !
 ! R4    R(3,4)                  0.9893         estimate D2E/DX2             !
 ! R5    R(3,5)                  1.3194         estimate D2E/DX2             !
 ! R6    R(3,9)                  1.2647         estimate D2E/DX2             !
 ! R7    R(5,6)                  0.9916         estimate D2E/DX2             !
 ! R8    R(7,8)                  0.9894         estimate D2E/DX2             !
 ! R9    R(8,9)                  1.2782         estimate D2E/DX2             !
 ! A1    A(5,1,8)              106.4483         estimate D2E/DX2             !
 ! A2    A(4,3,5)              126.6232         estimate D2E/DX2             !
 ! A3    A(4,3,9)              126.3957         estimate D2E/DX2             !
 ! A4    A(5,3,9)              106.9812         estimate D2E/DX2             !
 ! A5    A(1,5,3)              108.5877         estimate D2E/DX2             !
 ! A6    A(1,5,6)              125.5794         estimate D2E/DX2             !
 ! A7    A(3,5,6)              125.8329         estimate D2E/DX2             !
 ! A8    A(1,8,7)              124.9909         estimate D2E/DX2             !
 ! A9    A(1,8,9)              109.8741         estimate D2E/DX2             !
 ! A10   A(7,8,9)              125.1349         estimate D2E/DX2             !
 ! A11   A(2,9,3)              126.122          estimate D2E/DX2             !
 ! A12   A(2,9,8)              125.7693         estimate D2E/DX2             !
 ! A13   A(3,9,8)              108.1088         estimate D2E/DX2             !
 ! D1    D(8,1,5,3)              0.             estimate D2E/DX2             !
 ! D2    D(8,1,5,6)            180.             estimate D2E/DX2             !
 ! D3    D(5,1,8,7)            180.             estimate D2E/DX2             !
 ! D4    D(5,1,8,9)              0.             estimate D2E/DX2             !
 ! D5    D(4,3,5,1)            180.             estimate D2E/DX2             !
 ! D6    D(4,3,5,6)              0.             estimate D2E/DX2             !
 ! D7    D(9,3,5,1)              0.             estimate D2E/DX2             !
 ! D8    D(9,3,5,6)            180.             estimate D2E/DX2             !
 ! D9    D(4,3,9,2)              0.             estimate D2E/DX2             !
 ! D10   D(4,3,9,8)            180.             estimate D2E/DX2             !
 ! D11   D(5,3,9,2)            180.             estimate D2E/DX2             !
 ! D12   D(5,3,9,8)              0.             estimate D2E/DX2             !
 ! D13   D(1,8,9,2)            180.             estimate D2E/DX2             !
 ! D14   D(1,8,9,3)              0.             estimate D2E/DX2             !
 ! D15   D(7,8,9,2)              0.             estimate D2E/DX2             !
 ! D16   D(7,8,9,3)            180.             estimate D2E/DX2             !
 -----------------------------------------------------------------------------
 Trust Radius=3.00D-01 FncErr=1.00D-07 GrdErr=1.00D-06
 Number of steps in this run=  48 maximum allowed number of steps= 100.
 GradGradGradGradGradGradGradGradGradGradGradGradGradGradGradGradGradGrad

                          Input orientation:                          
 ---------------------------------------------------------------------
 Center     Atomic     Atomic              Coordinates (Angstroms)
 Number     Number      Type              X           Y           Z
 ---------------------------------------------------------------------
    1          7             0        0.309375    0.000000    1.309375
    2          1             0        0.312500    0.000000   -1.687500
    3          6             0       -1.068750    0.000000   -0.284375
    4          1             0       -1.918750    0.000000   -0.790625
    5          6             0       -0.934375    0.000000    1.028125
    6          1             0       -1.675000    0.000000    1.687500
    7          1             0        1.918750    0.000000    0.090625
    8          6             0        0.934375    0.000000    0.190625
    9          7             0        0.096875    0.000000   -0.775000
 ---------------------------------------------------------------------
                    Distance matrix (angstroms):
                    1          2          3          4          5
     1  N    0.000000
     2  H    2.996877   0.000000
     3  C    2.106957   1.968911   0.000000
     4  H    3.061787   2.404758   0.989338   0.000000
     5  C    1.275153   2.988196   1.319361   2.068054   0.000000
     6  H    2.020080   3.916731   2.062966   2.490084   0.991615
     7  H    2.018772   2.396199   3.010944   3.937386   3.003203
     8  C    1.281494   1.978404   2.058673   3.017147   2.047836
     9  N    2.095179   0.937630   1.264672   2.015686   2.077194
                    6          7          8          9
     6  H    0.000000
     7  H    3.932563   0.000000
     8  C    3.008234   0.989441   0.000000
     9  N    3.033718   2.017061   1.278217   0.000000
 Stoichiometry    C3H4N2
 Framework group  CS[SG(C3H4N2)]
 Deg. of freedom   15
 Full point group                 CS      NOp   2
 Largest Abelian subgroup         CS      NOp   2
 Largest concise Abelian subgroup C1      NOp   1
                         Standard orientation:                         
 ---------------------------------------------------------------------
 Center     Atomic     Atomic              Coordinates (Angstroms)
 Number     Number      Type              X           Y           Z
 ---------------------------------------------------------------------
    1          7             0       -0.674969   -0.941702    0.000000
    2          1             0       -0.005288    1.979393    0.000000
    3          6             0        1.025744    0.302019    0.000000
    4          1             0        1.967693    0.604544    0.000000
    5          6             0        0.600174   -0.946822    0.000000
    6          1             0        1.173884   -1.755622    0.000000
    7          1             0       -1.969692    0.607211    0.000000
    8          6             0       -1.032886    0.288794    0.000000
    9          7             0        0.000000    1.041778    0.000000
 ---------------------------------------------------------------------
 Rotational constants (GHZ):     11.1543393     10.4769603      5.4025219
 Isotopes: N-14,H-1,C-12,H-1,C-12,H-1,H-1,C-12,N-14
 Standard basis: 3-21G (6D, 7F)
 There are    43 symmetry adapted basis functions of A'  symmetry.
 There are    10 symmetry adapted basis functions of A"  symmetry.
 Crude estimate of integral set expansion from redundant integrals=1.000.
 Integral buffers will be    262144 words long.
 Raffenetti 2 integral format.
 Two-electron integral symmetry is turned on.
    53 basis functions       87 primitive gaussians
    18 alpha electrons       18 beta electrons
       nuclear repulsion energy       173.5664837334 Hartrees.
 One-electron integrals computed using PRISM.
 NBasis=    53 RedAO= T  NBF=    43    10
 NBsUse=    53 1.00D-04 NBFU=    43    10
 Projected INDO Guess.
 Initial guess orbital symmetries:
       Occupied  (A') (A') (A') (A') (A') (A') (A') (A') (A') (A')
                 (A') (A") (A') (A') (A') (A") (A') (A")
       Virtual   (A") (A') (A') (A") (A') (A') (A') (A') (A') (A')
                 (A') (A') (A') (A') (A') (A') (A') (A') (A') (A')
                 (A') (A') (A') (A') (A') (A') (A') (A') (A') (A')
                 (A") (A") (A") (A") (A")
 Requested convergence on RMS density matrix=1.00D-08 within  64 cycles.
 Requested convergence on MAX density matrix=1.00D-06.
 Keep R1 and R2 integrals in memory in canonical form, NReq=     2463126.
 Integral accuracy reduced to 1.0D-05 until final iterations.
 Initial convergence to 1.0D-05 achieved.  Increase integral accuracy.
 SCF Done:  E(RB+HF-LYP) =  -224.885210604     A.U. after   14 cycles
             Convg  =    0.3968D-08             -V/T =  1.9998
             S**2   =   0.0000

 **********************************************************************

            Population analysis using the SCF density.

 **********************************************************************

 Orbital Symmetries:
       Occupied  (A') (A') (A') (A') (A') (A') (A') (A') (A') (A')
                 (A') (A") (A') (A') (A') (A") (A') (A")
       Virtual   (A") (A') (A") (A') (A') (A') (A') (A') (A') (A')
                 (A') (A") (A') (A') (A") (A') (A") (A') (A') (A')
                 (A') (A') (A") (A') (A") (A') (A') (A') (A') (A')
                 (A') (A') (A') (A') (A')
  The electronic state is 1-A'.
 Alpha  occ. eigenvalues --  -14.30774 -14.20180 -10.14875 -10.12220 -10.10042
 Alpha  occ. eigenvalues --   -1.09535  -0.91447  -0.77058  -0.65489  -0.61910
 Alpha  occ. eigenvalues --   -0.59356  -0.47170  -0.46913  -0.44654  -0.42730
 Alpha  occ. eigenvalues --   -0.29341  -0.23015  -0.22776
 Alpha virt. eigenvalues --    0.06487   0.11452   0.11455   0.19052   0.21051
 Alpha virt. eigenvalues --    0.23003   0.29587   0.30666   0.40235   0.41274
 Alpha virt. eigenvalues --    0.56900   0.70221   0.72978   0.76936   0.77013
 Alpha virt. eigenvalues --    0.80957   0.81073   0.85923   0.87726   0.93875
 Alpha virt. eigenvalues --    1.04586   1.07635   1.12189   1.15115   1.22874
 Alpha virt. eigenvalues --    1.28007   1.31844   1.37813   1.39917   1.54302
 Alpha virt. eigenvalues --    1.68855   1.75216   1.82889   2.73191   2.93517
          Condensed to atoms (all electrons):
              1          2          3          4          5          6
  1  N    6.927444   0.004762  -0.100512   0.007293   0.404964  -0.040738
  2  H    0.004762   0.374443  -0.026071  -0.001566   0.007596  -0.000042
  3  C   -0.100512  -0.026071   5.233955   0.370008   0.469057  -0.075639
  4  H    0.007293  -0.001566   0.370008   0.483919  -0.022869  -0.000780
  5  C    0.404964   0.007596   0.469057  -0.022869   5.028697   0.413055
  6  H   -0.040738  -0.000042  -0.075639  -0.000780   0.413055   0.500849
  7  H   -0.035830  -0.000345   0.002984  -0.000013   0.006209  -0.000015
  8  C    0.524820  -0.019556  -0.199258   0.008473  -0.237727   0.008281
  9  N   -0.135734   0.339377   0.223931  -0.054448  -0.044378   0.004655
              7          8          9
  1  N   -0.035830   0.524820  -0.135734
  2  H   -0.000345  -0.019556   0.339377
  3  C    0.002984  -0.199258   0.223931
  4  H   -0.000013   0.008473  -0.054448
  5  C    0.006209  -0.237727  -0.044378
  6  H   -0.000015   0.008281   0.004655
  7  H    0.471600   0.396493  -0.063893
  8  C    0.396493   4.960243   0.232554
  9  N   -0.063893   0.232554   7.288654
 Total atomic charges:
              1
  1  N   -0.556467
  2  H    0.321403
  3  C    0.101546
  4  H    0.209982
  5  C   -0.024604
  6  H    0.190372
  7  H    0.222810
  8  C    0.325677
  9  N   -0.790719
 Sum of Mulliken charges=   0.00000
 Atomic charges with hydrogens summed into heavy atoms:
              1
  1  N   -0.556467
  2  H    0.000000
  3  C    0.311527
  4  H    0.000000
  5  C    0.165769
  6  H    0.000000
  7  H    0.000000
  8  C    0.548487
  9  N   -0.469316
 Sum of Mulliken charges=   0.00000
 Electronic spatial extent (au):  <R**2>=   258.4496
 Charge=     0.0000 electrons
 Dipole moment (Debye):
    X=     1.1732    Y=     3.7832    Z=     0.0000  Tot=     3.9610
 Quadrupole moment (Debye-Ang):
   XX=   -26.7647   YY=   -25.4911   ZZ=   -30.4259
   XY=    -3.0585   XZ=     0.0000   YZ=     0.0000
 Octapole moment (Debye-Ang**2):
  XXX=     0.3362  YYY=    15.3550  ZZZ=     0.0000  XYY=     4.5641
  XXY=     4.8823  XXZ=     0.0000  XZZ=    -0.8617  YZZ=     1.0985
  YYZ=     0.0000  XYZ=     0.0000
 Hexadecapole moment (Debye-Ang**3):
 XXXX=  -135.4938 YYYY=  -123.6571 ZZZZ=   -27.8697 XXXY=    -1.8579
 XXXZ=     0.0000 YYYX=    -5.9564 YYYZ=     0.0000 ZZZX=     0.0000
 ZZZY=     0.0000 XXYY=   -49.8290 XXZZ=   -32.5940 YYZZ=   -30.3524
 XXYZ=     0.0000 YYXZ=     0.0000 ZZXY=     1.0460
 N-N= 1.735664837334D+02 E-N=-8.711044937578D+02  KE= 2.249300817636D+02
 Symmetry A'   KE= 2.167141480486D+02
 Symmetry A"   KE= 8.215933715082D+00
 ***** Axes restored to original set *****
 -------------------------------------------------------------------
 Center     Atomic                   Forces (Hartrees/Bohr)
 Number     Number              X              Y              Z
 -------------------------------------------------------------------
    1          7           0.088008968    0.000000000    0.096926806
    2          1           0.018688459    0.000000000   -0.081230684
    3          6          -0.098105857    0.000000000    0.011544915
    4          1          -0.066151817    0.000000000   -0.047167722
    5          6          -0.053818717    0.000000000   -0.002098866
    6          1          -0.056555212    0.000000000    0.055985762
    7          1           0.080007895    0.000000000   -0.010316351
    8          6           0.054083188    0.000000000    0.042510973
    9          7           0.033843092    0.000000000   -0.066154832
 -------------------------------------------------------------------
 Cartesian Forces:  Max     0.098105857 RMS     0.049606752

 GradGradGradGradGradGradGradGradGradGradGradGradGradGradGradGradGradGrad
 Berny optimization.
 Internal  Forces:  Max     0.149872759 RMS     0.051148140
 Search for a local minimum.
 Step number   1 out of a maximum of  48
 All quantities printed in internal units (Hartrees-Bohrs-Radians)
 Second derivative matrix not updated -- first step.
     Eigenvalues ---    0.03211   0.03261   0.03288   0.03318   0.03352
     Eigenvalues ---    0.03407   0.16000   0.16000   0.16000   0.16000
     Eigenvalues ---    0.22000   0.22917   0.49193   0.49594   0.49613
     Eigenvalues ---    0.54578   0.60577   0.63413   0.68379   0.73836
     Eigenvalues ---    0.765081000.000001000.000001000.000001000.00000
     Eigenvalues --- 1000.000001000.000001000.000001000.000001000.00000
     Eigenvalues --- 1000.000001000.000001000.000001000.000001000.00000
     Eigenvalues --- 1000.000001000.000001000.00000
 RFO step:  Lambda=-1.26362923D-01.
 Linear search not attempted -- first point.
 Maximum step size (   0.300) exceeded in Quadratic search.
    -- Step size scaled by   0.737
 Iteration  1 RMS(Cart)=  0.06701507 RMS(Int)=  0.00034314
 Iteration  2 RMS(Cart)=  0.00039558 RMS(Int)=  0.00007677
 Iteration  3 RMS(Cart)=  0.00000016 RMS(Int)=  0.00007677
 Variable       Old X    -DE/DX   Delta X   Delta X   Delta X     New X
                                 (Linear)    (Quad)   (Total)
    R1        2.40969   0.13751   0.00000   0.11381   0.11375   2.52344
    R2        2.42167   0.07813   0.00000   0.06634   0.06620   2.48787
    R3        1.77186   0.08335   0.00000   0.08395   0.08395   1.85581
    R4        1.86958   0.08097   0.00000   0.09591   0.09591   1.96549
    R5        2.49323   0.08867   0.00000   0.08720   0.08730   2.58053
    R6        2.38988   0.14987   0.00000   0.12408   0.12419   2.51408
    R7        1.87388   0.07947   0.00000   0.09477   0.09477   1.96865
    R8        1.86977   0.08064   0.00000   0.09555   0.09555   1.96532
    R9        2.41548   0.13073   0.00000   0.11340   0.11336   2.52884
    A1        1.85787   0.00980   0.00000   0.00933   0.00909   1.86697
    A2        2.20999   0.01324   0.00000   0.02825   0.02814   2.23813
    A3        2.20602   0.00076   0.00000  -0.00388  -0.00399   2.20203
    A4        1.86717  -0.01400   0.00000  -0.02437  -0.02415   1.84302
    A5        1.89521   0.00810   0.00000   0.01230   0.01237   1.90758
    A6        2.19177  -0.00799   0.00000  -0.01631  -0.01634   2.17544
    A7        2.19620  -0.00011   0.00000   0.00400   0.00397   2.20017
    A8        2.18150   0.00497   0.00000   0.01063   0.01070   2.19220
    A9        1.91767  -0.00586   0.00000  -0.01078  -0.01091   1.90675
   A10        2.18402   0.00089   0.00000   0.00014   0.00021   2.18423
   A11        2.20124  -0.00142   0.00000  -0.00788  -0.00793   2.19332
   A12        2.19509  -0.00054   0.00000  -0.00563  -0.00568   2.18941
   A13        1.88685   0.00196   0.00000   0.01351   0.01361   1.90046
    D1        0.00000   0.00000   0.00000   0.00000   0.00000   0.00000
    D2        3.14159   0.00000   0.00000   0.00000   0.00000   3.14159
    D3        3.14159   0.00000   0.00000   0.00000   0.00000   3.14159
    D4        0.00000   0.00000   0.00000   0.00000   0.00000   0.00000
    D5        3.14159   0.00000   0.00000   0.00000   0.00000   3.14159
    D6        0.00000   0.00000   0.00000   0.00000   0.00000   0.00000
    D7        0.00000   0.00000   0.00000   0.00000   0.00000   0.00000
    D8       -3.14159   0.00000   0.00000   0.00000   0.00000  -3.14159
    D9        0.00000   0.00000   0.00000   0.00000   0.00000   0.00000
   D10        3.14159   0.00000   0.00000   0.00000   0.00000   3.14159
   D11        3.14159   0.00000   0.00000   0.00000   0.00000   3.14159
   D12        0.00000   0.00000   0.00000   0.00000   0.00000   0.00000
   D13        3.14159   0.00000   0.00000   0.00000   0.00000   3.14159
   D14        0.00000   0.00000   0.00000   0.00000   0.00000   0.00000
   D15        0.00000   0.00000   0.00000   0.00000   0.00000   0.00000
   D16        3.14159   0.00000   0.00000   0.00000   0.00000   3.14159
         Item               Value     Threshold  Converged?
 Maximum Force            0.149873     0.000450     NO 
 RMS     Force            0.051148     0.000300     NO 
 Maximum Displacement     0.198671     0.001800     NO 
 RMS     Displacement     0.066999     0.001200     NO 
 Predicted change in Energy=-2.866665D-02
 GradGradGradGradGradGradGradGradGradGradGradGradGradGradGradGradGradGrad

                          Input orientation:                          
 ---------------------------------------------------------------------
 Center     Atomic     Atomic              Coordinates (Angstroms)
 Number     Number      Type              X           Y           Z
 ---------------------------------------------------------------------
    1          7             0        0.476163    0.000000    1.109336
    2          1             0        0.473796    0.000000   -1.998311
    3          6             0       -0.985225    0.000000   -0.539119
    4          1             0       -1.871336    0.000000   -1.083727
    5          6             0       -0.826843    0.000000    0.817224
    6          1             0       -1.592195    0.000000    1.523986
    7          1             0        2.160861    0.000000   -0.144006
    8          6             0        1.126552    0.000000   -0.035318
    9          7             0        0.246040    0.000000   -1.043034
 ---------------------------------------------------------------------
                    Distance matrix (angstroms):
                    1          2          3          4          5
     1  N    0.000000
     2  H    3.107648   0.000000
     3  C    2.202966   2.063489   0.000000
     4  H    3.212519   2.517163   1.040092   0.000000
     5  C    1.335348   3.101436   1.365559   2.169005   0.000000
     6  H    2.109512   4.083491   2.150538   2.622611   1.041765
     7  H    2.099780   2.506918   3.170800   4.140253   3.138526
     8  C    1.316525   2.068680   2.171041   3.175925   2.131334
     9  N    2.164637   0.982052   1.330393   2.117767   2.147473
                    6          7          8          9
     6  H    0.000000
     7  H    4.107022   0.000000
     8  C    3.134169   1.040004   0.000000
     9  N    3.157325   2.115371   1.338206   0.000000
 Stoichiometry    C3H4N2
 Framework group  CS[SG(C3H4N2)]
 Deg. of freedom   15
 Full point group                 CS      NOp   2
 Largest Abelian subgroup         CS      NOp   2
 Largest concise Abelian subgroup C1      NOp   1
                         Standard orientation:                         
 ---------------------------------------------------------------------
 Center     Atomic     Atomic              Coordinates (Angstroms)
 Number     Number      Type              X           Y           Z
 ---------------------------------------------------------------------
    1          7             0       -0.709665   -0.968140    0.000000
    2          1             0       -0.006422    2.058892    0.000000
    3          6             0        1.085877    0.308216    0.000000
    4          1             0        2.071992    0.638927    0.000000
    5          6             0        0.625651   -0.977452    0.000000
    6          1             0        1.211868   -1.838628    0.000000
    7          1             0       -2.068256    0.632892    0.000000
    8          6             0       -1.085115    0.293714    0.000000
    9          7             0        0.000000    1.076861    0.000000
 ---------------------------------------------------------------------
 Rotational constants (GHZ):     10.0883515      9.8139492      4.9746293
 Isotopes: N-14,H-1,C-12,H-1,C-12,H-1,H-1,C-12,N-14
 Standard basis: 3-21G (6D, 7F)
 There are    43 symmetry adapted basis functions of A'  symmetry.
 There are    10 symmetry adapted basis functions of A"  symmetry.
 Crude estimate of integral set expansion from redundant integrals=1.000.
 Integral buffers will be    262144 words long.
 Raffenetti 2 integral format.
 Two-electron integral symmetry is turned on.
    53 basis functions       87 primitive gaussians
    18 alpha electrons       18 beta electrons
       nuclear repulsion energy       166.4574760767 Hartrees.
 One-electron integrals computed using PRISM.
 NBasis=    53 RedAO= T  NBF=    43    10
 NBsUse=    53 1.00D-04 NBFU=    43    10
 Initial guess read from the read-write file:
 Initial guess orbital symmetries:
       Occupied  (A') (A') (A') (A') (A') (A') (A') (A') (A') (A')
                 (A') (A") (A') (A') (A') (A") (A') (A")
       Virtual   (A") (A') (A") (A') (A') (A') (A') (A') (A') (A')
                 (A') (A") (A') (A') (A") (A') (A") (A') (A') (A')
                 (A') (A') (A") (A') (A") (A') (A') (A') (A') (A')
                 (A') (A') (A') (A') (A')
 Requested convergence on RMS density matrix=1.00D-08 within  64 cycles.
 Requested convergence on MAX density matrix=1.00D-06.
 Keep R1 and R2 integrals in memory in canonical form, NReq=     2463126.
 Integral accuracy reduced to 1.0D-05 until final iterations.
 Initial convergence to 1.0D-05 achieved.  Increase integral accuracy.
 SCF Done:  E(RB+HF-LYP) =  -224.946443791     A.U. after   13 cycles
             Convg  =    0.5214D-08             -V/T =  2.0055
             S**2   =   0.0000
 ***** Axes restored to original set *****
 -------------------------------------------------------------------
 Center     Atomic                   Forces (Hartrees/Bohr)
 Number     Number              X              Y              Z
 -------------------------------------------------------------------
    1          7           0.039209625    0.000000000    0.038847566
    2          1           0.006026391    0.000000000   -0.029146091
    3          6          -0.036610821    0.000000000    0.018652340
    4          1          -0.020895503    0.000000000   -0.019641666
    5          6          -0.022865838    0.000000000   -0.013622335
    6          1          -0.017661557    0.000000000    0.021599843
    7          1           0.027546691    0.000000000   -0.005181627
    8          6           0.007696363    0.000000000    0.022438527
    9          7           0.017554648    0.000000000   -0.033946557
 -------------------------------------------------------------------
 Cartesian Forces:  Max     0.039209625 RMS     0.019943293

 GradGradGradGradGradGradGradGradGradGradGradGradGradGradGradGradGradGrad
 Berny optimization.
 Internal  Forces:  Max     0.054465839 RMS     0.018092491
 Search for a local minimum.
 Step number   2 out of a maximum of  48
 All quantities printed in internal units (Hartrees-Bohrs-Radians)
 Update second derivatives using information from points  1  2
 Trust test= 2.14D+00 RLast= 3.00D-01 DXMaxT set to 4.24D-01
     Eigenvalues ---    0.03210   0.03262   0.03288   0.03315   0.03352
     Eigenvalues ---    0.03406   0.15931   0.16000   0.16000   0.16000
     Eigenvalues ---    0.22197   0.22852   0.49307   0.49604   0.51105
     Eigenvalues ---    0.55716   0.60876   0.63946   0.70221   0.73156
     Eigenvalues ---    0.762251000.000001000.000001000.000001000.00000
     Eigenvalues --- 1000.000001000.000001000.000001000.000001000.00000
     Eigenvalues --- 1000.000001000.000001000.000001000.000001000.00000
     Eigenvalues --- 1000.000001000.000001000.00000
 RFO step:  Lambda=-3.04077195D-03.
 Quartic linear search produced a step of  0.71449.
 Iteration  1 RMS(Cart)=  0.04975304 RMS(Int)=  0.00081783
 Iteration  2 RMS(Cart)=  0.00100050 RMS(Int)=  0.00008282
 Iteration  3 RMS(Cart)=  0.00000096 RMS(Int)=  0.00008281
 Variable       Old X    -DE/DX   Delta X   Delta X   Delta X     New X
                                 (Linear)    (Quad)   (Total)
    R1        2.52344   0.05135   0.08128   0.00752   0.08865   2.61210
    R2        2.48787   0.02403   0.04730  -0.00719   0.04004   2.52791
    R3        1.85581   0.02975   0.05998   0.00496   0.06494   1.92075
    R4        1.96549   0.02809   0.06853   0.00648   0.07501   2.04050
    R5        2.58053   0.02548   0.06238  -0.01250   0.04986   2.63039
    R6        2.51408   0.05447   0.08874   0.00532   0.09419   2.60827
    R7        1.96865   0.02763   0.06771   0.00679   0.07450   2.04315
    R8        1.96532   0.02794   0.06827   0.00634   0.07461   2.03994
    R9        2.52884   0.04650   0.08100   0.00357   0.08466   2.61350
    A1        1.86697  -0.00214   0.00650  -0.03999  -0.03377   1.83320
    A2        2.23813   0.00702   0.02011   0.04006   0.06010   2.29823
    A3        2.20203  -0.00437  -0.00285  -0.04976  -0.05268   2.14936
    A4        1.84302  -0.00264  -0.01726   0.00970  -0.00743   1.83559
    A5        1.90758   0.00545   0.00883   0.02032   0.02903   1.93660
    A6        2.17544  -0.00655  -0.01167  -0.04091  -0.05252   2.12291
    A7        2.20017   0.00110   0.00284   0.02060   0.02350   2.22367
    A8        2.19220   0.00010   0.00764  -0.00422   0.00341   2.19561
    A9        1.90675   0.00427  -0.00780   0.04565   0.03789   1.94464
   A10        2.18423  -0.00437   0.00015  -0.04143  -0.04129   2.14294
   A11        2.19332   0.00164  -0.00566   0.01014   0.00436   2.19767
   A12        2.18941   0.00330  -0.00406   0.02553   0.02136   2.21077
   A13        1.90046  -0.00494   0.00972  -0.03567  -0.02572   1.87474
    D1        0.00000   0.00000   0.00000   0.00000   0.00000   0.00000
    D2        3.14159   0.00000   0.00000   0.00000   0.00000   3.14159
    D3        3.14159   0.00000   0.00000   0.00000   0.00000   3.14159
    D4        0.00000   0.00000   0.00000   0.00000   0.00000   0.00000
    D5       -3.14159   0.00000   0.00000   0.00000   0.00000  -3.14159
    D6        0.00000   0.00000   0.00000   0.00000   0.00000   0.00000
    D7        0.00000   0.00000   0.00000   0.00000   0.00000   0.00000
    D8        3.14159   0.00000   0.00000   0.00000   0.00000   3.14159
    D9        0.00000   0.00000   0.00000   0.00000   0.00000   0.00000
   D10        3.14159   0.00000   0.00000   0.00000   0.00000   3.14159
   D11        3.14159   0.00000   0.00000   0.00000   0.00000   3.14159
   D12        0.00000   0.00000   0.00000   0.00000   0.00000   0.00000
   D13        3.14159   0.00000   0.00000   0.00000   0.00000   3.14159
   D14        0.00000   0.00000   0.00000   0.00000   0.00000   0.00000
   D15        0.00000   0.00000   0.00000   0.00000   0.00000   0.00000
   D16        3.14159   0.00000   0.00000   0.00000   0.00000   3.14159
         Item               Value     Threshold  Converged?
 Maximum Force            0.054466     0.000450     NO 
 RMS     Force            0.018092     0.000300     NO 
 Maximum Displacement     0.140329     0.001800     NO 
 RMS     Displacement     0.049626     0.001200     NO 
 Predicted change in Energy=-1.698779D-02
 GradGradGradGradGradGradGradGradGradGradGradGradGradGradGradGradGradGrad

                          Input orientation:                          
 ---------------------------------------------------------------------
 Center     Atomic     Atomic              Coordinates (Angstroms)
 Number     Number      Type              X           Y           Z
 ---------------------------------------------------------------------
    1          7             0        0.497301    0.000000    1.155647
    2          1             0        0.485462    0.000000   -2.067543
    3          6             0       -1.024627    0.000000   -0.549743
    4          1             0       -1.916470    0.000000   -1.158472
    5          6             0       -0.846229    0.000000    0.830721
    6          1             0       -1.613802    0.000000    1.592168
    7          1             0        2.209324    0.000000   -0.153217
    8          6             0        1.138275    0.000000   -0.018504
    9          7             0        0.250217    0.000000   -1.078722
 ---------------------------------------------------------------------
                    Distance matrix (angstroms):
                    1          2          3          4          5
     1  N    0.000000
     2  H    3.223211   0.000000
     3  C    2.285742   2.141048   0.000000
     4  H    3.343866   2.568207   1.079785   0.000000
     5  C    1.382262   3.189566   1.391943   2.258828   0.000000
     6  H    2.155762   4.219051   2.221465   2.767242   1.081190
     7  H    2.155028   2.576110   3.258170   4.246494   3.210068
     8  C    1.337713   2.150518   2.227187   3.260521   2.158573
     9  N    2.247989   1.016419   1.380235   2.168155   2.201855
                    6          7          8          9
     6  H    0.000000
     7  H    4.202697   0.000000
     8  C    3.188760   1.079488   0.000000
     9  N    3.257026   2.166716   1.383007   0.000000
 Stoichiometry    C3H4N2
 Framework group  CS[SG(C3H4N2)]
 Deg. of freedom   15
 Full point group                 CS      NOp   2
 Largest Abelian subgroup         CS      NOp   2
 Largest concise Abelian subgroup C1      NOp   1
                         Standard orientation:                         
 ---------------------------------------------------------------------
 Center     Atomic     Atomic              Coordinates (Angstroms)
 Number     Number      Type              X           Y           Z
 ---------------------------------------------------------------------
    1          7             0       -0.741590   -1.005963    0.000000
    2          1             0       -0.007633    2.132571    0.000000
    3          6             0        1.123850    0.314927    0.000000
    4          1             0        2.129439    0.708280    0.000000
    5          6             0        0.640585   -0.990431    0.000000
    6          1             0        1.217967   -1.904543    0.000000
    7          1             0       -2.116700    0.653320    0.000000
    8          6             0       -1.103093    0.281978    0.000000
    9          7             0        0.000000    1.116181    0.000000
 ---------------------------------------------------------------------
 Rotational constants (GHZ):      9.6420109      9.1556531      4.6962701
 Isotopes: N-14,H-1,C-12,H-1,C-12,H-1,H-1,C-12,N-14
 Standard basis: 3-21G (6D, 7F)
 There are    43 symmetry adapted basis functions of A'  symmetry.
 There are    10 symmetry adapted basis functions of A"  symmetry.
 Crude estimate of integral set expansion from redundant integrals=1.000.
 Integral buffers will be    262144 words long.
 Raffenetti 2 integral format.
 Two-electron integral symmetry is turned on.
    53 basis functions       87 primitive gaussians
    18 alpha electrons       18 beta electrons
       nuclear repulsion energy       161.6976606866 Hartrees.
 One-electron integrals computed using PRISM.
 NBasis=    53 RedAO= T  NBF=    43    10
 NBsUse=    53 1.00D-04 NBFU=    43    10
 Initial guess read from the read-write file:
 Initial guess orbital symmetries:
       Occupied  (A') (A') (A') (A') (A') (A') (A') (A') (A') (A')
                 (A') (A') (A") (A') (A') (A") (A') (A")
       Virtual   (A") (A") (A') (A') (A') (A') (A') (A') (A') (A')
                 (A') (A") (A') (A') (A') (A") (A") (A') (A') (A')
                 (A') (A') (A') (A") (A") (A') (A') (A') (A') (A')
                 (A') (A') (A') (A') (A')
 Requested convergence on RMS density matrix=1.00D-08 within  64 cycles.
 Requested convergence on MAX density matrix=1.00D-06.
 Keep R1 and R2 integrals in memory in canonical form, NReq=     2463126.
 Integral accuracy reduced to 1.0D-05 until final iterations.
 Initial convergence to 1.0D-05 achieved.  Increase integral accuracy.
 SCF Done:  E(RB+HF-LYP) =  -224.958571051     A.U. after   13 cycles
             Convg  =    0.4486D-08             -V/T =  2.0088
             S**2   =   0.0000
 ***** Axes restored to original set *****
 -------------------------------------------------------------------
 Center     Atomic                   Forces (Hartrees/Bohr)
 Number     Number              X              Y              Z
 -------------------------------------------------------------------
    1          7           0.010084958    0.000000000   -0.008615127
    2          1          -0.000439552    0.000000000    0.003552193
    3          6          -0.009725839    0.000000000    0.013367373
    4          1           0.003018978    0.000000000    0.002076558
    5          6          -0.018571841    0.000000000   -0.007865272
    6          1           0.002516389    0.000000000   -0.002713717
    7          1          -0.002780788    0.000000000    0.000053980
    8          6           0.007869604    0.000000000    0.004112133
    9          7           0.008028092    0.000000000   -0.003968122
 -------------------------------------------------------------------
 Cartesian Forces:  Max     0.018571841 RMS     0.006273659

 GradGradGradGradGradGradGradGradGradGradGradGradGradGradGradGradGradGrad
 Berny optimization.
 Internal  Forces:  Max     0.012317378 RMS     0.003911731
 Search for a local minimum.
 Step number   3 out of a maximum of  48
 All quantities printed in internal units (Hartrees-Bohrs-Radians)
 Update second derivatives using information from points  1  2  3
 Trust test= 7.14D-01 RLast= 2.55D-01 DXMaxT set to 4.24D-01
     Eigenvalues ---    0.03205   0.03261   0.03287   0.03306   0.03349
     Eigenvalues ---    0.03404   0.15595   0.16000   0.16000   0.16004
     Eigenvalues ---    0.22230   0.24085   0.44964   0.49325   0.49611
     Eigenvalues ---    0.56186   0.57493   0.63073   0.64846   0.73587
     Eigenvalues ---    0.747171000.000001000.000001000.000001000.00000
     Eigenvalues --- 1000.000001000.000001000.000001000.000001000.00000
     Eigenvalues --- 1000.000001000.000001000.000001000.000001000.00000
     Eigenvalues --- 1000.000001000.000001000.00000
 RFO step:  Lambda=-1.09027276D-03.
 Quartic linear search produced a step of -0.02225.
 Iteration  1 RMS(Cart)=  0.00908293 RMS(Int)=  0.00004505
 Iteration  2 RMS(Cart)=  0.00004240 RMS(Int)=  0.00000750
 Iteration  3 RMS(Cart)=  0.00000000 RMS(Int)=  0.00000750
 Variable       Old X    -DE/DX   Delta X   Delta X   Delta X     New X
                                 (Linear)    (Quad)   (Total)
    R1        2.61210   0.01165  -0.00197   0.02009   0.01813   2.63023
    R2        2.52791  -0.00530  -0.00089  -0.00497  -0.00586   2.52205
    R3        1.92075  -0.00356  -0.00145  -0.00227  -0.00371   1.91704
    R4        2.04050  -0.00366  -0.00167  -0.00329  -0.00496   2.03553
    R5        2.63039  -0.01232  -0.00111  -0.01674  -0.01784   2.61255
    R6        2.60827   0.01100  -0.00210   0.01904   0.01693   2.62520
    R7        2.04315  -0.00370  -0.00166  -0.00345  -0.00511   2.03804
    R8        2.03994  -0.00277  -0.00166  -0.00154  -0.00320   2.03673
    R9        2.61350  -0.00053  -0.00188   0.00397   0.00207   2.61558
    A1        1.83320   0.00579   0.00075   0.02140   0.02217   1.85537
    A2        2.29823  -0.00029  -0.00134   0.00102  -0.00032   2.29792
    A3        2.14936  -0.00026   0.00117  -0.00390  -0.00273   2.14663
    A4        1.83559   0.00055   0.00017   0.00288   0.00304   1.83864
    A5        1.93660  -0.00337  -0.00065  -0.01325  -0.01388   1.92273
    A6        2.12291   0.00184   0.00117   0.00587   0.00703   2.12995
    A7        2.22367   0.00153  -0.00052   0.00737   0.00684   2.23051
    A8        2.19561   0.00285  -0.00008   0.01289   0.01282   2.20843
    A9        1.94464  -0.00510  -0.00084  -0.02012  -0.02097   1.92367
   A10        2.14294   0.00225   0.00092   0.00723   0.00815   2.15109
   A11        2.19767  -0.00068  -0.00010  -0.00262  -0.00271   2.19497
   A12        2.21077  -0.00144  -0.00048  -0.00646  -0.00693   2.20384
   A13        1.87474   0.00213   0.00057   0.00908   0.00964   1.88438
    D1        0.00000   0.00000   0.00000   0.00000   0.00000   0.00000
    D2        3.14159   0.00000   0.00000   0.00000   0.00000   3.14159
    D3        3.14159   0.00000   0.00000   0.00000   0.00000   3.14159
    D4        0.00000   0.00000   0.00000   0.00000   0.00000   0.00000
    D5        3.14159   0.00000   0.00000   0.00000   0.00000   3.14159
    D6        0.00000   0.00000   0.00000   0.00000   0.00000   0.00000
    D7        0.00000   0.00000   0.00000   0.00000   0.00000   0.00000
    D8        3.14159   0.00000   0.00000   0.00000   0.00000   3.14159
    D9        0.00000   0.00000   0.00000   0.00000   0.00000   0.00000
   D10        3.14159   0.00000   0.00000   0.00000   0.00000   3.14159
   D11        3.14159   0.00000   0.00000   0.00000   0.00000   3.14159
   D12        0.00000   0.00000   0.00000   0.00000   0.00000   0.00000
   D13        3.14159   0.00000   0.00000   0.00000   0.00000   3.14159
   D14        0.00000   0.00000   0.00000   0.00000   0.00000   0.00000
   D15        0.00000   0.00000   0.00000   0.00000   0.00000   0.00000
   D16        3.14159   0.00000   0.00000   0.00000   0.00000   3.14159
         Item               Value     Threshold  Converged?
 Maximum Force            0.012317     0.000450     NO 
 RMS     Force            0.003912     0.000300     NO 
 Maximum Displacement     0.024878     0.001800     NO 
 RMS     Displacement     0.009080     0.001200     NO 
 Predicted change in Energy=-5.502272D-04
 GradGradGradGradGradGradGradGradGradGradGradGradGradGradGradGradGradGrad

                          Input orientation:                          
 ---------------------------------------------------------------------
 Center     Atomic     Atomic              Coordinates (Angstroms)
 Number     Number      Type              X           Y           Z
 ---------------------------------------------------------------------
    1          7             0        0.497422    0.000000    1.133419
    2          1             0        0.486063    0.000000   -2.070684
    3          6             0       -1.030474    0.000000   -0.552027
    4          1             0       -1.917967    0.000000   -1.162458
    5          6             0       -0.858632    0.000000    0.819751
    6          1             0       -1.622046    0.000000    1.581544
    7          1             0        2.220426    0.000000   -0.165304
    8          6             0        1.151144    0.000000   -0.030128
    9          7             0        0.253101    0.000000   -1.083342
 ---------------------------------------------------------------------
                    Distance matrix (angstroms):
                    1          2          3          4          5
     1  N    0.000000
     2  H    3.204123   0.000000
     3  C    2.274905   2.146206   0.000000
     4  H    3.332440   2.569870   1.077158   0.000000
     5  C    1.391859   3.187918   1.382500   2.247520   0.000000
     6  H    2.166324   4.216977   2.214065   2.759913   1.078485
     7  H    2.157643   2.576526   3.273821   4.256831   3.232790
     8  C    1.334614   2.146206   2.243175   3.271332   2.182085
     9  N    2.230185   1.014453   1.389194   2.172509   2.204023
                    6          7          8          9
     6  H    0.000000
     7  H    4.220909   0.000000
     8  C    3.207502   1.077793   0.000000
     9  N    3.258496   2.170982   1.384103   0.000000
 Stoichiometry    C3H4N2
 Framework group  CS[SG(C3H4N2)]
 Deg. of freedom   15
 Full point group                 CS      NOp   2
 Largest Abelian subgroup         CS      NOp   2
 Largest concise Abelian subgroup C1      NOp   1
                         Standard orientation:                         
 ---------------------------------------------------------------------
 Center     Atomic     Atomic              Coordinates (Angstroms)
 Number     Number      Type              X           Y           Z
 ---------------------------------------------------------------------
    1          7             0       -0.743113   -0.991277    0.000000
    2          1             0       -0.001806    2.125912    0.000000
    3          6             0        1.128702    0.301589    0.000000
    4          1             0        2.131961    0.693686    0.000000
    5          6             0        0.648741   -0.994923    0.000000
    6          1             0        1.218443   -1.910657    0.000000
    7          1             0       -2.124779    0.665956    0.000000
    8          6             0       -1.114447    0.290638    0.000000
    9          7             0        0.000000    1.111460    0.000000
 ---------------------------------------------------------------------
 Rotational constants (GHZ):      9.4757598      9.2869506      4.6902026
 Isotopes: N-14,H-1,C-12,H-1,C-12,H-1,H-1,C-12,N-14
 Standard basis: 3-21G (6D, 7F)
 There are    43 symmetry adapted basis functions of A'  symmetry.
 There are    10 symmetry adapted basis functions of A"  symmetry.
 Crude estimate of integral set expansion from redundant integrals=1.000.
 Integral buffers will be    262144 words long.
 Raffenetti 2 integral format.
 Two-electron integral symmetry is turned on.
    53 basis functions       87 primitive gaussians
    18 alpha electrons       18 beta electrons
       nuclear repulsion energy       161.5844967481 Hartrees.
 One-electron integrals computed using PRISM.
 NBasis=    53 RedAO= T  NBF=    43    10
 NBsUse=    53 1.00D-04 NBFU=    43    10
 Initial guess read from the read-write file:
 Initial guess orbital symmetries:
       Occupied  (A') (A') (A') (A') (A') (A') (A') (A') (A') (A')
                 (A') (A') (A') (A") (A') (A") (A') (A")
       Virtual   (A") (A") (A') (A') (A') (A') (A') (A') (A') (A')
                 (A') (A') (A") (A') (A') (A") (A") (A') (A') (A')
                 (A') (A') (A') (A") (A") (A') (A') (A') (A') (A')
                 (A') (A') (A') (A') (A')
 Requested convergence on RMS density matrix=1.00D-08 within  64 cycles.
 Requested convergence on MAX density matrix=1.00D-06.
 Keep R1 and R2 integrals in memory in canonical form, NReq=     2463126.
 Integral accuracy reduced to 1.0D-05 until final iterations.
 Initial convergence to 1.0D-05 achieved.  Increase integral accuracy.
 SCF Done:  E(RB+HF-LYP) =  -224.959092920     A.U. after   12 cycles
             Convg  =    0.3764D-08             -V/T =  2.0089
             S**2   =   0.0000
 ***** Axes restored to original set *****
 -------------------------------------------------------------------
 Center     Atomic                   Forces (Hartrees/Bohr)
 Number     Number              X              Y              Z
 -------------------------------------------------------------------
    1          7           0.008481258    0.000000000    0.001123523
    2          1          -0.000883665    0.000000000    0.001328273
    3          6          -0.002506614    0.000000000    0.006120658
    4          1           0.001732003    0.000000000    0.000419714
    5          6          -0.004722665    0.000000000   -0.006750407
    6          1           0.002068170    0.000000000   -0.001005828
    7          1          -0.001861498    0.000000000    0.000207623
    8          6          -0.006699306    0.000000000    0.004808060
    9          7           0.004392317    0.000000000   -0.006251616
 -------------------------------------------------------------------
 Cartesian Forces:  Max     0.008481258 RMS     0.003473193

 GradGradGradGradGradGradGradGradGradGradGradGradGradGradGradGradGradGrad
 Berny optimization.
 Internal  Forces:  Max     0.004650391 RMS     0.001801981
 Search for a local minimum.
 Step number   4 out of a maximum of  48
 All quantities printed in internal units (Hartrees-Bohrs-Radians)
 Update second derivatives using information from points  1  2  3  4
 Trust test= 9.48D-01 RLast= 5.16D-02 DXMaxT set to 4.24D-01
     Eigenvalues ---    0.03205   0.03262   0.03287   0.03306   0.03350
     Eigenvalues ---    0.03404   0.15241   0.15999   0.16000   0.16041
     Eigenvalues ---    0.21995   0.34733   0.43623   0.48637   0.49419
     Eigenvalues ---    0.49687   0.57020   0.60009   0.64410   0.68729
     Eigenvalues ---    0.772771000.000001000.000001000.000001000.00000
     Eigenvalues --- 1000.000001000.000001000.000001000.000001000.00000
     Eigenvalues --- 1000.000001000.000001000.000001000.000001000.00000
     Eigenvalues --- 1000.000001000.000001000.00000
 RFO step:  Lambda=-2.97688997D-04.
 Quartic linear search produced a step of -0.04853.
 Iteration  1 RMS(Cart)=  0.00346493 RMS(Int)=  0.00001005
 Iteration  2 RMS(Cart)=  0.00000984 RMS(Int)=  0.00000615
 Iteration  3 RMS(Cart)=  0.00000000 RMS(Int)=  0.00000615
 Variable       Old X    -DE/DX   Delta X   Delta X   Delta X     New X
                                 (Linear)    (Quad)   (Total)
    R1        2.63023   0.00361  -0.00088   0.01177   0.01088   2.64112
    R2        2.52205  -0.00465   0.00028  -0.00728  -0.00699   2.51507
    R3        1.91704  -0.00150   0.00018  -0.00239  -0.00221   1.91483
    R4        2.03553  -0.00166   0.00024  -0.00336  -0.00311   2.03242
    R5        2.61255  -0.00435   0.00087  -0.01093  -0.01007   2.60247
    R6        2.62520   0.00127  -0.00082   0.00876   0.00794   2.63314
    R7        2.03804  -0.00217   0.00025  -0.00443  -0.00418   2.03386
    R8        2.03673  -0.00187   0.00016  -0.00319  -0.00304   2.03369
    R9        2.61558   0.00018  -0.00010   0.00234   0.00225   2.61782
    A1        1.85537  -0.00339  -0.00108  -0.00703  -0.00811   1.84726
    A2        2.29792   0.00051   0.00002   0.00323   0.00325   2.30117
    A3        2.14663  -0.00079   0.00013  -0.00564  -0.00550   2.14113
    A4        1.83864   0.00028  -0.00015   0.00241   0.00225   1.84089
    A5        1.92273   0.00178   0.00067   0.00326   0.00392   1.92665
    A6        2.12995  -0.00165  -0.00034  -0.00622  -0.00655   2.12339
    A7        2.23051  -0.00013  -0.00033   0.00296   0.00263   2.23315
    A8        2.20843  -0.00201  -0.00062  -0.00368  -0.00431   2.20412
    A9        1.92367   0.00406   0.00102   0.00923   0.01026   1.93393
   A10        2.15109  -0.00206  -0.00040  -0.00555  -0.00596   2.14513
   A11        2.19497   0.00084   0.00013   0.00148   0.00161   2.19658
   A12        2.20384   0.00190   0.00034   0.00639   0.00672   2.21056
   A13        1.88438  -0.00274  -0.00047  -0.00787  -0.00833   1.87605
    D1        0.00000   0.00000   0.00000   0.00000   0.00000   0.00000
    D2        3.14159   0.00000   0.00000   0.00000   0.00000   3.14159
    D3        3.14159   0.00000   0.00000   0.00000   0.00000   3.14159
    D4        0.00000   0.00000   0.00000   0.00000   0.00000   0.00000
    D5        3.14159   0.00000   0.00000   0.00000   0.00000   3.14159
    D6        0.00000   0.00000   0.00000   0.00000   0.00000   0.00000
    D7        0.00000   0.00000   0.00000   0.00000   0.00000   0.00000
    D8        3.14159   0.00000   0.00000   0.00000   0.00000   3.14159
    D9        0.00000   0.00000   0.00000   0.00000   0.00000   0.00000
   D10        3.14159   0.00000   0.00000   0.00000   0.00000   3.14159
   D11        3.14159   0.00000   0.00000   0.00000   0.00000   3.14159
   D12        0.00000   0.00000   0.00000   0.00000   0.00000   0.00000
   D13        3.14159   0.00000   0.00000   0.00000   0.00000   3.14159
   D14        0.00000   0.00000   0.00000   0.00000   0.00000   0.00000
   D15        0.00000   0.00000   0.00000   0.00000   0.00000   0.00000
   D16        3.14159   0.00000   0.00000   0.00000   0.00000   3.14159
         Item               Value     Threshold  Converged?
 Maximum Force            0.004650     0.000450     NO 
 RMS     Force            0.001802     0.000300     NO 
 Maximum Displacement     0.009897     0.001800     NO 
 RMS     Displacement     0.003468     0.001200     NO 
 Predicted change in Energy=-1.500747D-04
 GradGradGradGradGradGradGradGradGradGradGradGradGradGradGradGradGradGrad

                          Input orientation:                          
 ---------------------------------------------------------------------
 Center     Atomic     Atomic              Coordinates (Angstroms)
 Number     Number      Type              X           Y           Z
 ---------------------------------------------------------------------
    1          7             0        0.501639    0.000000    1.137080
    2          1             0        0.485917    0.000000   -2.071866
    3          6             0       -1.031244    0.000000   -0.548543
    4          1             0       -1.915859    0.000000   -1.160244
    5          6             0       -0.859026    0.000000    0.817815
    6          1             0       -1.618288    0.000000    1.580627
    7          1             0        2.215401    0.000000   -0.162112
    8          6             0        1.147801    0.000000   -0.026454
    9          7             0        0.254604    0.000000   -1.085337
 ---------------------------------------------------------------------
                    Distance matrix (angstroms):
                    1          2          3          4          5
     1  N    0.000000
     2  H    3.208984   0.000000
     3  C    2.278388   2.149951   0.000000
     4  H    3.334965   2.568965   1.075510   0.000000
     5  C    1.397619   3.187339   1.377169   2.242680   0.000000
     6  H    2.165831   4.215256   2.208616   2.756977   1.076272
     7  H    2.150554   2.576485   3.269561   4.250126   3.226818
     8  C    1.330916   2.149837   2.240717   3.266725   2.177187
     9  N    2.236105   1.013284   1.393396   2.171755   2.205030
                    6          7          8          9
     6  H    0.000000
     7  H    4.211213   0.000000
     8  C    3.199056   1.076184   0.000000
     9  N    3.258081   2.167272   1.385292   0.000000
 Stoichiometry    C3H4N2
 Framework group  CS[SG(C3H4N2)]
 Deg. of freedom   15
 Full point group                 CS      NOp   2
 Largest Abelian subgroup         CS      NOp   2
 Largest concise Abelian subgroup C1      NOp   1
                         Standard orientation:                         
 ---------------------------------------------------------------------
 Center     Atomic     Atomic              Coordinates (Angstroms)
 Number     Number      Type              X           Y           Z
 ---------------------------------------------------------------------
    1          7             0       -0.747697   -0.992484    0.000000
    2          1             0       -0.000072    2.128195    0.000000
    3          6             0        1.129413    0.298837    0.000000
    4          1             0        2.130282    0.692517    0.000000
    5          6             0        0.649921   -0.992163    0.000000
    6          1             0        1.215066   -1.908118    0.000000
    7          1             0       -2.119745    0.663525    0.000000
    8          6             0       -1.111276    0.287808    0.000000
    9          7             0        0.000000    1.114911    0.000000
 ---------------------------------------------------------------------
 Rotational constants (GHZ):      9.4906126      9.2655037      4.6883536
 Isotopes: N-14,H-1,C-12,H-1,C-12,H-1,H-1,C-12,N-14
 Standard basis: 3-21G (6D, 7F)
 There are    43 symmetry adapted basis functions of A'  symmetry.
 There are    10 symmetry adapted basis functions of A"  symmetry.
 Crude estimate of integral set expansion from redundant integrals=1.000.
 Integral buffers will be    262144 words long.
 Raffenetti 2 integral format.
 Two-electron integral symmetry is turned on.
    53 basis functions       87 primitive gaussians
    18 alpha electrons       18 beta electrons
       nuclear repulsion energy       161.5707721336 Hartrees.
 One-electron integrals computed using PRISM.
 NBasis=    53 RedAO= T  NBF=    43    10
 NBsUse=    53 1.00D-04 NBFU=    43    10
 Initial guess read from the read-write file:
 Initial guess orbital symmetries:
       Occupied  (A') (A') (A') (A') (A') (A') (A') (A') (A') (A')
                 (A') (A') (A') (A") (A') (A") (A') (A")
       Virtual   (A") (A") (A') (A') (A') (A') (A') (A') (A') (A')
                 (A') (A') (A") (A') (A') (A") (A") (A') (A') (A')
                 (A') (A') (A') (A") (A") (A') (A') (A') (A') (A')
                 (A') (A') (A') (A') (A')
 Requested convergence on RMS density matrix=1.00D-08 within  64 cycles.
 Requested convergence on MAX density matrix=1.00D-06.
 Keep R1 and R2 integrals in memory in canonical form, NReq=     2463126.
 SCF Done:  E(RB+HF-LYP) =  -224.959295622     A.U. after   10 cycles
             Convg  =    0.5683D-08             -V/T =  2.0088
             S**2   =   0.0000
 ***** Axes restored to original set *****
 -------------------------------------------------------------------
 Center     Atomic                   Forces (Hartrees/Bohr)
 Number     Number              X              Y              Z
 -------------------------------------------------------------------
    1          7           0.003724949    0.000000000   -0.000177884
    2          1          -0.000366526    0.000000000    0.000677657
    3          6          -0.000089257    0.000000000    0.002034372
    4          1           0.000479514    0.000000000    0.000096633
    5          6          -0.002585189    0.000000000   -0.002540305
    6          1           0.000718244    0.000000000   -0.000127602
    7          1          -0.000440825    0.000000000    0.000014163
    8          6          -0.003240523    0.000000000    0.001451853
    9          7           0.001799614    0.000000000   -0.001428888
 -------------------------------------------------------------------
 Cartesian Forces:  Max     0.003724949 RMS     0.001369490

 GradGradGradGradGradGradGradGradGradGradGradGradGradGradGradGradGradGrad
 Berny optimization.
 Internal  Forces:  Max     0.002111030 RMS     0.000687979
 Search for a local minimum.
 Step number   5 out of a maximum of  48
 All quantities printed in internal units (Hartrees-Bohrs-Radians)
 Update second derivatives using information from points  1  2  3  4  5

 Trust test= 1.35D+00 RLast= 2.88D-02 DXMaxT set to 4.24D-01
     Eigenvalues ---    0.03205   0.03262   0.03287   0.03305   0.03350
     Eigenvalues ---    0.03404   0.14172   0.15971   0.16002   0.16028
     Eigenvalues ---    0.20925   0.27795   0.43482   0.47661   0.49441
     Eigenvalues ---    0.49658   0.57033   0.59319   0.64871   0.66797
     Eigenvalues ---    0.763951000.000001000.000001000.000001000.00000
     Eigenvalues --- 1000.000001000.000001000.000001000.000001000.00000
     Eigenvalues --- 1000.000001000.000001000.000001000.000001000.00000
     Eigenvalues --- 1000.000001000.000001000.00000
 RFO step:  Lambda=-9.12445687D-06.
 Quartic linear search produced a step of  0.53367.
 Iteration  1 RMS(Cart)=  0.00184530 RMS(Int)=  0.00000595
 Iteration  2 RMS(Cart)=  0.00000356 RMS(Int)=  0.00000510
 Iteration  3 RMS(Cart)=  0.00000000 RMS(Int)=  0.00000510
 Variable       Old X    -DE/DX   Delta X   Delta X   Delta X     New X
                                 (Linear)    (Quad)   (Total)
    R1        2.64112   0.00177   0.00581   0.00174   0.00754   2.64866
    R2        2.51507  -0.00211  -0.00373  -0.00145  -0.00517   2.50990
    R3        1.91483  -0.00074  -0.00118  -0.00067  -0.00185   1.91298
    R4        2.03242  -0.00045  -0.00166   0.00027  -0.00139   2.03102
    R5        2.60247  -0.00165  -0.00538  -0.00054  -0.00593   2.59655
    R6        2.63314   0.00011   0.00424  -0.00046   0.00378   2.63691
    R7        2.03386  -0.00060  -0.00223   0.00031  -0.00192   2.03194
    R8        2.03369  -0.00044  -0.00162   0.00052  -0.00110   2.03259
    R9        2.61782  -0.00079   0.00120  -0.00195  -0.00075   2.61708
    A1        1.84726  -0.00108  -0.00433   0.00069  -0.00363   1.84363
    A2        2.30117   0.00012   0.00173  -0.00049   0.00125   2.30242
    A3        2.14113  -0.00028  -0.00293  -0.00032  -0.00325   2.13788
    A4        1.84089   0.00016   0.00120   0.00081   0.00200   1.84289
    A5        1.92665   0.00015   0.00209  -0.00184   0.00024   1.92689
    A6        2.12339  -0.00050  -0.00350  -0.00083  -0.00432   2.11907
    A7        2.23315   0.00035   0.00141   0.00267   0.00408   2.23723
    A8        2.20412  -0.00069  -0.00230   0.00024  -0.00206   2.20206
    A9        1.93393   0.00147   0.00548   0.00013   0.00562   1.93955
   A10        2.14513  -0.00077  -0.00318  -0.00037  -0.00356   2.14157
   A11        2.19658   0.00016   0.00086  -0.00031   0.00055   2.19713
   A12        2.21056   0.00054   0.00358   0.00010   0.00368   2.21424
   A13        1.87605  -0.00070  -0.00444   0.00020  -0.00423   1.87182
    D1        0.00000   0.00000   0.00000   0.00000   0.00000   0.00000
    D2        3.14159   0.00000   0.00000   0.00000   0.00000   3.14159
    D3        3.14159   0.00000   0.00000   0.00000   0.00000   3.14159
    D4        0.00000   0.00000   0.00000   0.00000   0.00000   0.00000
    D5       -3.14159   0.00000   0.00000   0.00000   0.00000  -3.14159
    D6        0.00000   0.00000   0.00000   0.00000   0.00000   0.00000
    D7        0.00000   0.00000   0.00000   0.00000   0.00000   0.00000
    D8        3.14159   0.00000   0.00000   0.00000   0.00000   3.14159
    D9        0.00000   0.00000   0.00000   0.00000   0.00000   0.00000
   D10        3.14159   0.00000   0.00000   0.00000   0.00000   3.14159
   D11        3.14159   0.00000   0.00000   0.00000   0.00000   3.14159
   D12        0.00000   0.00000   0.00000   0.00000   0.00000   0.00000
   D13        3.14159   0.00000   0.00000   0.00000   0.00000   3.14159
   D14        0.00000   0.00000   0.00000   0.00000   0.00000   0.00000
   D15        0.00000   0.00000   0.00000   0.00000   0.00000   0.00000
   D16        3.14159   0.00000   0.00000   0.00000   0.00000   3.14159
         Item               Value     Threshold  Converged?
 Maximum Force            0.002111     0.000450     NO 
 RMS     Force            0.000688     0.000300     NO 
 Maximum Displacement     0.005628     0.001800     NO 
 RMS     Displacement     0.001846     0.001200     NO 
 Predicted change in Energy=-3.240757D-05
 GradGradGradGradGradGradGradGradGradGradGradGradGradGradGradGradGradGrad

                          Input orientation:                          
 ---------------------------------------------------------------------
 Center     Atomic     Atomic              Coordinates (Angstroms)
 Number     Number      Type              X           Y           Z
 ---------------------------------------------------------------------
    1          7             0        0.503652    0.000000    1.137360
    2          1             0        0.485771    0.000000   -2.072455
    3          6             0       -1.031521    0.000000   -0.547421
    4          1             0       -1.914352    0.000000   -1.160400
    5          6             0       -0.860607    0.000000    0.815940
    6          1             0       -1.616546    0.000000    1.580615
    7          1             0        2.212255    0.000000   -0.161821
    8          6             0        1.145324    0.000000   -0.025533
    9          7             0        0.255454    0.000000   -1.086699
 ---------------------------------------------------------------------
                    Distance matrix (angstroms):
                    1          2          3          4          5
     1  N    0.000000
     2  H    3.209865   0.000000
     3  C    2.279308   2.151257   0.000000
     4  H    3.335633   2.567575   1.074772   0.000000
     5  C    1.401611   3.186780   1.374033   2.239710   0.000000
     6  H    2.166037   4.214815   2.206987   2.757146   1.075254
     7  H    2.146437   2.575125   3.266614   4.245709   3.224669
     8  C    1.328180   2.150558   2.238531   3.263364   2.175278
     9  N    2.237865   1.012305   1.395394   2.171058   2.205817
                    6          7          8          9
     6  H    0.000000
     7  H    4.206637   0.000000
     8  C    3.194939   1.075600   0.000000
     9  N    3.258673   2.164363   1.384898   0.000000
 Stoichiometry    C3H4N2
 Framework group  CS[SG(C3H4N2)]
 Deg. of freedom   15
 Full point group                 CS      NOp   2
 Largest Abelian subgroup         CS      NOp   2
 Largest concise Abelian subgroup C1      NOp   1
                         Standard orientation:                         
 ---------------------------------------------------------------------
 Center     Atomic     Atomic              Coordinates (Angstroms)
 Number     Number      Type              X           Y           Z
 ---------------------------------------------------------------------
    1          7             0       -0.750572   -0.991962    0.000000
    2          1             0        0.001378    2.128584    0.000000
    3          6             0        1.129413    0.296797    0.000000
    4          1             0        2.129093    0.691480    0.000000
    5          6             0        0.651039   -0.991273    0.000000
    6          1             0        1.211927   -1.908647    0.000000
    7          1             0       -2.116526    0.663744    0.000000
    8          6             0       -1.109096    0.286913    0.000000
    9          7             0        0.000000    1.116279    0.000000
 ---------------------------------------------------------------------
 Rotational constants (GHZ):      9.4963180      9.2631227      4.6891355
 Isotopes: N-14,H-1,C-12,H-1,C-12,H-1,H-1,C-12,N-14
 Standard basis: 3-21G (6D, 7F)
 There are    43 symmetry adapted basis functions of A'  symmetry.
 There are    10 symmetry adapted basis functions of A"  symmetry.
 Crude estimate of integral set expansion from redundant integrals=1.000.
 Integral buffers will be    262144 words long.
 Raffenetti 2 integral format.
 Two-electron integral symmetry is turned on.
    53 basis functions       87 primitive gaussians
    18 alpha electrons       18 beta electrons
       nuclear repulsion energy       161.5937197135 Hartrees.
 One-electron integrals computed using PRISM.
 NBasis=    53 RedAO= T  NBF=    43    10
 NBsUse=    53 1.00D-04 NBFU=    43    10
 Initial guess read from the read-write file:
 Initial guess orbital symmetries:
       Occupied  (A') (A') (A') (A') (A') (A') (A') (A') (A') (A')
                 (A') (A') (A') (A") (A') (A") (A') (A")
       Virtual   (A") (A") (A') (A') (A') (A') (A') (A') (A') (A')
                 (A') (A') (A") (A') (A') (A") (A") (A') (A') (A')
                 (A') (A') (A') (A") (A") (A') (A') (A') (A') (A')
                 (A') (A') (A') (A') (A')
 Requested convergence on RMS density matrix=1.00D-08 within  64 cycles.
 Requested convergence on MAX density matrix=1.00D-06.
 Keep R1 and R2 integrals in memory in canonical form, NReq=     2463126.
 SCF Done:  E(RB+HF-LYP) =  -224.959329668     A.U. after    9 cycles
             Convg  =    0.6411D-08             -V/T =  2.0088
             S**2   =   0.0000
 ***** Axes restored to original set *****
 -------------------------------------------------------------------
 Center     Atomic                   Forces (Hartrees/Bohr)
 Number     Number              X              Y              Z
 -------------------------------------------------------------------
    1          7           0.000696645    0.000000000    0.000045536
    2          1          -0.000036259    0.000000000    0.000018522
    3          6           0.000458285    0.000000000   -0.000423265
    4          1          -0.000113905    0.000000000   -0.000051347
    5          6          -0.000561908    0.000000000   -0.000094600
    6          1           0.000010016    0.000000000    0.000120293
    7          1           0.000155064    0.000000000   -0.000016167
    8          6          -0.000611890    0.000000000   -0.000298627
    9          7           0.000003952    0.000000000    0.000699655
 -------------------------------------------------------------------
 Cartesian Forces:  Max     0.000699655 RMS     0.000286131

 GradGradGradGradGradGradGradGradGradGradGradGradGradGradGradGradGradGrad
 Berny optimization.
 Internal  Forces:  Max     0.000497806 RMS     0.000154172
 Search for a local minimum.
 Step number   6 out of a maximum of  48
 All quantities printed in internal units (Hartrees-Bohrs-Radians)
 Update second derivatives using information from points  1  2  3  4  5
                                                        6
 Trust test= 1.05D+00 RLast= 1.70D-02 DXMaxT set to 4.24D-01
     Eigenvalues ---    0.03204   0.03262   0.03287   0.03305   0.03350
     Eigenvalues ---    0.03404   0.13826   0.15886   0.16001   0.16030
     Eigenvalues ---    0.21476   0.27391   0.43098   0.47159   0.49457
     Eigenvalues ---    0.49657   0.57553   0.58472   0.64055   0.67013
     Eigenvalues ---    0.760021000.000001000.000001000.000001000.00000
     Eigenvalues --- 1000.000001000.000001000.000001000.000001000.00000
     Eigenvalues --- 1000.000001000.000001000.000001000.000001000.00000
     Eigenvalues --- 1000.000001000.000001000.00000
 RFO step:  Lambda=-1.54043573D-06.
 Quartic linear search produced a step of  0.04606.
 Iteration  1 RMS(Cart)=  0.00030562 RMS(Int)=  0.00000013
 Iteration  2 RMS(Cart)=  0.00000008 RMS(Int)=  0.00000011
 Variable       Old X    -DE/DX   Delta X   Delta X   Delta X     New X
                                 (Linear)    (Quad)   (Total)
    R1        2.64866   0.00050   0.00035   0.00074   0.00109   2.64975
    R2        2.50990  -0.00017  -0.00024  -0.00021  -0.00045   2.50945
    R3        1.91298  -0.00003  -0.00009  -0.00003  -0.00012   1.91286
    R4        2.03102   0.00012  -0.00006   0.00024   0.00018   2.03120
    R5        2.59655   0.00014  -0.00027   0.00034   0.00007   2.59661
    R6        2.63691  -0.00038   0.00017  -0.00056  -0.00039   2.63652
    R7        2.03194   0.00008  -0.00009   0.00015   0.00006   2.03200
    R8        2.03259   0.00016  -0.00005   0.00031   0.00025   2.03284
    R9        2.61708  -0.00046  -0.00003  -0.00073  -0.00076   2.61632
    A1        1.84363  -0.00017  -0.00017  -0.00025  -0.00042   1.84321
    A2        2.30242   0.00001   0.00006   0.00001   0.00007   2.30249
    A3        2.13788   0.00005  -0.00015   0.00030   0.00015   2.13803
    A4        1.84289  -0.00006   0.00009  -0.00031  -0.00022   1.84267
    A5        1.92689  -0.00015   0.00001  -0.00012  -0.00011   1.92678
    A6        2.11907  -0.00001  -0.00020  -0.00045  -0.00065   2.11842
    A7        2.23723   0.00016   0.00019   0.00057   0.00076   2.23799
    A8        2.20206  -0.00007  -0.00009  -0.00009  -0.00019   2.20188
    A9        1.93955   0.00013   0.00026   0.00008   0.00034   1.93989
   A10        2.14157  -0.00006  -0.00016   0.00001  -0.00015   2.14142
   A11        2.19713  -0.00015   0.00003  -0.00045  -0.00043   2.19670
   A12        2.21424  -0.00010   0.00017  -0.00015   0.00002   2.21426
   A13        1.87182   0.00025  -0.00019   0.00060   0.00041   1.87223
    D1        0.00000   0.00000   0.00000   0.00000   0.00000   0.00000
    D2        3.14159   0.00000   0.00000   0.00000   0.00000   3.14159
    D3        3.14159   0.00000   0.00000   0.00000   0.00000   3.14159
    D4        0.00000   0.00000   0.00000   0.00000   0.00000   0.00000
    D5        3.14159   0.00000   0.00000   0.00000   0.00000   3.14159
    D6        0.00000   0.00000   0.00000   0.00000   0.00000   0.00000
    D7        0.00000   0.00000   0.00000   0.00000   0.00000   0.00000
    D8        3.14159   0.00000   0.00000   0.00000   0.00000   3.14159
    D9        0.00000   0.00000   0.00000   0.00000   0.00000   0.00000
   D10        3.14159   0.00000   0.00000   0.00000   0.00000   3.14159
   D11        3.14159   0.00000   0.00000   0.00000   0.00000   3.14159
   D12        0.00000   0.00000   0.00000   0.00000   0.00000   0.00000
   D13        3.14159   0.00000   0.00000   0.00000   0.00000   3.14159
   D14        0.00000   0.00000   0.00000   0.00000   0.00000   0.00000
   D15        0.00000   0.00000   0.00000   0.00000   0.00000   0.00000
   D16        3.14159   0.00000   0.00000   0.00000   0.00000   3.14159
         Item               Value     Threshold  Converged?
 Maximum Force            0.000498     0.000450     NO 
 RMS     Force            0.000154     0.000300     YES
 Maximum Displacement     0.000913     0.001800     YES
 RMS     Displacement     0.000306     0.001200     YES
 Predicted change in Energy=-8.361653D-07
 GradGradGradGradGradGradGradGradGradGradGradGradGradGradGradGradGradGrad

                          Input orientation:                          
 ---------------------------------------------------------------------
 Center     Atomic     Atomic              Coordinates (Angstroms)
 Number     Number      Type              X           Y           Z
 ---------------------------------------------------------------------
    1          7             0        0.503979    0.000000    1.137435
    2          1             0        0.485711    0.000000   -2.072024
    3          6             0       -1.031529    0.000000   -0.547604
    4          1             0       -1.914295    0.000000   -1.160841
    5          6             0       -0.860827    0.000000    0.815820
    6          1             0       -1.616330    0.000000    1.580974
    7          1             0        2.212144    0.000000   -0.161991
    8          6             0        1.145105    0.000000   -0.025488
    9          7             0        0.255460    0.000000   -1.086317
 ---------------------------------------------------------------------
                    Distance matrix (angstroms):
                    1          2          3          4          5
     1  N    0.000000
     2  H    3.209510   0.000000
     3  C    2.279724   2.150784   0.000000
     4  H    3.336184   2.567155   1.074866   0.000000
     5  C    1.402189   3.186347   1.374068   2.239862   0.000000
     6  H    2.166203   4.214614   2.207450   2.757958   1.075288
     7  H    2.146237   2.574645   3.266513   4.245609   3.224789
     8  C    1.327942   2.150141   2.238379   3.263274   2.175216
     9  N    2.237595   1.012242   1.395188   2.171034   2.205498
                    6          7          8          9
     6  H    0.000000
     7  H    4.206558   0.000000
     8  C    3.194721   1.075734   0.000000
     9  N    3.258533   2.164022   1.384495   0.000000
 Stoichiometry    C3H4N2
 Framework group  CS[SG(C3H4N2)]
 Deg. of freedom   15
 Full point group                 CS      NOp   2
 Largest Abelian subgroup         CS      NOp   2
 Largest concise Abelian subgroup C1      NOp   1
                         Standard orientation:                         
 ---------------------------------------------------------------------
 Center     Atomic     Atomic              Coordinates (Angstroms)
 Number     Number      Type              X           Y           Z
 ---------------------------------------------------------------------
    1          7             0       -0.750981   -0.991850    0.000000
    2          1             0        0.001511    2.128200    0.000000
    3          6             0        1.129491    0.296935    0.000000
    4          1             0        2.129198    0.691804    0.000000
    5          6             0        0.651207   -0.991207    0.000000
    6          1             0        1.211488   -1.908992    0.000000
    7          1             0       -2.116321    0.664103    0.000000
    8          6             0       -1.108866    0.286958    0.000000
    9          7             0        0.000000    1.115959    0.000000
 ---------------------------------------------------------------------
 Rotational constants (GHZ):      9.4972030      9.2634817      4.6894433
 Isotopes: N-14,H-1,C-12,H-1,C-12,H-1,H-1,C-12,N-14
 Standard basis: 3-21G (6D, 7F)
 There are    43 symmetry adapted basis functions of A'  symmetry.
 There are    10 symmetry adapted basis functions of A"  symmetry.
 Crude estimate of integral set expansion from redundant integrals=1.000.
 Integral buffers will be    262144 words long.
 Raffenetti 2 integral format.
 Two-electron integral symmetry is turned on.
    53 basis functions       87 primitive gaussians
    18 alpha electrons       18 beta electrons
       nuclear repulsion energy       161.5990339394 Hartrees.
 One-electron integrals computed using PRISM.
 NBasis=    53 RedAO= T  NBF=    43    10
 NBsUse=    53 1.00D-04 NBFU=    43    10
 Initial guess read from the read-write file:
 Initial guess orbital symmetries:
       Occupied  (A') (A') (A') (A') (A') (A') (A') (A') (A') (A')
                 (A') (A') (A') (A") (A') (A") (A') (A")
       Virtual   (A") (A") (A') (A') (A') (A') (A') (A') (A') (A')
                 (A') (A') (A") (A') (A') (A") (A") (A') (A') (A')
                 (A') (A') (A') (A") (A") (A') (A') (A') (A') (A')
                 (A') (A') (A') (A') (A')
 Requested convergence on RMS density matrix=1.00D-08 within  64 cycles.
 Requested convergence on MAX density matrix=1.00D-06.
 Keep R1 and R2 integrals in memory in canonical form, NReq=     2463126.
 SCF Done:  E(RB+HF-LYP) =  -224.959330842     A.U. after    8 cycles
             Convg  =    0.3550D-08             -V/T =  2.0088
             S**2   =   0.0000
[...]
                    19                     20                     21
                    A'                     A'                     A'
 Frequencies --  3294.0005              3318.4836              3586.5961
 Red. masses --     1.0950                 1.1071                 1.0816
 Frc consts  --     7.0001                 7.1830                 8.1975
 IR Inten    --     0.2111                 1.1592                48.5845
 Raman Activ --     0.0000                 0.0000                 0.0000
 Depolar     --     0.0000                 0.0000                 0.0000
 Atom AN      X      Y      Z        X      Y      Z        X      Y      Z
   1   7     0.00   0.00   0.00     0.00   0.00   0.00     0.00   0.00   0.00
   2   1    -0.01   0.01   0.00     0.00  -0.03   0.00     0.00   1.00   0.00
   3   6    -0.04  -0.01   0.00    -0.07  -0.03   0.00     0.00   0.00   0.00
   4   1     0.44   0.17   0.00     0.75   0.30   0.00     0.02   0.01   0.00
   5   6     0.02  -0.04   0.00    -0.02   0.05   0.00     0.00   0.00   0.00
   6   1    -0.24   0.40   0.00     0.28  -0.48   0.00     0.00  -0.01   0.00
   7   1     0.70  -0.26   0.00    -0.15   0.05   0.00    -0.03   0.01   0.00
   8   6    -0.06   0.02   0.00     0.02  -0.01   0.00     0.00   0.00   0.00
   9   7     0.00   0.00   0.00     0.00   0.00   0.00     0.00  -0.08   0.00

 -------------------
 - Thermochemistry -
 -------------------
 Temperature   298.150 Kelvin.  Pressure   1.00000 Atm.
 Atom  1 has atomic number  7 and mass  14.00307
 Atom  2 has atomic number  1 and mass   1.00783
 Atom  3 has atomic number  6 and mass  12.00000
 Atom  4 has atomic number  1 and mass   1.00783
 Atom  5 has atomic number  6 and mass  12.00000
 Atom  6 has atomic number  1 and mass   1.00783
 Atom  7 has atomic number  1 and mass   1.00783
 Atom  8 has atomic number  6 and mass  12.00000
 Atom  9 has atomic number  7 and mass  14.00307
 Molecular mass:    68.03745 amu.
 Principal axes and moments of inertia in atomic units:
                           1         2         3
     EIGENVALUES --   190.02870 194.82320 384.85190
           X            0.52984   0.84810   0.00000
           Y            0.84810  -0.52984   0.00000
           Z            0.00000   0.00000   1.00000
 THIS MOLECULE IS AN ASYMMETRIC TOP.
 ROTATIONAL SYMMETRY NUMBER  1.
 ROTATIONAL TEMPERATURES (KELVIN)      0.45579     0.44457     0.22506
 ROTATIONAL CONSTANTS (GHZ)            9.49720     9.26348     4.68944
 Zero-point vibrational energy     187148.9 (Joules/Mol)
                                   44.72967 (Kcal/Mol)
 VIBRATIONAL TEMPERATURES:    913.90   945.72   987.02  1114.77  1221.99
          (KELVIN)           1317.98  1323.88  1385.17  1512.26  1563.71
                             1585.16  1664.20  1843.68  1904.84  2007.17
                             2107.05  2208.65  4736.17  4739.30  4774.53
                             5160.28
 
 Zero-point correction=                           0.071281 (Hartree/Particle)
 Thermal correction to Energy=                    0.074940
 Thermal correction to Enthalpy=                  0.075885
 Thermal correction to Gibbs Free Energy=         0.045032
 Sum of electronic and zero-point Energies=           -224.888050
 Sum of electronic and thermal Energies=              -224.884390
 Sum of electronic and thermal Enthalpies=            -224.883446
 Sum of electronic and thermal Free Energies=         -224.914299
 
                     E (Thermal)             CV                S
                      KCAL/MOL        CAL/MOL-KELVIN    CAL/MOL-KELVIN
 TOTAL                   47.026             13.009             64.935
 ELECTRONIC               0.000              0.000              0.000
 TRANSLATIONAL            0.889              2.981             38.570
 ROTATIONAL               0.889              2.981             24.170
 VIBRATIONAL             45.248              7.047              2.195
                       Q            LOG10(Q)             LN(Q)
 TOTAL BOT       0.193560D-20        -20.713184        -47.693869
 TOTAL V=0       0.118495D+13         12.073700         27.800721
 VIB (BOT)       0.205356D-32        -32.687493        -75.265734
 VIB (V=0)       0.125716D+01          0.099391          0.228857
 ELECTRONIC      0.100000D+01          0.000000          0.000000
 TRANSLATIONAL   0.220588D+08          7.343582         16.909224
 ROTATIONAL      0.427293D+05          4.630726         10.662641
 ***** Axes restored to original set *****
 -------------------------------------------------------------------
 Center     Atomic                   Forces (Hartrees/Bohr)
 Number     Number              X              Y              Z
 -------------------------------------------------------------------
    1          7           0.000246881    0.000000000    0.000099560
    2          1           0.000005843    0.000000000   -0.000034627
    3          6           0.000322221    0.000000000   -0.000220904
    4          1          -0.000054052    0.000000000   -0.000009007
    5          6          -0.000334560    0.000000000    0.000063567
    6          1          -0.000006339    0.000000000    0.000052235
    7          1           0.000071641    0.000000000   -0.000006976
    8          6          -0.000201135    0.000000000   -0.000288020
    9          7          -0.000050499    0.000000000    0.000344172
 -------------------------------------------------------------------
 Cartesian Forces:  Max     0.000344172 RMS     0.000148581

 GradGradGradGradGradGradGradGradGradGradGradGradGradGradGradGradGradGrad
 Berny optimization.
 Internal  Forces:  Max     0.000231865 RMS     0.000077219
 Search for a local minimum.
 Step number   1 out of a maximum of  48
 All quantities printed in internal units (Hartrees-Bohrs-Radians)
 Second derivative matrix not updated -- analytic derivatives used.
     Eigenvalues ---    0.00761   0.01280   0.02161   0.02845   0.06418
     Eigenvalues ---    0.06566   0.09945   0.10779   0.11204   0.11702
     Eigenvalues ---    0.22010   0.23271   0.30809   0.36869   0.38197
     Eigenvalues ---    0.38336   0.38971   0.42916   0.45800   0.47579
     Eigenvalues ---    0.546871000.000001000.000001000.000001000.00000
     Eigenvalues --- 1000.000001000.000001000.000001000.000001000.00000
     Eigenvalues --- 1000.000001000.000001000.000001000.000001000.00000
     Eigenvalues --- 1000.000001000.000001000.00000
 Angle between quadratic step and forces=  20.06 degrees.
 Linear search not attempted -- first point.
 Iteration  1 RMS(Cart)=  0.00022547 RMS(Int)=  0.00000005
 Iteration  2 RMS(Cart)=  0.00000005 RMS(Int)=  0.00000001
 Variable       Old X    -DE/DX   Delta X   Delta X   Delta X     New X
                                 (Linear)    (Quad)   (Total)
    R1        2.64975   0.00023   0.00000   0.00093   0.00093   2.65068
    R2        2.50945   0.00007   0.00000   0.00019   0.00019   2.50964
    R3        1.91286   0.00003   0.00000   0.00009   0.00009   1.91295
    R4        2.03120   0.00005   0.00000   0.00014   0.00014   2.03134
    R5        2.59661   0.00011   0.00000   0.00025   0.00025   2.59686
    R6        2.63652  -0.00019   0.00000  -0.00065  -0.00065   2.63588
    R7        2.03200   0.00004   0.00000   0.00007   0.00007   2.03207
    R8        2.03284   0.00007   0.00000   0.00020   0.00020   2.03304
    R9        2.61632  -0.00023   0.00000  -0.00073  -0.00073   2.61559
    A1        1.84321  -0.00006   0.00000  -0.00026  -0.00026   1.84296
    A2        2.30249  -0.00005   0.00000  -0.00038  -0.00038   2.30211
    A3        2.13803   0.00000   0.00000   0.00019   0.00019   2.13821
    A4        1.84267   0.00005   0.00000   0.00020   0.00020   1.84286
    A5        1.92678  -0.00013   0.00000  -0.00043  -0.00043   1.92634
    A6        2.11842   0.00004   0.00000  -0.00017  -0.00017   2.11825
    A7        2.23799   0.00010   0.00000   0.00061   0.00061   2.23859
    A8        2.20188  -0.00003   0.00000  -0.00026  -0.00026   2.20162
    A9        1.93989   0.00004   0.00000   0.00017   0.00017   1.94006
   A10        2.14142  -0.00002   0.00000   0.00009   0.00009   2.14151
   A11        2.19670  -0.00005   0.00000  -0.00016  -0.00016   2.19654
   A12        2.21426  -0.00005   0.00000  -0.00016  -0.00016   2.21410
   A13        1.87223   0.00010   0.00000   0.00032   0.00032   1.87255
    D1        0.00000   0.00000   0.00000   0.00000   0.00000   0.00000
    D2        3.14159   0.00000   0.00000   0.00000   0.00000   3.14159
    D3        3.14159   0.00000   0.00000   0.00000   0.00000   3.14159
    D4        0.00000   0.00000   0.00000   0.00000   0.00000   0.00000
    D5        3.14159   0.00000   0.00000   0.00000   0.00000   3.14159
    D6        0.00000   0.00000   0.00000   0.00000   0.00000   0.00000
    D7        0.00000   0.00000   0.00000   0.00000   0.00000   0.00000
    D8        3.14159   0.00000   0.00000   0.00000   0.00000   3.14159
    D9        0.00000   0.00000   0.00000   0.00000   0.00000   0.00000
   D10        3.14159   0.00000   0.00000   0.00000   0.00000   3.14159
   D11        3.14159   0.00000   0.00000   0.00000   0.00000   3.14159
   D12        0.00000   0.00000   0.00000   0.00000   0.00000   0.00000
   D13        3.14159   0.00000   0.00000   0.00000   0.00000   3.14159
   D14        0.00000   0.00000   0.00000   0.00000   0.00000   0.00000
   D15        0.00000   0.00000   0.00000   0.00000   0.00000   0.00000
   D16        3.14159   0.00000   0.00000   0.00000   0.00000   3.14159
         Item               Value     Threshold  Converged?
 Maximum Force            0.000232     0.000450     YES
 RMS     Force            0.000077     0.000300     YES
 Maximum Displacement     0.000555     0.001800     YES
 RMS     Displacement     0.000225     0.001200     YES
 Predicted change in Energy=-3.938228D-07
 Optimization completed.
    -- Stationary point found.
                         ----------------------------
                         !   Optimized Parameters   !
                         ! (Angstroms and Degrees)  !
 ------------------------                            -------------------------
 ! Name  Definition              Value          Derivative Info.             !
 -----------------------------------------------------------------------------
 ! R1    R(1,5)                  1.4022         -DE/DX =    0.0002           !
 ! R2    R(1,8)                  1.3279         -DE/DX =    0.0001           !
 ! R3    R(2,9)                  1.0122         -DE/DX =    0.               !
 ! R4    R(3,4)                  1.0749         -DE/DX =    0.               !
 ! R5    R(3,5)                  1.3741         -DE/DX =    0.0001           !
 ! R6    R(3,9)                  1.3952         -DE/DX =   -0.0002           !
 ! R7    R(5,6)                  1.0753         -DE/DX =    0.               !
 ! R8    R(7,8)                  1.0757         -DE/DX =    0.0001           !
 ! R9    R(8,9)                  1.3845         -DE/DX =   -0.0002           !
 ! A1    A(5,1,8)              105.6084         -DE/DX =   -0.0001           !
 ! A2    A(4,3,5)              131.9231         -DE/DX =    0.               !
 ! A3    A(4,3,9)              122.4998         -DE/DX =    0.               !
 ! A4    A(5,3,9)              105.5771         -DE/DX =    0.               !
 ! A5    A(1,5,3)              110.3961         -DE/DX =   -0.0001           !
 ! A6    A(1,5,6)              121.3766         -DE/DX =    0.               !
 ! A7    A(3,5,6)              128.2273         -DE/DX =    0.0001           !
 ! A8    A(1,8,7)              126.1582         -DE/DX =    0.               !
 ! A9    A(1,8,9)              111.1475         -DE/DX =    0.               !
 ! A10   A(7,8,9)              122.6942         -DE/DX =    0.               !
 ! A11   A(2,9,3)              125.8614         -DE/DX =   -0.0001           !
 ! A12   A(2,9,8)              126.8677         -DE/DX =   -0.0001           !
 ! A13   A(3,9,8)              107.2709         -DE/DX =    0.0001           !
 ! D1    D(8,1,5,3)              0.             -DE/DX =    0.               !
 ! D2    D(8,1,5,6)            180.             -DE/DX =    0.               !
 ! D3    D(5,1,8,7)            180.             -DE/DX =    0.               !
 ! D4    D(5,1,8,9)              0.             -DE/DX =    0.               !
 ! D5    D(4,3,5,1)            180.             -DE/DX =    0.               !
 ! D6    D(4,3,5,6)              0.             -DE/DX =    0.               !
 ! D7    D(9,3,5,1)              0.             -DE/DX =    0.               !
 ! D8    D(9,3,5,6)            180.             -DE/DX =    0.               !
 ! D9    D(4,3,9,2)              0.             -DE/DX =    0.               !
 ! D10   D(4,3,9,8)            180.             -DE/DX =    0.               !
 ! D11   D(5,3,9,2)            180.             -DE/DX =    0.               !
 ! D12   D(5,3,9,8)              0.             -DE/DX =    0.               !
 ! D13   D(1,8,9,2)            180.             -DE/DX =    0.               !
 ! D14   D(1,8,9,3)              0.             -DE/DX =    0.               !
 ! D15   D(7,8,9,2)              0.             -DE/DX =    0.               !
 ! D16   D(7,8,9,3)            180.             -DE/DX =    0.               !
 -----------------------------------------------------------------------------
 GradGradGradGradGradGradGradGradGradGradGradGradGradGradGradGradGradGrad

 1\1\GINC-QCHEM8\Freq\RB3LYP\3-21G\C3H4N2\RDJ3\11-Oct-1999\0\\#N GEOM=A
 LLCHECK GUESS=TCHECK RB3LYP/3-21G FREQ\\1H imidazole C3H4N2 casno=2883
 24\\0,1\N,0.5039849343,0.,1.1374259717\H,0.4857169686,0.,-2.0720323255
 \C,-1.0315230832,0.,-0.5476126794\H,-1.9142896013,0.,-1.1608495379\C,-
 0.8608215861,0.,0.8158111698\H,-1.6163238363,0.,1.5809654834\H,2.21214
 92108,0.,-0.1619993111\C,1.1451105196,0.,-0.0254967068\N,0.2554653737,
 0.,-1.0863252588\\Version=x86-Linux-G98RevA.4\State=1-A'\HF=-224.95933
 08\RMSD=1.959e-09\RMSF=1.486e-04\Dipole=-0.1302484,0.,-1.5012714\Dipol
 eDeriv=-0.3506078,-0.0000422,0.0341769,-0.0000561,-0.2868585,-0.000064
 1,0.0238379,0.0000433,-0.4800842,0.2033827,-0.0000139,-0.0059709,-0.00
 00035,0.3811048,-0.0000243,-0.003717,0.0000652,0.1838936,-0.0374833,0.
 0000152,-0.2216254,-0.0001054,-0.1107637,-0.0001588,-0.0364902,-0.0000
 916,0.1986746,0.0298139,0.0000067,-0.039559,-0.0000265,0.193568,0.0000
 377,-0.066287,0.0000061,0.0452348,0.1365894,0.0000736,-0.1462274,0.000
 0507,-0.144992,0.0000585,-0.0838035,0.0000694,0.0738291,0.0090565,-0.0
 000289,0.0727667,-0.0000274,0.1582482,0.0000194,0.0698838,0.0000213,0.
 0350871,-0.0188655,0.0000198,0.0176723,-0.0000002,0.1719868,-0.0000225
 ,0.0396122,-0.000002,0.0743316,0.1353078,-0.0000233,0.1174938,0.000145
 3,-0.0115364,0.0000788,-0.0364563,-0.0000435,0.4354318,-0.1071931,-0.0
 00007,0.1712727,0.0000231,-0.3507572,0.0000753,0.0934201,-0.0000682,-0
 .5663977\Polar=45.1478327,-0.0004003,12.8249405,-1.3167785,-0.0006708,
 41.9831687\PG=CS [SG(C3H4N2)]\NImag=0\\0.42509083,0.00000206,0.1062950
 5,-0.05848795,0.00000102,0.50771440,-0.00310630,0.00000032,-0.00766492
 ,0.08223963,0.00000049,0.00610683,0.00000238,-0.00000024,0.01456710,-0
 .00287947,-0.00000193,-0.00279024,-0.08855508,0.00000030,0.43627646,-0
 .03850023,-0.00000054,-0.01815050,0.00560598,-0.00000011,-0.00526638,0
 .72367248,0.00000604,0.01890700,0.00001064,-0.00000020,-0.00483787,-0.
 00000406,-0.00000585,0.12637127,-0.08522281,0.00000430,-0.02688236,0.0
 3042921,-0.00000176,-0.00138000,0.18195542,-0.00000205,0.72075174,0.00
 162227,0.00000076,0.00162317,-0.00004031,0.00000047,0.00052983,-0.2631
 3838,0.00000451,-0.14385724,0.27671599,0.00000197,0.00687686,-0.000003
 51,0.00000063,-0.00129798,-0.00000246,-0.00000307,-0.02564030,0.000003
 32,0.00000064,0.02057813,-0.00325031,0.00000049,-0.00429851,-0.0009008
 2,0.00000033,0.00009780,-0.15400987,0.00000261,-0.16476515,0.15533734,
 0.00000020,0.15928185,-0.19198170,-0.00000494,-0.00907901,-0.00796218,
 -0.00000026,-0.00228069,-0.10082597,-0.00000835,-0.01792242,0.00504276
 ,-0.00000177,-0.02400783,0.61997129,-0.00000327,-0.07325400,-0.0000042
 4,0.,0.00317399,0.00000201,0.00000326,-0.07455381,0.00000076,-0.000002
 16,0.00051914,-0.00000127,0.00000368,0.14412716,-0.03561732,-0.0000049
 8,-0.09481045,0.00292879,0.00000029,0.00129334,-0.03106325,-0.00000594
 ,-0.36912765,0.00318614,-0.00000298,0.00150445,-0.18933884,0.00000309,
 0.77673161,-0.01959531,0.00000152,0.01948348,0.00075244,-0.00000084,0.
 00003154,0.00860537,-0.00000163,-0.00741394,-0.00018203,0.00000109,0.0
 0093299,-0.19958235,0.00000087,0.15376103,0.21413921,0.00000314,-0.004
 78871,-0.00000060,0.00000036,0.00159126,-0.00000238,-0.00000459,0.0010
 8972,0.00000014,0.00000177,-0.00265859,0.00000080,-0.00000208,-0.03216
 390,-0.00000227,-0.00000021,0.02472891,-0.00963604,-0.00000123,0.01103
 772,0.00109282,0.00000073,0.00017961,0.02273238,0.00000185,-0.00882092
 ,-0.00065624,-0.00000070,-0.00018117,0.15507568,-0.00000097,-0.2228648
 6,-0.16301283,0.00000054,0.22427429,-0.00715663,-0.00000064,0.00181864
 ,-0.00054918,0.00000024,-0.00082494,0.00169000,0.00000040,-0.00242619,
 -0.00027275,-0.00000091,0.00025056,0.00159230,-0.00000002,0.00142259,-
 0.00021737,-0.00000067,-0.00008907,0.37616391,-0.00000467,-0.00450538,
 0.00000993,-0.00000172,-0.00130427,0.00000546,0.00000244,0.00291164,-0
 .00000949,0.00000116,0.00153304,0.00000107,0.00000524,0.00734234,0.000
 00589,-0.00000339,0.00101103,0.00000249,0.00000326,0.02229321,0.029766
 99,0.00000007,-0.00221717,0.00053868,-0.00000003,0.00007989,-0.0006983
 2,-0.00000018,-0.00578910,-0.00088438,0.00000008,0.00113830,0.00228225
 ,0.00000007,-0.00351193,0.00123640,0.00000004,0.00075814,-0.03879661,-
 0.00000044,0.06211961,-0.15725755,0.00000099,0.09477348,0.01715130,0.0
 0000078,0.01594521,-0.10215578,0.00000592,-0.00187863,-0.00214608,-0.0
 0000008,0.00469495,-0.10537576,-0.00000251,0.02479956,-0.00450823,0.00
 000106,-0.00430008,-0.35872823,0.00000043,0.03783570,0.89581702,-0.000
 00281,-0.07917941,-0.00000666,0.00000023,-0.00544782,0.00000213,0.0000
 0292,0.01837585,-0.00000306,-0.00000326,0.00328553,-0.00000215,0.00000
 683,0.01033884,0.00000783,-0.00000068,0.00541018,0.00000041,-0.0000003
 8,-0.02827014,0.00000012,-0.00000272,0.14460714,0.13471703,-0.00000097
 ,-0.27711072,-0.01868613,-0.00000129,-0.01099590,-0.04784553,-0.000003
 04,-0.01026207,0.00363664,0.00000369,-0.00585359,0.07277308,0.00000070
 ,-0.01405444,-0.00155468,0.00000267,0.00034968,0.03326338,-0.00000674,
 -0.05758142,-0.10062153,0.00000275,0.55467159,-0.00911538,0.00000047,-
 0.02431639,-0.09409138,-0.00000052,0.08329997,-0.23495348,-0.00000085,
 0.04633659,-0.01760145,0.00000149,0.02095300,-0.02087842,0.00000015,0.
 06992131,0.00058829,0.00000123,-0.00120663,-0.01252203,-0.00000275,-0.
 03128071,-0.18279670,-0.00000014,-0.07568226,0.57137054,-0.00000293,0.
 02354175,-0.00000897,0.00000061,-0.01255125,0.00000094,0.00000554,-0.0
 6262350,0.00000784,-0.00000389,-0.00319584,-0.00000209,0.00000165,0.01
 447023,-0.00000093,0.00000326,0.00578011,-0.00000312,-0.00000128,-0.00
 101146,0.00000027,-0.00000389,-0.06912017,0.00000223,0.00000093,0.1047
 1013,0.03060988,0.00000323,-0.11064265,0.08081744,-0.00000094,-0.42276
 095,0.05234604,0.00000017,-0.13372451,-0.01891526,0.00000236,0.0130760
 3,0.01249780,-0.00000016,-0.07516007,-0.00346400,0.00000105,-0.0047324
 8,0.00538165,-0.00000817,0.00500367,-0.07124866,-0.00000136,-0.1791631
 4,-0.08802488,0.00000384,0.90810409\\-0.00024688,0.,-0.00009956,-0.000
 00584,0.,0.00003463,-0.00032222,0.,0.00022090,0.00005405,0.,0.00000901
 ,0.00033456,0.,-0.00006357,0.00000634,0.,-0.00005223,-0.00007164,0.,0.
 00000698,0.00020114,0.,0.00028802,0.00005050,0.,-0.00034417\\\@


 IT IS A SIMPLE TASK TO MAKE THINGS COMPLEX,
 BUT A COMPLEX TASK TO MAKE THEM SIMPLE.
 Job cpu time:  0 days  0 hours 11 minutes 57.4 seconds.
 File lengths (MBytes):  RWF=   10 Int=    0 D2E=    0 Chk=    3 Scr=    1
 Normal termination of Gaussian 98.
