setenv GAUSS_EXEDIR /usr/local/apps/g98/g98/linda-exe:/usr/local/apps/g98/g98/bsd:/usr/local/apps/g98/g98/local:/usr/local/apps/g98/g98/extras:/usr/local/apps/g98/g98
set SW_LIST = `echo $LOADL_PROCESSOR_LIST| sed -e 's/grand/hssw/g'`
echo grand43.nist.gov grand44.nist.gov
sed -e s/grand/hssw/g
setenv q "
setenv NODELIST  " hssw43.nist.gov hssw44.nist.gov " 
setenv GAUSS_LFLAGS -nodelist   " hssw43.nist.gov hssw44.nist.gov " 
g98
 Entering Gaussian System, Link 0=g98
 Initial command:
 /usr/local/apps/g98/g98/l1.exe /wrk2/Gau-22426.inp -scrdir=/wrk2/
 Entering Link 1 = /usr/local/apps/g98/g98/l1.exe PID=     12334.
  
 Copyright (c) 1988,1990,1992,1993,1995,1998 Gaussian, Inc.
                  All Rights Reserved.
  
 This is part of the Gaussian(R) 98 program.  It is based on
 the Gaussian 94(TM) system (copyright 1995 Gaussian, Inc.),
 the Gaussian 92(TM) system (copyright 1992 Gaussian, Inc.),
 the Gaussian 90(TM) system (copyright 1990 Gaussian, Inc.),
 the Gaussian 88(TM) system (copyright 1988 Gaussian, Inc.),
 the Gaussian 86(TM) system (copyright 1986 Carnegie Mellon
 University), and the Gaussian 82(TM) system (copyright 1983
 Carnegie Mellon University). Gaussian is a federally registered
 trademark of Gaussian, Inc.
  
 This software contains proprietary and confidential information,
 including trade secrets, belonging to Gaussian, Inc.
  
 This software is provided under written license and may be
 used, copied, transmitted, or stored only in accord with that
 written license.
  
 The following legend is applicable only to US Government
 contracts under DFARS:
  
                    RESTRICTED RIGHTS LEGEND
  
 Use, duplication or disclosure by the US Government is subject
 to restrictions as set forth in subparagraph (c)(1)(ii) of the
 Rights in Technical Data and Computer Software clause at DFARS
 252.227-7013.
  
 Gaussian, Inc.
 Carnegie Office Park, Building 6, Pittsburgh, PA 15106 USA
  
 The following legend is applicable only to US Government
 contracts under FAR:
  
                    RESTRICTED RIGHTS LEGEND
  
 Use, reproduction and disclosure by the US Government is subject
 to restrictions as set forth in subparagraph (c) of the
 Commercial Computer Software - Restricted Rights clause at FAR
 52.227-19.
  
 Gaussian, Inc.
 Carnegie Office Park, Building 6, Pittsburgh, PA 15106 USA
  
  
 ---------------------------------------------------------------
 Warning -- This program may not be used in any manner that
 competes with the business of Gaussian, Inc. or will provide
 assistance to any competitor of Gaussian, Inc.  The licensee
 of this program is prohibited from giving any competitor of
 Gaussian, Inc. access to this program.  By using this program,
 the user acknowledges that Gaussian, Inc. is engaged in the
 business of creating and licensing software in the field of
 computational chemistry and represents and warrants to the
 licensee that it is not a competitor of Gaussian, Inc. and that
 it will not use this program in any manner prohibited above.
 ---------------------------------------------------------------
  

 Cite this work as:
 Gaussian 98, Revision A.7,
 M. J. Frisch, G. W. Trucks, H. B. Schlegel, G. E. Scuseria, 
 M. A. Robb, J. R. Cheeseman, V. G. Zakrzewski, J. A. Montgomery, Jr., 
 R. E. Stratmann, J. C. Burant, S. Dapprich, J. M. Millam, 
 A. D. Daniels, K. N. Kudin, M. C. Strain, O. Farkas, J. Tomasi, 
 V. Barone, M. Cossi, R. Cammi, B. Mennucci, C. Pomelli, C. Adamo, 
 S. Clifford, J. Ochterski, G. A. Petersson, P. Y. Ayala, Q. Cui, 
 K. Morokuma, D. K. Malick, A. D. Rabuck, K. Raghavachari, 
 J. B. Foresman, J. Cioslowski, J. V. Ortiz, A. G. Baboul, 
 B. B. Stefanov, G. Liu, A. Liashenko, P. Piskorz, I. Komaromi, 
 R. Gomperts, R. L. Martin, D. J. Fox, T. Keith, M. A. Al-Laham, 
 C. Y. Peng, A. Nanayakkara, C. Gonzalez, M. Challacombe, 
 P. M. W. Gill, B. Johnson, W. Chen, M. W. Wong, J. L. Andres, 
 C. Gonzalez, M. Head-Gordon, E. S. Replogle, and J. A. Pople, 
 Gaussian, Inc., Pittsburgh PA, 1998.

 **********************************************
 Gaussian 98:  IBM-RS6000-G98RevA.7 11-Apr-1999
                   4-Aug-2000 
 **********************************************
 %NProcl=2
 Will use up to    2 processors via Linda.
 %mem=24000000
 -----------------------
 #B3LYP/cc-pVDZ opt freq
 -----------------------
 1/14=-1,18=20,26=3,38=1/1,3;
 2/9=110,17=6,18=5/2;
 3/5=16,11=2,25=1,30=1/1,2,3;
 4//1;
 5/5=2,38=4,42=-5/2;
 6/7=2,8=2,9=2,10=2,28=1/1;
 7//1,2,3,16;
 1/14=-1,18=20/3(1);
 99//99;
 2/9=110/2;
 3/5=16,11=2,25=1,30=1/1,2,3;
 4/5=5,16=2/1;
 5/5=2,38=4,42=-5/2;
 7//1,2,3,16;
 1/14=-1,18=20/3(-5);
 2/9=110/2;
 6/7=2,8=2,9=2,10=2,19=2,28=1/1;
 99/9=1/99;
 --------------------------------
 1H imidazole C3H4N2 casno=288324
 --------------------------------
 Symbolic Z-matrix:
 Charge =  0 Multiplicity = 1
 N                     0.30938   0.        1.30938 
 H                     0.3125    0.       -1.6875 
 C                    -1.06875   0.       -0.28438 
 H                    -1.91875   0.       -0.79063 
 C                    -0.93438   0.        1.02812 
 H                    -1.675     0.        1.6875 
 H                     1.91875   0.        0.09063 
 C                     0.93438   0.        0.19063 
 N                     0.09688   0.       -0.775 

 GradGradGradGradGradGradGradGradGradGradGradGradGradGradGradGradGradGrad
 Berny optimization.
 Initialization pass.
                         ----------------------------
                         !    Initial Parameters    !
                         ! (Angstroms and Degrees)  !
 ------------------------                            -------------------------
 ! Name  Definition              Value          Derivative Info.             !
 -----------------------------------------------------------------------------
 ! R1    R(1,5)                  1.2752         estimate D2E/DX2             !
 ! R2    R(1,8)                  1.2815         estimate D2E/DX2             !
 ! R3    R(2,9)                  0.9376         estimate D2E/DX2             !
 ! R4    R(3,4)                  0.9893         estimate D2E/DX2             !
 ! R5    R(3,5)                  1.3194         estimate D2E/DX2             !
 ! R6    R(3,9)                  1.2647         estimate D2E/DX2             !
 ! R7    R(5,6)                  0.9916         estimate D2E/DX2             !
 ! R8    R(7,8)                  0.9894         estimate D2E/DX2             !
 ! R9    R(8,9)                  1.2782         estimate D2E/DX2             !
 ! A1    A(5,1,8)              106.4483         estimate D2E/DX2             !
 ! A2    A(4,3,5)              126.6232         estimate D2E/DX2             !
 ! A3    A(4,3,9)              126.3957         estimate D2E/DX2             !
 ! A4    A(5,3,9)              106.9812         estimate D2E/DX2             !
 ! A5    A(1,5,3)              108.5877         estimate D2E/DX2             !
 ! A6    A(1,5,6)              125.5794         estimate D2E/DX2             !
 ! A7    A(3,5,6)              125.8329         estimate D2E/DX2             !
 ! A8    A(1,8,7)              124.9909         estimate D2E/DX2             !
 ! A9    A(1,8,9)              109.8741         estimate D2E/DX2             !
 ! A10   A(7,8,9)              125.1349         estimate D2E/DX2             !
 ! A11   A(2,9,3)              126.122          estimate D2E/DX2             !
 ! A12   A(2,9,8)              125.7693         estimate D2E/DX2             !
 ! A13   A(3,9,8)              108.1088         estimate D2E/DX2             !
 ! D1    D(8,1,5,3)              0.             estimate D2E/DX2             !
 ! D2    D(8,1,5,6)            180.             estimate D2E/DX2             !
 ! D3    D(5,1,8,7)            180.             estimate D2E/DX2             !
 ! D4    D(5,1,8,9)              0.             estimate D2E/DX2             !
 ! D5    D(4,3,5,1)            180.             estimate D2E/DX2             !
 ! D6    D(4,3,5,6)              0.             estimate D2E/DX2             !
 ! D7    D(9,3,5,1)              0.             estimate D2E/DX2             !
 ! D8    D(9,3,5,6)            180.             estimate D2E/DX2             !
 ! D9    D(4,3,9,2)              0.             estimate D2E/DX2             !
 ! D10   D(4,3,9,8)            180.             estimate D2E/DX2             !
 ! D11   D(5,3,9,2)            180.             estimate D2E/DX2             !
 ! D12   D(5,3,9,8)              0.             estimate D2E/DX2             !
 ! D13   D(1,8,9,2)            180.             estimate D2E/DX2             !
 ! D14   D(1,8,9,3)              0.             estimate D2E/DX2             !
 ! D15   D(7,8,9,2)              0.             estimate D2E/DX2             !
 ! D16   D(7,8,9,3)            180.             estimate D2E/DX2             !
 -----------------------------------------------------------------------------
 Trust Radius=3.00D-01 FncErr=1.00D-07 GrdErr=1.00D-06
 Number of steps in this run=  48 maximum allowed number of steps= 100.
 GradGradGradGradGradGradGradGradGradGradGradGradGradGradGradGradGradGrad

                          Input orientation:                          
 ---------------------------------------------------------------------
 Center     Atomic     Atomic              Coordinates (Angstroms)
 Number     Number      Type              X           Y           Z
 ---------------------------------------------------------------------
    1          7             0         .309375     .000000    1.309375
    2          1             0         .312500     .000000   -1.687500
    3          6             0       -1.068750     .000000    -.284375
    4          1             0       -1.918750     .000000    -.790625
    5          6             0        -.934375     .000000    1.028125
    6          1             0       -1.675000     .000000    1.687500
    7          1             0        1.918750     .000000     .090625
    8          6             0         .934375     .000000     .190625
    9          7             0         .096875     .000000    -.775000
 ---------------------------------------------------------------------
                    Distance matrix (angstroms):
                    1          2          3          4          5
     1  N     .000000
     2  H    2.996877    .000000
     3  C    2.106957   1.968911    .000000
     4  H    3.061787   2.404758    .989338    .000000
     5  C    1.275153   2.988196   1.319361   2.068054    .000000
     6  H    2.020080   3.916731   2.062966   2.490084    .991615
     7  H    2.018772   2.396199   3.010944   3.937386   3.003203
     8  C    1.281494   1.978404   2.058673   3.017147   2.047836
     9  N    2.095179    .937630   1.264672   2.015686   2.077194
                    6          7          8          9
     6  H     .000000
     7  H    3.932563    .000000
     8  C    3.008234    .989441    .000000
     9  N    3.033718   2.017061   1.278217    .000000
 Stoichiometry    C3H4N2
 Framework group  CS[SG(C3H4N2)]
 Deg. of freedom   15
 Full point group                 CS      NOp   2
 Largest Abelian subgroup         CS      NOp   2
 Largest concise Abelian subgroup C1      NOp   1
                         Standard orientation:                         
 ---------------------------------------------------------------------
 Center     Atomic     Atomic              Coordinates (Angstroms)
 Number     Number      Type              X           Y           Z
 ---------------------------------------------------------------------
    1          7             0        -.674969    -.941702     .000000
    2          1             0        -.005288    1.979393     .000000
    3          6             0        1.025744     .302019     .000000
    4          1             0        1.967693     .604544     .000000
    5          6             0         .600174    -.946822     .000000
    6          1             0        1.173884   -1.755622     .000000
    7          1             0       -1.969692     .607211     .000000
    8          6             0       -1.032886     .288794     .000000
    9          7             0         .000000    1.041778     .000000
 ---------------------------------------------------------------------
 Rotational constants (GHZ):     11.1543393     10.4769603      5.4025219
 Isotopes: N-14,H-1,C-12,H-1,C-12,H-1,H-1,C-12,N-14
 Standard basis: CC-pVDZ (5D, 7F)
 There are    66 symmetry adapted basis functions of A'  symmetry.
 There are    24 symmetry adapted basis functions of A"  symmetry.
 Crude estimate of integral set expansion from redundant integrals=1.000.
 Integral buffers will be    262144 words long.
 Raffenetti 2 integral format.
 Two-electron integral symmetry is turned on.
    90 basis functions      203 primitive gaussians
    18 alpha electrons       18 beta electrons
       nuclear repulsion energy       173.5664837334 Hartrees.
 One-electron integrals computed using PRISM.
 NBasis=    90 RedAO= T  NBF=    66    24
 NBsUse=    90 1.00D-04 NBFU=    66    24
 Projected INDO Guess.
 Initial guess orbital symmetries:
       Occupied  (A') (A') (A') (A') (A') (A') (A') (A') (A') (A')
                 (A') (A") (A') (A') (A') (A") (A') (A")
       Virtual   (A") (A') (A') (A") (A') (A') (A') (A') (A') (A')
                 (A') (A') (A') (A') (A') (A') (A') (A') (A') (A')
                 (A') (A') (A') (A') (A') (A') (A') (A') (A') (A')
                 (A') (A') (A') (A') (A') (A') (A') (A') (A') (A')
                 (A') (A') (A') (A') (A') (A') (A') (A') (A') (A')
                 (A') (A') (A') (A") (A") (A") (A") (A") (A") (A")
                 (A") (A") (A") (A") (A") (A") (A") (A") (A") (A")
                 (A") (A")
 Requested convergence on RMS density matrix=1.00D-08 within  64 cycles.
 Requested convergence on MAX density matrix=1.00D-06.
 Keep R1 and R2 integrals in memory in canonical form, NReq=    21270441.
 Integral accuracy reduced to 1.0D-05 until final iterations.
 Initial convergence to 1.0D-05 achieved.  Increase integral accuracy.
 SCF Done:  E(RB+HF-LYP) =  -226.162306891     A.U. after   15 cycles
             Convg  =     .2634D-08             -V/T =  1.9985
             S**2   =    .0000

 **********************************************************************

            Population analysis using the SCF density.

 **********************************************************************

 Orbital Symmetries:
       Occupied  (A') (A') (A') (A') (A') (A') (A') (A') (A') (A')
                 (A') (A") (A') (A') (A') (A") (A') (A")
       Virtual   (A") (A') (A") (A') (A') (A') (A') (A') (A') (A')
                 (A') (A") (A') (A') (A") (A') (A") (A') (A') (A')
                 (A') (A') (A') (A") (A') (A') (A") (A") (A') (A')
                 (A') (A") (A") (A') (A") (A') (A') (A") (A') (A')
                 (A') (A') (A') (A") (A') (A") (A") (A') (A') (A")
                 (A') (A') (A") (A') (A') (A") (A') (A') (A') (A')
                 (A") (A") (A") (A') (A') (A') (A') (A') (A') (A')
                 (A') (A')
  The electronic state is 1-A'.
 Alpha  occ. eigenvalues --  -14.37922 -14.27957 -10.20596 -10.17879 -10.16049
 Alpha  occ. eigenvalues --   -1.07424   -.90038   -.76416   -.64710   -.61184
 Alpha  occ. eigenvalues --    -.58931   -.46593   -.46323   -.43952   -.41945
 Alpha  occ. eigenvalues --    -.29383   -.24910   -.22596
 Alpha virt. eigenvalues --     .05379    .05592    .09752    .11486    .12542
 Alpha virt. eigenvalues --     .14670    .24217    .25084    .30176    .31110
 Alpha virt. eigenvalues --     .42656    .45629    .46740    .51091    .51371
 Alpha virt. eigenvalues --     .54045    .55998    .59527    .62497    .65501
 Alpha virt. eigenvalues --     .72252    .74514    .76184    .77998    .79085
 Alpha virt. eigenvalues --     .87269    .87475    .88479    .90074    .94794
 Alpha virt. eigenvalues --    1.00051   1.08459   1.11367   1.13606   1.15315
 Alpha virt. eigenvalues --    1.21656   1.25044   1.26961   1.35709   1.41659
 Alpha virt. eigenvalues --    1.54825   1.57294   1.59957   1.60033   1.62583
 Alpha virt. eigenvalues --    1.67722   1.76128   1.78415   1.84464   1.90063
 Alpha virt. eigenvalues --    1.91223   1.93562   1.94943   2.01076   2.04789
 Alpha virt. eigenvalues --    2.16418   2.24114   2.27207   2.38836   2.41105
 Alpha virt. eigenvalues --    2.42985   2.52824   2.58461   2.66604   2.75000
 Alpha virt. eigenvalues --    2.78648   2.91427   2.94323   2.98082   3.03348
 Alpha virt. eigenvalues --    3.44914   3.72384
          Condensed to atoms (all electrons):
              1          2          3          4          5          6
  1  N    6.124683    .007693   -.123844    .008850    .631111   -.018019
  2  H     .007693    .640324   -.043671   -.008714    .015414   -.000200
  3  C    -.123844   -.043671   4.860929    .365488    .579164   -.057375
  4  H     .008850   -.008714    .365488    .761553   -.027296   -.004348
  5  C     .631111    .015414    .579164   -.027296   4.570928    .394971
  6  H    -.018019   -.000200   -.057375   -.004348    .394971    .765981
  7  H    -.015160   -.005945    .007777   -.000973    .004405   -.001084
  8  C     .624260   -.035044   -.126214    .006868   -.176294    .006571
  9  N    -.080265    .392869    .514601   -.027072   -.069373    .004296
              7          8          9
  1  N    -.015160    .624260   -.080265
  2  H    -.005945   -.035044    .392869
  3  C     .007777   -.126214    .514601
  4  H    -.000973    .006868   -.027072
  5  C     .004405   -.176294   -.069373
  6  H    -.001084    .006571    .004296
  7  H     .725971    .379527   -.028061
  8  C     .379527   4.682815    .517986
  9  N    -.028061    .517986   5.641017
 Total atomic charges:
              1
  1  N    -.159309
  2  H     .037275
  3  C     .023144
  4  H    -.074356
  5  C     .076970
  6  H    -.090792
  7  H    -.066458
  8  C     .119524
  9  N     .134002
 Sum of Mulliken charges=    .00000
 Atomic charges with hydrogens summed into heavy atoms:
              1
  1  N    -.159309
  2  H     .000000
  3  C    -.051212
  4  H     .000000
  5  C    -.013822
  6  H     .000000
  7  H     .000000
  8  C     .053067
  9  N     .171276
 Sum of Mulliken charges=    .00000
 Electronic spatial extent (au):  <R**2>=   258.2242
 Charge=      .0000 electrons
 Dipole moment (Debye):
    X=     1.0001    Y=     3.5767    Z=      .0000  Tot=     3.7139
 Quadrupole moment (Debye-Ang):
   XX=   -27.0183   YY=   -25.3694   ZZ=   -29.9908
   XY=    -2.8174   XZ=      .0000   YZ=      .0000
 Octapole moment (Debye-Ang**2):
  XXX=     -.1449  YYY=    14.8065  ZZZ=      .0000  XYY=     3.9808
  XXY=     4.4458  XXZ=      .0000  XZZ=     -.7842  YZZ=     1.2650
  YYZ=      .0000  XYZ=      .0000
 Hexadecapole moment (Debye-Ang**3):
 XXXX=  -143.5365 YYYY=  -129.3108 ZZZZ=   -29.0374 XXXY=    -1.6046
 XXXZ=      .0000 YYYX=    -5.1019 YYYZ=      .0000 ZZZX=      .0000
 ZZZY=      .0000 XXYY=   -51.7089 XXZZ=   -33.3085 YYZZ=   -30.8562
 XXYZ=      .0000 YYXZ=      .0000 ZZXY=      .8859
 N-N= 1.735664837334D+02 E-N=-8.746565328555D+02  KE= 2.264949293509D+02
 Symmetry A'   KE= 2.182493779510D+02
 Symmetry A"   KE= 8.245551399826D+00
 ***** Axes restored to original set *****
 -------------------------------------------------------------------
 Center     Atomic                   Forces (Hartrees/Bohr)
 Number     Number              X              Y              Z
 -------------------------------------------------------------------
    1          7            .084333313     .000000000     .091765858
    2          1            .019354546     .000000000    -.082491410
    3          6           -.077138935     .000000000     .015768526
    4          1           -.074589514     .000000000    -.054549014
    5          6           -.027021665     .000000000    -.012243121
    6          1           -.064790413     .000000000     .064006478
    7          1            .091503482     .000000000    -.011986449
    8          6            .015755543     .000000000     .044174443
    9          7            .032593643     .000000000    -.054445312
 -------------------------------------------------------------------
 Cartesian Forces:  Max      .091765858 RMS      .047674931

 GradGradGradGradGradGradGradGradGradGradGradGradGradGradGradGradGradGrad
 Berny optimization.
 Internal  Forces:  Max      .134091098 RMS      .049161125
 Search for a local minimum.
 Step number   1 out of a maximum of  48
 All quantities printed in internal units (Hartrees-Bohrs-Radians)
 Second derivative matrix not updated -- first step.
     Eigenvalues ---     .03211    .03261    .03288    .03318    .03352
     Eigenvalues ---     .03407    .16000    .16000    .16000    .16000
     Eigenvalues ---     .22000    .22917    .49193    .49594    .49613
     Eigenvalues ---     .54578    .60577    .63413    .68379    .73836
     Eigenvalues ---     .765081000.000001000.000001000.000001000.00000
     Eigenvalues --- 1000.000001000.000001000.000001000.000001000.00000
     Eigenvalues --- 1000.000001000.000001000.000001000.000001000.00000
     Eigenvalues --- 1000.000001000.000001000.00000
 RFO step:  Lambda=-1.21511664D-01.
 Linear search not attempted -- first point.
 Maximum step size (    .300) exceeded in Quadratic search.
    -- Step size scaled by    .735
 Iteration  1 RMS(Cart)=   .06570469 RMS(Int)=   .00040986
 Iteration  2 RMS(Cart)=   .00047426 RMS(Int)=   .00009521
 Iteration  3 RMS(Cart)=   .00000025 RMS(Int)=   .00009521
 Variable       Old X    -DE/DX   Delta X   Delta X   Delta X     New X
                                 (Linear)    (Quad)   (Total)
    R1        2.40969    .12222    .00000    .10144    .10138   2.51107
    R2        2.42167    .06699    .00000    .05635    .05618   2.47785
    R3        1.77186    .08473    .00000    .08566    .08566   1.85753
    R4        1.86958    .09200    .00000    .10952    .10952   1.97910
    R5        2.49323    .08763    .00000    .08727    .08740   2.58063
    R6        2.38988    .13409    .00000    .11165    .11179   2.50167
    R7        1.87388    .09095    .00000    .10901    .10901   1.98290
    R8        1.86977    .09225    .00000    .10985    .10985   1.97962
    R9        2.41548    .11662    .00000    .10103    .10098   2.51646
    A1        1.85787    .00340    .00000   -.00412   -.00441   1.85346
    A2        2.20999    .01588    .00000    .03441    .03427   2.24426
    A3        2.20602   -.00037    .00000   -.00804   -.00818   2.19784
    A4        1.86717   -.01551    .00000   -.02637   -.02609   1.84108
    A5        1.89521    .01036    .00000    .01917    .01925   1.91446
    A6        2.19177   -.00961    .00000   -.02116   -.02120   2.17058
    A7        2.19620   -.00075    .00000    .00199    .00195   2.19815
    A8        2.18150    .00117    .00000    .00405    .00413   2.18564
    A9        1.91767    .00267    .00000    .00501    .00484   1.92250
   A10        2.18402   -.00384    .00000   -.00905   -.00897   2.17505
   A11        2.20124    .00034    .00000   -.00348   -.00353   2.19771
   A12        2.19509    .00058    .00000   -.00283   -.00289   2.19220
   A13        1.88685   -.00092    .00000    .00631    .00642   1.89328
    D1         .00000    .00000    .00000    .00000    .00000    .00000
    D2        3.14159    .00000    .00000    .00000    .00000   3.14159
    D3        3.14159    .00000    .00000    .00000    .00000   3.14159
    D4         .00000    .00000    .00000    .00000    .00000    .00000
    D5        3.14159    .00000    .00000    .00000    .00000   3.14159
    D6         .00000    .00000    .00000    .00000    .00000    .00000
    D7         .00000    .00000    .00000    .00000    .00000    .00000
    D8        3.14159    .00000    .00000    .00000    .00000   3.14159
    D9         .00000    .00000    .00000    .00000    .00000    .00000
   D10        3.14159    .00000    .00000    .00000    .00000   3.14159
   D11        3.14159    .00000    .00000    .00000    .00000   3.14159
   D12         .00000    .00000    .00000    .00000    .00000    .00000
   D13        3.14159    .00000    .00000    .00000    .00000   3.14159
   D14         .00000    .00000    .00000    .00000    .00000    .00000
   D15         .00000    .00000    .00000    .00000    .00000    .00000
   D16        3.14159    .00000    .00000    .00000    .00000   3.14159
         Item               Value     Threshold  Converged?
 Maximum Force             .134091      .000450     NO 
 RMS     Force             .049161      .000300     NO 
 Maximum Displacement      .188658      .001800     NO 
 RMS     Displacement      .065651      .001200     NO 
 Predicted change in Energy=-2.738130D-02
 GradGradGradGradGradGradGradGradGradGradGradGradGradGradGradGradGradGrad

                          Input orientation:                          
 ---------------------------------------------------------------------
 Center     Atomic     Atomic              Coordinates (Angstroms)
 Number     Number      Type              X           Y           Z
 ---------------------------------------------------------------------
    1          7             0         .476829     .000000    1.112375
    2          1             0         .475870     .000000   -1.997375
    3          6             0        -.980488     .000000    -.539797
    4          1             0       -1.870806     .000000   -1.091301
    5          6             0        -.818539     .000000     .816176
    6          1             0       -1.589000     .000000    1.528515
    7          1             0        2.155563     .000000    -.145887
    8          6             0        1.114025     .000000    -.033610
    9          7             0         .244358     .000000   -1.042066
 ---------------------------------------------------------------------
                    Distance matrix (angstroms):
                    1          2          3          4          5
     1  N     .000000
     2  H    3.109749    .000000
     3  C    2.203054   2.060464    .000000
     4  H    3.219872   2.515523   1.047292    .000000
     5  C    1.328801   3.097025   1.365610   2.178470    .000000
     6  H    2.107326   4.086023   2.155969   2.634929   1.049303
     7  H    2.097944   2.499875   3.160693   4.135873   3.125835
     8  C    1.311221   2.064852   2.154812   3.166690   2.111147
     9  N    2.166946    .982961   1.323829   2.115737   2.140751
                    6          7          8          9
     6  H     .000000
     7  H    4.101874    .000000
     8  C    3.121952   1.047571    .000000
     9  N    3.157387   2.110886   1.331654    .000000
 Stoichiometry    C3H4N2
 Framework group  CS[SG(C3H4N2)]
 Deg. of freedom   15
 Full point group                 CS      NOp   2
 Largest Abelian subgroup         CS      NOp   2
 Largest concise Abelian subgroup C1      NOp   1
                         Standard orientation:                         
 ---------------------------------------------------------------------
 Center     Atomic     Atomic              Coordinates (Angstroms)
 Number     Number      Type              X           Y           Z
 ---------------------------------------------------------------------
    1          7             0        -.709615    -.971253     .000000
    2          1             0        -.011420    2.059104     .000000
    3          6             0        1.081044     .312097     .000000
    4          1             0        2.072349     .649934     .000000
    5          6             0         .619185    -.973040     .000000
    6          1             0        1.210311   -1.839993     .000000
    7          1             0       -2.063482     .631373     .000000
    8          6             0       -1.073638     .288424     .000000
    9          7             0         .000000    1.076209     .000000
 ---------------------------------------------------------------------
 Rotational constants (GHZ):     10.2189998      9.8007546      5.0027541
 Isotopes: N-14,H-1,C-12,H-1,C-12,H-1,H-1,C-12,N-14
 Standard basis: CC-pVDZ (5D, 7F)
 There are    66 symmetry adapted basis functions of A'  symmetry.
 There are    24 symmetry adapted basis functions of A"  symmetry.
 Crude estimate of integral set expansion from redundant integrals=1.000.
 Integral buffers will be    262144 words long.
 Raffenetti 2 integral format.
 Two-electron integral symmetry is turned on.
    90 basis functions      203 primitive gaussians
    18 alpha electrons       18 beta electrons
       nuclear repulsion energy       166.8902328331 Hartrees.
 One-electron integrals computed using PRISM.
 NBasis=    90 RedAO= T  NBF=    66    24
 NBsUse=    90 1.00D-04 NBFU=    66    24
 Initial guess read from the read-write file:
 Initial guess orbital symmetries:
       Occupied  (A') (A') (A') (A') (A') (A') (A') (A') (A') (A')
                 (A') (A") (A') (A') (A') (A") (A') (A")
       Virtual   (A") (A') (A") (A') (A') (A') (A') (A') (A') (A')
                 (A') (A") (A') (A') (A") (A') (A") (A') (A') (A')
                 (A') (A') (A') (A") (A') (A') (A") (A") (A') (A')
                 (A') (A") (A") (A') (A") (A') (A') (A") (A') (A')
                 (A') (A') (A') (A") (A') (A") (A") (A') (A') (A")
                 (A') (A') (A") (A') (A') (A") (A') (A') (A') (A')
                 (A") (A") (A") (A') (A') (A') (A') (A') (A') (A')
                 (A') (A')
 Requested convergence on RMS density matrix=1.00D-08 within  64 cycles.
 Requested convergence on MAX density matrix=1.00D-06.
 Keep R1 and R2 integrals in memory in canonical form, NReq=    21270441.
 Integral accuracy reduced to 1.0D-05 until final iterations.
 Initial convergence to 1.0D-05 achieved.  Increase integral accuracy.
 SCF Done:  E(RB+HF-LYP) =  -226.220805162     A.U. after   13 cycles
             Convg  =     .4800D-08             -V/T =  2.0039
             S**2   =    .0000
 ***** Axes restored to original set *****
 -------------------------------------------------------------------
 Center     Atomic                   Forces (Hartrees/Bohr)
 Number     Number              X              Y              Z
 -------------------------------------------------------------------
    1          7            .035252702     .000000000     .032092752
    2          1            .006543205     .000000000    -.028049962
    3          6           -.032214252     .000000000     .020087706
    4          1           -.022833360     .000000000    -.021785228
    5          6           -.012446242     .000000000    -.016144389
    6          1           -.020227156     .000000000     .023806912
    7          1            .030969582     .000000000    -.005837112
    8          6           -.002874448     .000000000     .022548583
    9          7            .017829969     .000000000    -.026719263
 -------------------------------------------------------------------
 Cartesian Forces:  Max      .035252702 RMS      .018730759

 GradGradGradGradGradGradGradGradGradGradGradGradGradGradGradGradGradGrad
 Berny optimization.
 Internal  Forces:  Max      .050103774 RMS      .016948352
 Search for a local minimum.
 Step number   2 out of a maximum of  48
 All quantities printed in internal units (Hartrees-Bohrs-Radians)
 Update second derivatives using information from points  1  2
 Trust test= 2.14D+00 RLast= 3.00D-01 DXMaxT set to 4.24D-01
     Eigenvalues ---     .03210    .03262    .03288    .03314    .03351
     Eigenvalues ---     .03406    .15928    .16000    .16000    .16001
     Eigenvalues ---     .22105    .22839    .49308    .49602    .51501
     Eigenvalues ---     .55703    .61008    .63946    .70477    .73724
     Eigenvalues ---     .758021000.000001000.000001000.000001000.00000
     Eigenvalues --- 1000.000001000.000001000.000001000.000001000.00000
     Eigenvalues --- 1000.000001000.000001000.000001000.000001000.00000
     Eigenvalues --- 1000.000001000.000001000.00000
 RFO step:  Lambda=-2.05512465D-03.
 Quartic linear search produced a step of   .68216.
 Iteration  1 RMS(Cart)=   .04663985 RMS(Int)=   .00085129
 Iteration  2 RMS(Cart)=   .00101244 RMS(Int)=   .00008885
 Iteration  3 RMS(Cart)=   .00000123 RMS(Int)=   .00008884
 Iteration  4 RMS(Cart)=   .00000000 RMS(Int)=   .00008884
 Variable       Old X    -DE/DX   Delta X   Delta X   Delta X     New X
                                 (Linear)    (Quad)   (Total)
    R1        2.51107    .04444    .06916    .00363    .07268   2.58375
    R2        2.47785    .01831    .03832   -.01182    .02636   2.50421
    R3        1.85753    .02880    .05844    .00067    .05911   1.91664
    R4        1.97910    .03088    .07471    .00302    .07773   2.05683
    R5        2.58063    .02361    .05962   -.01625    .04343   2.62406
    R6        2.50167    .05010    .07626    .00794    .08435   2.58603
    R7        1.98290    .03101    .07437    .00481    .07918   2.06207
    R8        1.97962    .03142    .07494    .00456    .07950   2.05912
    R9        2.51646    .03945    .06889   -.00167    .06724   2.58370
    A1        1.85346   -.00141   -.00301   -.02435   -.02768   1.82578
    A2        2.24426    .00867    .02338    .04561    .06887   2.31313
    A3        2.19784   -.00418   -.00558   -.04759   -.05329   2.14456
    A4        1.84108   -.00449   -.01780    .00199   -.01559   1.82549
    A5        1.91446    .00530    .01313    .01554    .02865   1.94311
    A6        2.17058   -.00637   -.01446   -.03542   -.04987   2.12070
    A7        2.19815    .00107    .00133    .01989    .02123   2.21937
    A8        2.18564    .00023    .00282    .00543    .00829   2.19392
    A9        1.92250    .00447    .00330    .02785    .03107   1.95357
   A10        2.17505   -.00470   -.00612   -.03328   -.03936   2.13569
   A11        2.19771    .00170   -.00241    .00841    .00590   2.20361
   A12        2.19220    .00216   -.00197    .01262    .01055   2.20275
   A13        1.89328   -.00386    .00438   -.02102   -.01646   1.87682
    D1         .00000    .00000    .00000    .00000    .00000    .00000
    D2        3.14159    .00000    .00000    .00000    .00000   3.14159
    D3        3.14159    .00000    .00000    .00000    .00000   3.14159
    D4         .00000    .00000    .00000    .00000    .00000    .00000
    D5        3.14159    .00000    .00000    .00000    .00000   3.14159
    D6         .00000    .00000    .00000    .00000    .00000    .00000
    D7         .00000    .00000    .00000    .00000    .00000    .00000
    D8        3.14159    .00000    .00000    .00000    .00000   3.14159
    D9         .00000    .00000    .00000    .00000    .00000    .00000
   D10        3.14159    .00000    .00000    .00000    .00000   3.14159
   D11        3.14159    .00000    .00000    .00000    .00000   3.14159
   D12         .00000    .00000    .00000    .00000    .00000    .00000
   D13        3.14159    .00000    .00000    .00000    .00000   3.14159
   D14         .00000    .00000    .00000    .00000    .00000    .00000
   D15         .00000    .00000    .00000    .00000    .00000    .00000
   D16        3.14159    .00000    .00000    .00000    .00000   3.14159
         Item               Value     Threshold  Converged?
 Maximum Force             .050104      .000450     NO 
 RMS     Force             .016948      .000300     NO 
 Maximum Displacement      .140402      .001800     NO 
 RMS     Displacement      .046529      .001200     NO 
 Predicted change in Energy=-1.468380D-02
 GradGradGradGradGradGradGradGradGradGradGradGradGradGradGradGradGradGrad

                          Input orientation:                          
 ---------------------------------------------------------------------
 Center     Atomic     Atomic              Coordinates (Angstroms)
 Number     Number      Type              X           Y           Z
 ---------------------------------------------------------------------
    1          7             0         .494927     .000000    1.148218
    2          1             0         .490494     .000000   -2.053482
    3          6             0       -1.020175     .000000    -.549824
    4          1             0       -1.913691     .000000   -1.171354
    5          6             0        -.833874     .000000     .826214
    6          1             0       -1.607205     .000000    1.596071
    7          1             0        2.202165     .000000    -.161002
    8          6             0        1.121777     .000000    -.019318
    9          7             0         .245912     .000000   -1.069173
 ---------------------------------------------------------------------
                    Distance matrix (angstroms):
                    1          2          3          4          5
     1  N     .000000
     2  H    3.201703    .000000
     3  C    2.275715   2.131457    .000000
     4  H    3.343928   2.560909   1.088426    .000000
     5  C    1.367260   3.169637   1.388592   2.270745    .000000
     6  H    2.149310   4.209463   2.224740   2.784344   1.091201
     7  H    2.151445   2.551725   3.245714   4.238052   3.192512
     8  C    1.325172   2.129869   2.206670   3.246730   2.130610
     9  N    2.231329   1.014241   1.368466   2.162019   2.181383
                    6          7          8          9
     6  H     .000000
     7  H    4.195069    .000000
     8  C    3.171250   1.089639    .000000
     9  N    3.246162   2.156780   1.367236    .000000
 Stoichiometry    C3H4N2
 Framework group  CS[SG(C3H4N2)]
 Deg. of freedom   15
 Full point group                 CS      NOp   2
 Largest Abelian subgroup         CS      NOp   2
 Largest concise Abelian subgroup C1      NOp   1
                         Standard orientation:                         
 ---------------------------------------------------------------------
 Center     Atomic     Atomic              Coordinates (Angstroms)
 Number     Number      Type              X           Y           Z
 ---------------------------------------------------------------------
    1          7             0        -.737934   -1.000177     .000000
    2          1             0        -.018579    2.119667     .000000
    3          6             0        1.118123     .316610     .000000
    4          1             0        2.127878     .722894     .000000
    5          6             0         .629219    -.983067     .000000
    6          1             0        1.211087   -1.906186     .000000
    7          1             0       -2.109666     .657251     .000000
    8          6             0       -1.088207     .277863     .000000
    9          7             0         .000000    1.105596     .000000
 ---------------------------------------------------------------------
 Rotational constants (GHZ):      9.8252606      9.2518090      4.7649580
 Isotopes: N-14,H-1,C-12,H-1,C-12,H-1,H-1,C-12,N-14
 Standard basis: CC-pVDZ (5D, 7F)
 There are    66 symmetry adapted basis functions of A'  symmetry.
 There are    24 symmetry adapted basis functions of A"  symmetry.
 Crude estimate of integral set expansion from redundant integrals=1.000.
 Integral buffers will be    262144 words long.
 Raffenetti 2 integral format.
 Two-electron integral symmetry is turned on.
    90 basis functions      203 primitive gaussians
    18 alpha electrons       18 beta electrons
       nuclear repulsion energy       162.8083613595 Hartrees.
 One-electron integrals computed using PRISM.
 NBasis=    90 RedAO= T  NBF=    66    24
 NBsUse=    90 1.00D-04 NBFU=    66    24
 Initial guess read from the read-write file:
 Initial guess orbital symmetries:
       Occupied  (A') (A') (A') (A') (A') (A') (A') (A') (A') (A')
                 (A') (A') (A") (A') (A') (A") (A') (A")
       Virtual   (A") (A') (A") (A') (A') (A') (A') (A') (A') (A')
                 (A') (A') (A") (A') (A') (A") (A") (A') (A') (A')
                 (A') (A') (A') (A') (A") (A') (A") (A') (A") (A')
                 (A') (A") (A') (A") (A") (A') (A') (A") (A') (A')
                 (A') (A') (A") (A') (A') (A") (A') (A") (A') (A")
                 (A') (A') (A") (A') (A') (A") (A') (A') (A') (A')
                 (A") (A") (A") (A') (A') (A') (A') (A') (A') (A')
                 (A') (A')
 Requested convergence on RMS density matrix=1.00D-08 within  64 cycles.
 Requested convergence on MAX density matrix=1.00D-06.
 Keep R1 and R2 integrals in memory in canonical form, NReq=    21270441.
 Integral accuracy reduced to 1.0D-05 until final iterations.
 Initial convergence to 1.0D-05 achieved.  Increase integral accuracy.
 SCF Done:  E(RB+HF-LYP) =  -226.231614956     A.U. after   13 cycles
             Convg  =     .3932D-08             -V/T =  2.0069
             S**2   =    .0000
 ***** Axes restored to original set *****
 -------------------------------------------------------------------
 Center     Atomic                   Forces (Hartrees/Bohr)
 Number     Number              X              Y              Z
 -------------------------------------------------------------------
    1          7            .006905858     .000000000    -.007475387
    2          1           -.000275063     .000000000     .002056896
    3          6           -.007266144     .000000000     .011497097
    4          1            .001857256     .000000000     .000873407
    5          6           -.012216336     .000000000    -.005571527
    6          1            .001288549     .000000000    -.001226713
    7          1           -.001104856     .000000000    -.000166557
    8          6            .002955964     .000000000     .004411969
    9          7            .007854772     .000000000    -.004399185
 -------------------------------------------------------------------
 Cartesian Forces:  Max      .012216336 RMS      .004678631

 GradGradGradGradGradGradGradGradGradGradGradGradGradGradGradGradGradGrad
 Berny optimization.
 Internal  Forces:  Max      .009341859 RMS      .002799989
 Search for a local minimum.
 Step number   3 out of a maximum of  48
 All quantities printed in internal units (Hartrees-Bohrs-Radians)
 Update second derivatives using information from points  1  2  3
 Trust test= 7.36D-01 RLast= 2.39D-01 DXMaxT set to 4.24D-01
     Eigenvalues ---     .03205    .03260    .03287    .03304    .03349
     Eigenvalues ---     .03404    .15470    .16000    .16000    .16002
     Eigenvalues ---     .22123    .23391    .45014    .49333    .49621
     Eigenvalues ---     .55891    .59083    .63937    .66356    .73147
     Eigenvalues ---     .747471000.000001000.000001000.000001000.00000
     Eigenvalues --- 1000.000001000.000001000.000001000.000001000.00000
     Eigenvalues --- 1000.000001000.000001000.000001000.000001000.00000
     Eigenvalues --- 1000.000001000.000001000.00000
 RFO step:  Lambda=-5.51363690D-04.
 Quartic linear search produced a step of  -.00395.
 Iteration  1 RMS(Cart)=   .00615352 RMS(Int)=   .00002294
 Iteration  2 RMS(Cart)=   .00002211 RMS(Int)=   .00000509
 Iteration  3 RMS(Cart)=   .00000000 RMS(Int)=   .00000509
 Variable       Old X    -DE/DX   Delta X   Delta X   Delta X     New X
                                 (Linear)    (Quad)   (Total)
    R1        2.58375    .00729   -.00029    .01153    .01125   2.59500
    R2        2.50421   -.00475   -.00010   -.00588   -.00599   2.49822
    R3        1.91664   -.00206   -.00023   -.00170   -.00194   1.91470
    R4        2.05683   -.00202   -.00031   -.00187   -.00217   2.05466
    R5        2.62406   -.00869   -.00017   -.01241   -.01257   2.61149
    R6        2.58603    .00934   -.00033    .01454    .01420   2.60023
    R7        2.06207   -.00178   -.00031   -.00138   -.00170   2.06038
    R8        2.05912   -.00107   -.00031    .00007   -.00024   2.05888
    R9        2.58370   -.00072   -.00027    .00105    .00077   2.58447
    A1        1.82578    .00461    .00011    .01643    .01655   1.84234
    A2        2.31313   -.00002   -.00027    .00102    .00075   2.31388
    A3        2.14456   -.00072    .00021   -.00578   -.00557   2.13899
    A4        1.82549    .00074    .00006    .00476    .00482   1.83031
    A5        1.94311   -.00277   -.00011   -.01177   -.01187   1.93124
    A6        2.12070    .00134    .00020    .00491    .00510   2.12580
    A7        2.21937    .00143   -.00008    .00686    .00677   2.22614
    A8        2.19392    .00173   -.00003    .00850    .00848   2.20240
    A9        1.95357   -.00282   -.00012   -.01211   -.01224   1.94133
   A10        2.13569    .00109    .00016    .00360    .00376   2.13945
   A11        2.20361    .00009   -.00002   -.00003   -.00005   2.20356
   A12        2.20275   -.00034   -.00004   -.00265   -.00268   2.20007
   A13        1.87682    .00025    .00007    .00268    .00273   1.87955
    D1         .00000    .00000    .00000    .00000    .00000    .00000
    D2        3.14159    .00000    .00000    .00000    .00000   3.14159
    D3        3.14159    .00000    .00000    .00000    .00000   3.14159
    D4         .00000    .00000    .00000    .00000    .00000    .00000
    D5        3.14159    .00000    .00000    .00000    .00000   3.14159
    D6         .00000    .00000    .00000    .00000    .00000    .00000
    D7         .00000    .00000    .00000    .00000    .00000    .00000
    D8        3.14159    .00000    .00000    .00000    .00000   3.14159
    D9         .00000    .00000    .00000    .00000    .00000    .00000
   D10        3.14159    .00000    .00000    .00000    .00000   3.14159
   D11        3.14159    .00000    .00000    .00000    .00000   3.14159
   D12         .00000    .00000    .00000    .00000    .00000    .00000
   D13        3.14159    .00000    .00000    .00000    .00000   3.14159
   D14         .00000    .00000    .00000    .00000    .00000    .00000
   D15         .00000    .00000    .00000    .00000    .00000    .00000
   D16        3.14159    .00000    .00000    .00000    .00000   3.14159
         Item               Value     Threshold  Converged?
 Maximum Force             .009342      .000450     NO 
 RMS     Force             .002800      .000300     NO 
 Maximum Displacement      .018496      .001800     NO 
 RMS     Displacement      .006150      .001200     NO 
 Predicted change in Energy=-2.754786D-04
 GradGradGradGradGradGradGradGradGradGradGradGradGradGradGradGradGradGrad

                          Input orientation:                          
 ---------------------------------------------------------------------
 Center     Atomic     Atomic              Coordinates (Angstroms)
 Number     Number      Type              X           Y           Z
 ---------------------------------------------------------------------
    1          7             0         .495223     .000000    1.129930
    2          1             0         .492895     .000000   -2.059914
    3          6             0       -1.022533     .000000    -.552477
    4          1             0       -1.912422     .000000   -1.177193
    5          6             0        -.842004     .000000     .817619
    6          1             0       -1.612228     .000000    1.589317
    7          1             0        2.210389     .000000    -.171531
    8          6             0        1.130160     .000000    -.029617
    9          7             0         .249848     .000000   -1.076280
 ---------------------------------------------------------------------
                    Distance matrix (angstroms):
                    1          2          3          4          5
     1  N     .000000
     2  H    3.189845    .000000
     3  C    2.265851   2.137495    .000000
     4  H    3.334602   2.562176   1.087277    .000000
     5  C    1.373213   3.172090   1.381939   2.263862    .000000
     6  H    2.156939   4.212888   2.221491   2.782748   1.090304
     7  H    2.153043   2.552602   3.255289   4.243693   3.208663
     8  C    1.322004   2.127960   2.215281   3.251805   2.146448
     9  N    2.219814   1.013216   1.375981   2.164623   2.186091
                    6          7          8          9
     6  H     .000000
     7  H    4.208680    .000000
     8  C    3.184594   1.089511    .000000
     9  N    3.251574   2.159235   1.367645    .000000
 Stoichiometry    C3H4N2
 Framework group  CS[SG(C3H4N2)]
 Deg. of freedom   15
 Full point group                 CS      NOp   2
 Largest Abelian subgroup         CS      NOp   2
 Largest concise Abelian subgroup C1      NOp   1
                         Standard orientation:                         
 ---------------------------------------------------------------------
 Center     Atomic     Atomic              Coordinates (Angstroms)
 Number     Number      Type              X           Y           Z
 ---------------------------------------------------------------------
    1          7             0        -.738891    -.989083     .000000
    2          1             0        -.013847    2.117269     .000000
    3          6             0        1.120601     .305664     .000000
    4          1             0        2.128897     .712494     .000000
    5          6             0         .634322    -.987893     .000000
    6          1             0        1.209658   -1.914041     .000000
    7          1             0       -2.114554     .667161     .000000
    8          6             0       -1.094576     .284173     .000000
    9          7             0         .000000    1.104147     .000000
 ---------------------------------------------------------------------
 Rotational constants (GHZ):      9.7090301      9.3414025      4.7608346
 Isotopes: N-14,H-1,C-12,H-1,C-12,H-1,H-1,C-12,N-14
 Standard basis: CC-pVDZ (5D, 7F)
 There are    66 symmetry adapted basis functions of A'  symmetry.
 There are    24 symmetry adapted basis functions of A"  symmetry.
 Crude estimate of integral set expansion from redundant integrals=1.000.
 Integral buffers will be    262144 words long.
 Raffenetti 2 integral format.
 Two-electron integral symmetry is turned on.
    90 basis functions      203 primitive gaussians
    18 alpha electrons       18 beta electrons
       nuclear repulsion energy       162.7238665120 Hartrees.
 One-electron integrals computed using PRISM.
 NBasis=    90 RedAO= T  NBF=    66    24
 NBsUse=    90 1.00D-04 NBFU=    66    24
 Initial guess read from the read-write file:
 Initial guess orbital symmetries:
       Occupied  (A') (A') (A') (A') (A') (A') (A') (A') (A') (A')
                 (A') (A') (A') (A") (A') (A") (A') (A")
       Virtual   (A") (A') (A") (A') (A') (A') (A') (A') (A') (A')
                 (A') (A') (A') (A") (A') (A") (A') (A") (A') (A')
                 (A') (A') (A') (A') (A") (A') (A') (A") (A") (A')
                 (A') (A") (A') (A") (A") (A') (A') (A") (A') (A')
                 (A') (A') (A") (A') (A') (A") (A') (A") (A') (A")
                 (A') (A') (A') (A") (A') (A') (A") (A') (A') (A')
                 (A") (A') (A") (A") (A') (A') (A') (A') (A') (A')
                 (A') (A')
 Requested convergence on RMS density matrix=1.00D-08 within  64 cycles.
 Requested convergence on MAX density matrix=1.00D-06.
 Keep R1 and R2 integrals in memory in canonical form, NReq=    21270441.
 SCF Done:  E(RB+HF-LYP) =  -226.231899391     A.U. after   10 cycles
             Convg  =     .5156D-08             -V/T =  2.0069
             S**2   =    .0000
 ***** Axes restored to original set *****
 -------------------------------------------------------------------
 Center     Atomic                   Forces (Hartrees/Bohr)
 Number     Number              X              Y              Z
 -------------------------------------------------------------------
    1          7            .005487081     .000000000     .000155639
    2          1           -.000649991     .000000000     .000883479
    3          6           -.002597168     .000000000     .004438324
    4          1            .001165401     .000000000     .000197715
    5          6           -.003110392     .000000000    -.004543395
    6          1            .001436367     .000000000    -.000728321
    7          1           -.001138791     .000000000     .000187908
    8          6           -.004049327     .000000000     .003492053
    9          7            .003456819     .000000000    -.004083403
 -------------------------------------------------------------------
 Cartesian Forces:  Max      .005487081 RMS      .002362003

 GradGradGradGradGradGradGradGradGradGradGradGradGradGradGradGradGradGrad
 Berny optimization.
 Internal  Forces:  Max      .003367391 RMS      .001192943
 Search for a local minimum.
 Step number   4 out of a maximum of  48
 All quantities printed in internal units (Hartrees-Bohrs-Radians)
 Update second derivatives using information from points  1  2  3  4
 Trust test= 1.03D+00 RLast= 3.64D-02 DXMaxT set to 4.24D-01
     Eigenvalues ---     .03205    .03261    .03287    .03304    .03350
     Eigenvalues ---     .03405    .14821    .16000    .16001    .16053
     Eigenvalues ---     .21541    .33255    .44256    .48066    .49511
     Eigenvalues ---     .49684    .56650    .60093    .64521    .69610
     Eigenvalues ---     .769881000.000001000.000001000.000001000.00000
     Eigenvalues --- 1000.000001000.000001000.000001000.000001000.00000
     Eigenvalues --- 1000.000001000.000001000.000001000.000001000.00000
     Eigenvalues --- 1000.000001000.000001000.00000
 RFO step:  Lambda=-1.43406209D-04.
 Quartic linear search produced a step of   .03458.
 Iteration  1 RMS(Cart)=   .00244111 RMS(Int)=   .00000537
 Iteration  2 RMS(Cart)=   .00000571 RMS(Int)=   .00000288
 Iteration  3 RMS(Cart)=   .00000000 RMS(Int)=   .00000288
 Variable       Old X    -DE/DX   Delta X   Delta X   Delta X     New X
                                 (Linear)    (Quad)   (Total)
    R1        2.59500    .00242    .00039    .00657    .00695   2.60195
    R2        2.49822   -.00337   -.00021   -.00592   -.00612   2.49210
    R3        1.91470   -.00101   -.00007   -.00146   -.00152   1.91318
    R4        2.05466   -.00107   -.00008   -.00174   -.00181   2.05285
    R5        2.61149   -.00311   -.00043   -.00717   -.00761   2.60388
    R6        2.60023    .00157    .00049    .00639    .00688   2.60710
    R7        2.06038   -.00153   -.00006   -.00262   -.00268   2.05769
    R8        2.05888   -.00115   -.00001   -.00147   -.00148   2.05739
    R9        2.58447    .00024    .00003    .00132    .00136   2.58583
    A1        1.84234   -.00179    .00057   -.00532   -.00474   1.83759
    A2        2.31388    .00057    .00003    .00376    .00378   2.31767
    A3        2.13899   -.00047   -.00019   -.00498   -.00517   2.13382
    A4        1.83031   -.00010    .00017    .00123    .00139   1.83170
    A5        1.93124    .00119   -.00041    .00290    .00248   1.93372
    A6        2.12580   -.00111    .00018   -.00513   -.00495   2.12085
    A7        2.22614   -.00008    .00023    .00223    .00247   2.22861
    A8        2.20240   -.00120    .00029   -.00336   -.00307   2.19933
    A9        1.94133    .00233   -.00042    .00744    .00703   1.94836
   A10        2.13945   -.00112    .00013   -.00408   -.00396   2.13550
   A11        2.20356    .00041    .00000    .00083    .00082   2.20439
   A12        2.20007    .00121   -.00009    .00542    .00533   2.20540
   A13        1.87955   -.00162    .00009   -.00625   -.00615   1.87340
    D1         .00000    .00000    .00000    .00000    .00000    .00000
    D2        3.14159    .00000    .00000    .00000    .00000   3.14159
    D3        3.14159    .00000    .00000    .00000    .00000   3.14159
    D4         .00000    .00000    .00000    .00000    .00000    .00000
    D5        3.14159    .00000    .00000    .00000    .00000   3.14159
    D6         .00000    .00000    .00000    .00000    .00000    .00000
    D7         .00000    .00000    .00000    .00000    .00000    .00000
    D8        3.14159    .00000    .00000    .00000    .00000   3.14159
    D9         .00000    .00000    .00000    .00000    .00000    .00000
   D10        3.14159    .00000    .00000    .00000    .00000   3.14159
   D11        3.14159    .00000    .00000    .00000    .00000   3.14159
   D12         .00000    .00000    .00000    .00000    .00000    .00000
   D13        3.14159    .00000    .00000    .00000    .00000   3.14159
   D14         .00000    .00000    .00000    .00000    .00000    .00000
   D15         .00000    .00000    .00000    .00000    .00000    .00000
   D16        3.14159    .00000    .00000    .00000    .00000   3.14159
         Item               Value     Threshold  Converged?
 Maximum Force             .003367      .000450     NO 
 RMS     Force             .001193      .000300     NO 
 Maximum Displacement      .006385      .001800     NO 
 RMS     Displacement      .002442      .001200     NO 
 Predicted change in Energy=-7.198783D-05
 GradGradGradGradGradGradGradGradGradGradGradGradGradGradGradGradGradGrad

                          Input orientation:                          
 ---------------------------------------------------------------------
 Center     Atomic     Atomic              Coordinates (Angstroms)
 Number     Number      Type              X           Y           Z
 ---------------------------------------------------------------------
    1          7             0         .498071     .000000    1.131727
    2          1             0         .492778     .000000   -2.060791
    3          6             0       -1.023320     .000000    -.549622
    4          1             0       -1.910562     .000000   -1.176431
    5          6             0        -.842214     .000000     .816337
    6          1             0       -1.608906     .000000    1.589547
    7          1             0        2.207347     .000000    -.168732
    8          6             0        1.127896     .000000    -.026919
    9          7             0         .251271     .000000   -1.077607
 ---------------------------------------------------------------------
                    Distance matrix (angstroms):
                    1          2          3          4          5
     1  N     .000000
     2  H    3.192522    .000000
     3  C    2.267501   2.140604    .000000
     4  H    3.336031   2.560886   1.086319    .000000
     5  C    1.376893   3.171762   1.377913   2.261082    .000000
     6  H    2.156143   4.212131   2.217872   2.782378   1.088885
     7  H    2.147747   2.553357   3.253042   4.239414   3.204713
     8  C    1.318764   2.130730   2.213808   3.248632   2.142992
     9  N    2.223076   1.012411   1.379619   2.164091   2.186947
                    6          7          8          9
     6  H     .000000
     7  H    4.201825    .000000
     8  C    3.178529   1.088727    .000000
     9  N    3.251764   2.156916   1.368364    .000000
 Stoichiometry    C3H4N2
 Framework group  CS[SG(C3H4N2)]
 Deg. of freedom   15
 Full point group                 CS      NOp   2
 Largest Abelian subgroup         CS      NOp   2
 Largest concise Abelian subgroup C1      NOp   1
                         Standard orientation:                         
 ---------------------------------------------------------------------
 Center     Atomic     Atomic              Coordinates (Angstroms)
 Number     Number      Type              X           Y           Z
 ---------------------------------------------------------------------
    1          7             0        -.742029    -.989035     .000000
    2          1             0        -.011946    2.118886     .000000
    3          6             0        1.121406     .302930     .000000
    4          1             0        2.127802     .711898     .000000
    5          6             0         .634861    -.986224     .000000
    6          1             0        1.205952   -1.913330     .000000
    7          1             0       -2.111359     .665581     .000000
    8          6             0       -1.092307     .282360     .000000
    9          7             0         .000000    1.106546     .000000
 ---------------------------------------------------------------------
 Rotational constants (GHZ):      9.7170754      9.3321896      4.7603721
 Isotopes: N-14,H-1,C-12,H-1,C-12,H-1,H-1,C-12,N-14
 Standard basis: CC-pVDZ (5D, 7F)
 There are    66 symmetry adapted basis functions of A'  symmetry.
 There are    24 symmetry adapted basis functions of A"  symmetry.
 Crude estimate of integral set expansion from redundant integrals=1.000.
 Integral buffers will be    262144 words long.
 Raffenetti 2 integral format.
 Two-electron integral symmetry is turned on.
    90 basis functions      203 primitive gaussians
    18 alpha electrons       18 beta electrons
       nuclear repulsion energy       162.7250648896 Hartrees.
 One-electron integrals computed using PRISM.
 NBasis=    90 RedAO= T  NBF=    66    24
 NBsUse=    90 1.00D-04 NBFU=    66    24
 Initial guess read from the read-write file:
 Initial guess orbital symmetries:
       Occupied  (A') (A') (A') (A') (A') (A') (A') (A') (A') (A')
                 (A') (A') (A') (A") (A') (A") (A') (A")
       Virtual   (A") (A') (A") (A') (A') (A') (A') (A') (A') (A')
                 (A') (A') (A') (A") (A') (A") (A') (A") (A') (A')
                 (A') (A') (A') (A') (A") (A') (A') (A") (A") (A')
                 (A') (A") (A') (A") (A") (A') (A') (A") (A') (A')
                 (A') (A') (A") (A') (A') (A") (A') (A") (A') (A")
                 (A') (A') (A') (A") (A') (A') (A") (A') (A') (A')
                 (A") (A") (A') (A") (A') (A') (A') (A') (A') (A')
                 (A') (A')
 Requested convergence on RMS density matrix=1.00D-08 within  64 cycles.
 Requested convergence on MAX density matrix=1.00D-06.
 Keep R1 and R2 integrals in memory in canonical form, NReq=    21270441.
 SCF Done:  E(RB+HF-LYP) =  -226.231989946     A.U. after    9 cycles
             Convg  =     .6213D-08             -V/T =  2.0069
             S**2   =    .0000
 ***** Axes restored to original set *****
 -------------------------------------------------------------------
 Center     Atomic                   Forces (Hartrees/Bohr)
 Number     Number              X              Y              Z
 -------------------------------------------------------------------
    1          7            .001803174     .000000000     .000159052
    2          1           -.000254044     .000000000     .000405315
    3          6           -.000377514     .000000000     .000702753
    4          1            .000344943     .000000000     .000161347
    5          6           -.001282456     .000000000    -.001152541
    6          1            .000525946     .000000000    -.000259975
    7          1           -.000367262     .000000000     .000063932
    8          6           -.001311946     .000000000     .000568569
    9          7            .000919158     .000000000    -.000648451
 -------------------------------------------------------------------
 Cartesian Forces:  Max      .001803174 RMS      .000639820

 GradGradGradGradGradGradGradGradGradGradGradGradGradGradGradGradGradGrad
 Berny optimization.
 Internal  Forces:  Max      .000918434 RMS      .000345268
 Search for a local minimum.
 Step number   5 out of a maximum of  48
 All quantities printed in internal units (Hartrees-Bohrs-Radians)
 Update second derivatives using information from points  1  2  3  4  5

 Trust test= 1.26D+00 RLast= 2.12D-02 DXMaxT set to 4.24D-01
     Eigenvalues ---     .03205    .03261    .03286    .03303    .03349
     Eigenvalues ---     .03404    .14324    .15966    .16001    .16021
     Eigenvalues ---     .21228    .28813    .42983    .47313    .49650
     Eigenvalues ---     .49688    .56427    .59710    .64760    .68622
     Eigenvalues ---     .765761000.000001000.000001000.000001000.00000
     Eigenvalues --- 1000.000001000.000001000.000001000.000001000.00000
     Eigenvalues --- 1000.000001000.000001000.000001000.000001000.00000
     Eigenvalues --- 1000.000001000.000001000.00000
 RFO step:  Lambda=-1.81961857D-06.
 Quartic linear search produced a step of   .34454.
 Iteration  1 RMS(Cart)=   .00092501 RMS(Int)=   .00000154
 Iteration  2 RMS(Cart)=   .00000072 RMS(Int)=   .00000142
 Variable       Old X    -DE/DX   Delta X   Delta X   Delta X     New X
                                 (Linear)    (Quad)   (Total)
    R1        2.60195    .00090    .00240    .00054    .00293   2.60488
    R2        2.49210   -.00092   -.00211   -.00011   -.00221   2.48989
    R3        1.91318   -.00045   -.00052   -.00048   -.00101   1.91217
    R4        2.05285   -.00037   -.00062   -.00034   -.00097   2.05188
    R5        2.60388   -.00076   -.00262    .00013   -.00250   2.60138
    R6        2.60710    .00005    .00237   -.00074    .00162   2.60873
    R7        2.05769   -.00055   -.00092   -.00051   -.00144   2.05626
    R8        2.05739   -.00037   -.00051   -.00028   -.00079   2.05661
    R9        2.58583   -.00030    .00047   -.00083   -.00036   2.58547
    A1        1.83759   -.00063   -.00163   -.00039   -.00202   1.83557
    A2        2.31767    .00010    .00130   -.00053    .00078   2.31845
    A3        2.13382   -.00004   -.00178    .00075   -.00103   2.13279
    A4        1.83170   -.00005    .00048   -.00023    .00025   1.83195
    A5        1.93372    .00023    .00085   -.00004    .00081   1.93453
    A6        2.12085   -.00031   -.00171   -.00044   -.00214   2.11871
    A7        2.22861    .00008    .00085    .00048    .00133   2.22994
    A8        2.19933   -.00036   -.00106   -.00016   -.00122   2.19812
    A9        1.94836    .00069    .00242    .00014    .00257   1.95093
   A10        2.13550   -.00033   -.00136    .00001   -.00135   2.13414
   A11        2.20439   -.00002    .00028   -.00058   -.00029   2.20409
   A12        2.20540    .00026    .00183    .00006    .00190   2.20729
   A13        1.87340   -.00024   -.00212    .00051   -.00160   1.87180
    D1         .00000    .00000    .00000    .00000    .00000    .00000
    D2        3.14159    .00000    .00000    .00000    .00000   3.14159
    D3        3.14159    .00000    .00000    .00000    .00000   3.14159
    D4         .00000    .00000    .00000    .00000    .00000    .00000
    D5        3.14159    .00000    .00000    .00000    .00000   3.14159
    D6         .00000    .00000    .00000    .00000    .00000    .00000
    D7         .00000    .00000    .00000    .00000    .00000    .00000
    D8        3.14159    .00000    .00000    .00000    .00000   3.14159
    D9         .00000    .00000    .00000    .00000    .00000    .00000
   D10        3.14159    .00000    .00000    .00000    .00000   3.14159
   D11        3.14159    .00000    .00000    .00000    .00000   3.14159
   D12         .00000    .00000    .00000    .00000    .00000    .00000
   D13        3.14159    .00000    .00000    .00000    .00000   3.14159
   D14         .00000    .00000    .00000    .00000    .00000    .00000
   D15         .00000    .00000    .00000    .00000    .00000    .00000
   D16        3.14159    .00000    .00000    .00000    .00000   3.14159
         Item               Value     Threshold  Converged?
 Maximum Force             .000918      .000450     NO 
 RMS     Force             .000345      .000300     NO 
 Maximum Displacement      .002806      .001800     NO 
 RMS     Displacement      .000925      .001200     YES
 Predicted change in Energy=-7.262829D-06
 GradGradGradGradGradGradGradGradGradGradGradGradGradGradGradGradGradGrad

                          Input orientation:                          
 ---------------------------------------------------------------------
 Center     Atomic     Atomic              Coordinates (Angstroms)
 Number     Number      Type              X           Y           Z
 ---------------------------------------------------------------------
    1          7             0         .499066     .000000    1.132046
    2          1             0         .492430     .000000   -2.060859
    3          6             0       -1.023545     .000000    -.549305
    4          1             0       -1.909933     .000000   -1.176435
    5          6             0        -.842500     .000000     .815330
    6          1             0       -1.607563     .000000    1.589084
    7          1             0        2.205856     .000000    -.168230
    8          6             0        1.126831     .000000    -.026384
    9          7             0         .251664     .000000   -1.078042
 ---------------------------------------------------------------------
                    Distance matrix (angstroms):
                    1          2          3          4          5
     1  N     .000000
     2  H    3.192912    .000000
     3  C    2.268322   2.140789    .000000
     4  H    3.336519   2.559991   1.085807    .000000
     5  C    1.378444   3.170883   1.376592   2.259765    .000000
     6  H    2.155636   4.210944   2.216705   2.782000   1.088125
     7  H    2.145659   2.553013   3.251808   4.237476   3.203103
     8  C    1.317592   2.131092   2.213044   3.247238   2.141669
     9  N    2.223892   1.011878   1.380479   2.163836   2.186790
                    6          7          8          9
     6  H     .000000
     7  H    4.198847    .000000
     8  C    3.175948   1.088309    .000000
     9  N    3.251198   2.155603   1.368174    .000000
 Stoichiometry    C3H4N2
 Framework group  CS[SG(C3H4N2)]
 Deg. of freedom   15
 Full point group                 CS      NOp   2
 Largest Abelian subgroup         CS      NOp   2
 Largest concise Abelian subgroup C1      NOp   1
                         Standard orientation:                         
 ---------------------------------------------------------------------
 Center     Atomic     Atomic              Coordinates (Angstroms)
 Number     Number      Type              X           Y           Z
 ---------------------------------------------------------------------
    1          7             0        -.743326    -.988979     .000000
    2          1             0        -.011047    2.118826     .000000
    3          6             0        1.121630     .302230     .000000
    4          1             0        2.127373     .711446     .000000
    5          6             0         .635114    -.985522     .000000
    6          1             0        1.204256   -1.912935     .000000
    7          1             0       -2.109851     .665246     .000000
    8          6             0       -1.091319     .281828     .000000
    9          7             0         .000000    1.107008     .000000
 ---------------------------------------------------------------------
 Rotational constants (GHZ):      9.7221079      9.3304467      4.7611258
 Isotopes: N-14,H-1,C-12,H-1,C-12,H-1,H-1,C-12,N-14
 Standard basis: CC-pVDZ (5D, 7F)
 There are    66 symmetry adapted basis functions of A'  symmetry.
 There are    24 symmetry adapted basis functions of A"  symmetry.
 Crude estimate of integral set expansion from redundant integrals=1.000.
 Integral buffers will be    262144 words long.
 Raffenetti 2 integral format.
 Two-electron integral symmetry is turned on.
    90 basis functions      203 primitive gaussians
    18 alpha electrons       18 beta electrons
       nuclear repulsion energy       162.7423084385 Hartrees.
 One-electron integrals computed using PRISM.
 NBasis=    90 RedAO= T  NBF=    66    24
 NBsUse=    90 1.00D-04 NBFU=    66    24
 Initial guess read from the read-write file:
 Initial guess orbital symmetries:
       Occupied  (A') (A') (A') (A') (A') (A') (A') (A') (A') (A')
                 (A') (A') (A') (A") (A') (A") (A') (A")
       Virtual   (A") (A') (A") (A') (A') (A') (A') (A') (A') (A')
                 (A') (A') (A') (A") (A') (A") (A') (A") (A') (A')
                 (A') (A') (A') (A') (A") (A') (A') (A") (A") (A')
                 (A') (A") (A') (A") (A") (A') (A') (A") (A') (A')
                 (A') (A') (A") (A') (A') (A") (A') (A") (A') (A")
                 (A') (A') (A') (A") (A') (A') (A") (A') (A') (A')
                 (A") (A") (A') (A") (A') (A') (A') (A') (A') (A')
                 (A') (A')
 Requested convergence on RMS density matrix=1.00D-08 within  64 cycles.
 Requested convergence on MAX density matrix=1.00D-06.
 Keep R1 and R2 integrals in memory in canonical form, NReq=    21270441.
 SCF Done:  E(RB+HF-LYP) =  -226.231997530     A.U. after    9 cycles
             Convg  =     .3448D-08             -V/T =  2.0068
             S**2   =    .0000
 ***** Axes restored to original set *****
 -------------------------------------------------------------------
 Center     Atomic                   Forces (Hartrees/Bohr)
 Number     Number              X              Y              Z
 -------------------------------------------------------------------
    1          7            .000260186     .000000000     .000157101
    2          1           -.000022322     .000000000     .000020057
    3          6            .000227053     .000000000    -.000192450
    4          1           -.000006232     .000000000     .000029854
    5          6           -.000373563     .000000000     .000016446
    6          1            .000053187     .000000000     .000007502
    7          1            .000006927     .000000000    -.000000283
    8          6           -.000165617     .000000000    -.000241148
    9          7            .000020380     .000000000     .000202920
 -------------------------------------------------------------------
 Cartesian Forces:  Max      .000373563 RMS      .000129490

 GradGradGradGradGradGradGradGradGradGradGradGradGradGradGradGradGradGrad
 Berny optimization.
 Internal  Forces:  Max      .000231873 RMS      .000065946
 Search for a local minimum.
 Step number   6 out of a maximum of  48
 All quantities printed in internal units (Hartrees-Bohrs-Radians)
 Update second derivatives using information from points  1  2  3  4  5
                                                        6
 Trust test= 1.04D+00 RLast= 7.49D-03 DXMaxT set to 4.24D-01
     Eigenvalues ---     .03205    .03261    .03286    .03303    .03349
     Eigenvalues ---     .03404    .14115    .15754    .16001    .16040
     Eigenvalues ---     .20867    .29234    .42747    .45957    .49596
     Eigenvalues ---     .49681    .56415    .59287    .64110    .69602
     Eigenvalues ---     .763761000.000001000.000001000.000001000.00000
     Eigenvalues --- 1000.000001000.000001000.000001000.000001000.00000
     Eigenvalues --- 1000.000001000.000001000.000001000.000001000.00000
     Eigenvalues --- 1000.000001000.000001000.00000
 RFO step:  Lambda=-2.95431014D-07.
 Quartic linear search produced a step of   .04242.
 Iteration  1 RMS(Cart)=   .00011227 RMS(Int)=   .00000002
 Iteration  2 RMS(Cart)=   .00000002 RMS(Int)=   .00000002
 Variable       Old X    -DE/DX   Delta X   Delta X   Delta X     New X
                                 (Linear)    (Quad)   (Total)
    R1        2.60488    .00023    .00012    .00032    .00044   2.60532
    R2        2.48989    .00007   -.00009    .00014    .00005   2.48994
    R3        1.91217   -.00002   -.00004   -.00003   -.00007   1.91210
    R4        2.05188   -.00001   -.00004   -.00002   -.00006   2.05182
    R5        2.60138    .00007   -.00011    .00017    .00006   2.60144
    R6        2.60873   -.00015    .00007   -.00026   -.00019   2.60854
    R7        2.05626   -.00003   -.00006   -.00005   -.00011   2.05615
    R8        2.05661    .00001   -.00003    .00002   -.00002   2.05659
    R9        2.58547   -.00019   -.00002   -.00031   -.00032   2.58515
    A1        1.83557   -.00009   -.00009   -.00009   -.00018   1.83539
    A2        2.31845   -.00005    .00003   -.00028   -.00025   2.31820
    A3        2.13279    .00001   -.00004    .00013    .00009   2.13288
    A4        1.83195    .00005    .00001    .00015    .00016   1.83211
    A5        1.93453   -.00009    .00003   -.00023   -.00020   1.93434
    A6        2.11871    .00000   -.00009   -.00013   -.00022   2.11850
    A7        2.22994    .00009    .00006    .00035    .00041   2.23035
    A8        2.19812   -.00004   -.00005   -.00007   -.00012   2.19800
    A9        1.95093    .00007    .00011    .00011    .00022   1.95115
   A10        2.13414   -.00003   -.00006   -.00005   -.00010   2.13404
   A11        2.20409   -.00005   -.00001   -.00011   -.00012   2.20397
   A12        2.20729   -.00002    .00008    .00005    .00013   2.20742
   A13        1.87180    .00007   -.00007    .00006   -.00001   1.87179
    D1         .00000    .00000    .00000    .00000    .00000    .00000
    D2        3.14159    .00000    .00000    .00000    .00000   3.14159
    D3        3.14159    .00000    .00000    .00000    .00000   3.14159
    D4         .00000    .00000    .00000    .00000    .00000    .00000
    D5        3.14159    .00000    .00000    .00000    .00000   3.14159
    D6         .00000    .00000    .00000    .00000    .00000    .00000
    D7         .00000    .00000    .00000    .00000    .00000    .00000
    D8        3.14159    .00000    .00000    .00000    .00000   3.14159
    D9         .00000    .00000    .00000    .00000    .00000    .00000
   D10        3.14159    .00000    .00000    .00000    .00000   3.14159
   D11        3.14159    .00000    .00000    .00000    .00000   3.14159
   D12         .00000    .00000    .00000    .00000    .00000    .00000
   D13        3.14159    .00000    .00000    .00000    .00000   3.14159
   D14         .00000    .00000    .00000    .00000    .00000    .00000
   D15         .00000    .00000    .00000    .00000    .00000    .00000
   D16        3.14159    .00000    .00000    .00000    .00000   3.14159
         Item               Value     Threshold  Converged?
 Maximum Force             .000232      .000450     YES
 RMS     Force             .000066      .000300     YES
 Maximum Displacement      .000302      .001800     YES
 RMS     Displacement      .000112      .001200     YES
 Predicted change in Energy=-1.602889D-07
 Optimization completed.
    -- Stationary point found.
                         ----------------------------
                         !   Optimized Parameters   !
                         ! (Angstroms and Degrees)  !
 ------------------------                            -------------------------
 ! Name  Definition              Value          Derivative Info.             !
 -----------------------------------------------------------------------------
 ! R1    R(1,5)                  1.3784         -DE/DX =    0.0002           !
 ! R2    R(1,8)                  1.3176         -DE/DX =    0.0001           !
 ! R3    R(2,9)                  1.0119         -DE/DX =    0.               !
 ! R4    R(3,4)                  1.0858         -DE/DX =    0.               !
 ! R5    R(3,5)                  1.3766         -DE/DX =    0.0001           !
 ! R6    R(3,9)                  1.3805         -DE/DX =   -0.0001           !
 ! R7    R(5,6)                  1.0881         -DE/DX =    0.               !
 ! R8    R(7,8)                  1.0883         -DE/DX =    0.               !
 ! R9    R(8,9)                  1.3682         -DE/DX =   -0.0002           !
 ! A1    A(5,1,8)              105.1706         -DE/DX =   -0.0001           !
 ! A2    A(4,3,5)              132.8371         -DE/DX =   -0.0001           !
 ! A3    A(4,3,9)              122.1999         -DE/DX =    0.               !
 ! A4    A(5,3,9)              104.963          -DE/DX =    0.               !
 ! A5    A(1,5,3)              110.8404         -DE/DX =   -0.0001           !
 ! A6    A(1,5,6)              121.3932         -DE/DX =    0.               !
 ! A7    A(3,5,6)              127.7664         -DE/DX =    0.0001           !
 ! A8    A(1,8,7)              125.9427         -DE/DX =    0.               !
 ! A9    A(1,8,9)              111.7798         -DE/DX =    0.0001           !
 ! A10   A(7,8,9)              122.2775         -DE/DX =    0.               !
 ! A11   A(2,9,3)              126.2852         -DE/DX =    0.               !
[...]
 Atom AN      X      Y      Z        X      Y      Z        X      Y      Z
   1   7      .00    .00    .00      .00    .00    .00      .00    .00    .00
   2   1     -.01    .02    .00     -.01   -.02    .00     -.01   1.00    .00
   3   6     -.01    .00    .00     -.08   -.04    .00      .00    .00    .00
   4   1      .11    .04    .00      .87    .36    .00      .01    .00    .00
   5   6      .01   -.01    .00     -.01    .03    .00      .00    .00    .00
   6   1     -.08    .14    .00      .16   -.27    .00      .00    .00    .00
   7   1      .91   -.34    .00     -.05    .02    .00     -.01    .00    .00
   8   6     -.08    .03    .00      .01    .00    .00      .00    .00    .00
   9   7      .00    .00    .00      .00    .00    .00      .00   -.08    .00

 -------------------
 - Thermochemistry -
 -------------------
 Temperature   298.150 Kelvin.  Pressure   1.00000 Atm.
 Atom  1 has atomic number  7 and mass  14.00307
 Atom  2 has atomic number  1 and mass   1.00783
 Atom  3 has atomic number  6 and mass  12.00000
 Atom  4 has atomic number  1 and mass   1.00783
 Atom  5 has atomic number  6 and mass  12.00000
 Atom  6 has atomic number  1 and mass   1.00783
 Atom  7 has atomic number  1 and mass   1.00783
 Atom  8 has atomic number  6 and mass  12.00000
 Atom  9 has atomic number  7 and mass  14.00307
 Molecular mass:    68.03745 amu.
 Principal axes and moments of inertia in atomic units:
                           1         2         3
     EIGENVALUES --   185.63270 193.42495 379.05765
           X             .46479    .88542    .00000
           Y             .88542   -.46479    .00000
           Z             .00000    .00000   1.00000
 THIS MOLECULE IS AN ASYMMETRIC TOP.
 ROTATIONAL SYMMETRY NUMBER  1.
 ROTATIONAL TEMPERATURES (KELVIN)       .46658      .44779      .22850
 ROTATIONAL CONSTANTS (GHZ)            9.72211     9.33045     4.76113
 Zero-point vibrational energy     186019.8 (Joules/Mol)
                                   44.45979 (Kcal/Mol)
 WARNING-- EXPLICIT CONSIDERATION OF   1 DEGREES OF FREEDOM AS
           VIBRATIONS MAY CAUSE SIGNIFICANT ERROR
 VIBRATIONAL TEMPERATURES:    746.96   930.86   981.40  1046.14  1161.95
          (KELVIN)           1243.71  1298.12  1350.76  1539.63  1564.80
                             1634.79  1688.61  1824.93  1968.35  2074.33
                             2164.36  2240.76  4662.91  4670.81  4715.44
                             5236.18
 
 Zero-point correction=                            .070851 (Hartree/Particle)
 Thermal correction to Energy=                     .074621
 Thermal correction to Enthalpy=                   .075565
 Thermal correction to Gibbs Free Energy=          .044573
 Sum of electronic and zero-point Energies=           -226.161146
 Sum of electronic and thermal Energies=              -226.157377
 Sum of electronic and thermal Enthalpies=            -226.156432
 Sum of electronic and thermal Free Energies=         -226.187425
 
                     E (Thermal)             CV                S
                      KCAL/MOL        CAL/MOL-KELVIN    CAL/MOL-KELVIN
 TOTAL                   46.825             13.460             65.229
 ELECTRONIC                .000               .000               .000
 TRANSLATIONAL             .889              2.981             38.570
 ROTATIONAL                .889              2.981             24.124
 VIBRATIONAL             45.048              7.498              2.534
 VIBRATION  1              .874              1.208               .612
                       Q            LOG10(Q)             LN(Q)
 TOTAL BOT        .314856D-20        -20.501887        -47.207340
 TOTAL V=0        .122229D+13         12.087173         27.831744
 VIB (BOT)        .341778D-32        -32.466255        -74.756316
 VIB (BOT)  1     .311147D+00          -.507034         -1.167489
 VIB (V=0)        .132680D+01           .122805           .282769
 VIB (V=0)  1     .108891D+01           .036991           .085175
 ELECTRONIC       .100000D+01           .000000           .000000
 TRANSLATIONAL    .220588D+08          7.343582         16.909224
 ROTATIONAL       .417624D+05          4.620785         10.639752
 ***** Axes restored to original set *****
 -------------------------------------------------------------------
 Center     Atomic                   Forces (Hartrees/Bohr)
 Number     Number              X              Y              Z
 -------------------------------------------------------------------
    1          7            .000260160     .000000000     .000157118
    2          1           -.000022321     .000000000     .000020061
    3          6            .000227066     .000000000    -.000192418
    4          1           -.000006218     .000000000     .000029863
    5          6           -.000373574     .000000000     .000016418
    6          1            .000053201     .000000000     .000007489
    7          1            .000006949     .000000000    -.000000284
    8          6           -.000165618     .000000000    -.000241159
    9          7            .000020354     .000000000     .000202912
 -------------------------------------------------------------------
 Cartesian Forces:  Max      .000373574 RMS      .000129489

 GradGradGradGradGradGradGradGradGradGradGradGradGradGradGradGradGradGrad
 Berny optimization.
 Internal  Forces:  Max      .000231861 RMS      .000065945
 Search for a local minimum.
 Step number   1 out of a maximum of  48
 All quantities printed in internal units (Hartrees-Bohrs-Radians)
 Second derivative matrix not updated -- analytic derivatives used.
     Eigenvalues ---     .00523    .01097    .02003    .02731    .05967
     Eigenvalues ---     .06220    .09549    .10198    .10726    .11604
     Eigenvalues ---     .22907    .24551    .34741    .36954    .37211
     Eigenvalues ---     .37617    .40782    .44619    .47032    .47685
     Eigenvalues ---     .578871000.000001000.000001000.000001000.00000
     Eigenvalues --- 1000.000001000.000001000.000001000.000001000.00000
     Eigenvalues --- 1000.000001000.000001000.000001000.000001000.00000
     Eigenvalues --- 1000.000001000.000001000.00000
 Angle between quadratic step and forces=  26.73 degrees.
 Linear search not attempted -- first point.
 Iteration  1 RMS(Cart)=   .00016679 RMS(Int)=   .00000003
 Iteration  2 RMS(Cart)=   .00000004 RMS(Int)=   .00000000
 Variable       Old X    -DE/DX   Delta X   Delta X   Delta X     New X
                                 (Linear)    (Quad)   (Total)
    R1        2.60488    .00023    .00000    .00078    .00078   2.60567
    R2        2.48989    .00007    .00000    .00014    .00014   2.49003
    R3        1.91217   -.00002    .00000   -.00005   -.00005   1.91212
    R4        2.05188   -.00001    .00000   -.00002   -.00002   2.05185
    R5        2.60138    .00007    .00000    .00011    .00011   2.60149
    R6        2.60873   -.00015    .00000   -.00043   -.00043   2.60830
    R7        2.05626   -.00003    .00000   -.00012   -.00012   2.05614
    R8        2.05661    .00001    .00000    .00003    .00003   2.05664
    R9        2.58547   -.00019    .00000   -.00052   -.00052   2.58495
    A1        1.83557   -.00009    .00000   -.00028   -.00028   1.83529
    A2        2.31845   -.00005    .00000   -.00044   -.00044   2.31801
    A3        2.13279    .00001    .00000    .00025    .00025   2.13304
    A4        1.83195    .00005    .00000    .00018    .00018   1.83213
    A5        1.93453   -.00009    .00000   -.00029   -.00029   1.93424
    A6        2.11871    .00000    .00000   -.00037   -.00037   2.11835
    A7        2.22994    .00009    .00000    .00065    .00065   2.23060
    A8        2.19812   -.00004    .00000   -.00019   -.00019   2.19792
    A9        1.95093    .00007    .00000    .00023    .00023   1.95115
   A10        2.13414   -.00003    .00000   -.00003   -.00003   2.13411
   A11        2.20409   -.00005    .00000   -.00024   -.00024   2.20386
   A12        2.20729   -.00002    .00000    .00008    .00008   2.20737
   A13        1.87180    .00007    .00000    .00016    .00016   1.87196
    D1         .00000    .00000    .00000    .00000    .00000    .00000
    D2        3.14159    .00000    .00000    .00000    .00000   3.14159
    D3        3.14159    .00000    .00000    .00000    .00000   3.14159
    D4         .00000    .00000    .00000    .00000    .00000    .00000
    D5        3.14159    .00000    .00000    .00000    .00000   3.14159
    D6         .00000    .00000    .00000    .00000    .00000    .00000
    D7         .00000    .00000    .00000    .00000    .00000    .00000
    D8        3.14159    .00000    .00000    .00000    .00000   3.14159
    D9         .00000    .00000    .00000    .00000    .00000    .00000
   D10        3.14159    .00000    .00000    .00000    .00000   3.14159
   D11        3.14159    .00000    .00000    .00000    .00000   3.14159
   D12         .00000    .00000    .00000    .00000    .00000    .00000
   D13        3.14159    .00000    .00000    .00000    .00000   3.14159
   D14         .00000    .00000    .00000    .00000    .00000    .00000
   D15         .00000    .00000    .00000    .00000    .00000    .00000
   D16        3.14159    .00000    .00000    .00000    .00000   3.14159
         Item               Value     Threshold  Converged?
 Maximum Force             .000232      .000450     YES
 RMS     Force             .000066      .000300     YES
 Maximum Displacement      .000499      .001800     YES
 RMS     Displacement      .000167      .001200     YES
 Predicted change in Energy=-2.759576D-07
 Optimization completed.
    -- Stationary point found.
                         ----------------------------
                         !   Optimized Parameters   !
                         ! (Angstroms and Degrees)  !
 ------------------------                            -------------------------
 ! Name  Definition              Value          Derivative Info.             !
 -----------------------------------------------------------------------------
 ! R1    R(1,5)                  1.3784         -DE/DX =    0.0002           !
 ! R2    R(1,8)                  1.3176         -DE/DX =    0.0001           !
 ! R3    R(2,9)                  1.0119         -DE/DX =    0.               !
 ! R4    R(3,4)                  1.0858         -DE/DX =    0.               !
 ! R5    R(3,5)                  1.3766         -DE/DX =    0.0001           !
 ! R6    R(3,9)                  1.3805         -DE/DX =   -0.0001           !
 ! R7    R(5,6)                  1.0881         -DE/DX =    0.               !
 ! R8    R(7,8)                  1.0883         -DE/DX =    0.               !
 ! R9    R(8,9)                  1.3682         -DE/DX =   -0.0002           !
 ! A1    A(5,1,8)              105.1706         -DE/DX =   -0.0001           !
 ! A2    A(4,3,5)              132.8371         -DE/DX =   -0.0001           !
 ! A3    A(4,3,9)              122.1999         -DE/DX =    0.               !
 ! A4    A(5,3,9)              104.963          -DE/DX =    0.               !
 ! A5    A(1,5,3)              110.8404         -DE/DX =   -0.0001           !
 ! A6    A(1,5,6)              121.3932         -DE/DX =    0.               !
 ! A7    A(3,5,6)              127.7664         -DE/DX =    0.0001           !
 ! A8    A(1,8,7)              125.9427         -DE/DX =    0.               !
 ! A9    A(1,8,9)              111.7798         -DE/DX =    0.0001           !
 ! A10   A(7,8,9)              122.2775         -DE/DX =    0.               !
 ! A11   A(2,9,3)              126.2852         -DE/DX =    0.               !
 ! A12   A(2,9,8)              126.4686         -DE/DX =    0.               !
 ! A13   A(3,9,8)              107.2462         -DE/DX =    0.0001           !
 ! D1    D(8,1,5,3)              0.             -DE/DX =    0.               !
 ! D2    D(8,1,5,6)            180.             -DE/DX =    0.               !
 ! D3    D(5,1,8,7)            180.             -DE/DX =    0.               !
 ! D4    D(5,1,8,9)              0.             -DE/DX =    0.               !
 ! D5    D(4,3,5,1)            180.             -DE/DX =    0.               !
 ! D6    D(4,3,5,6)              0.             -DE/DX =    0.               !
 ! D7    D(9,3,5,1)              0.             -DE/DX =    0.               !
 ! D8    D(9,3,5,6)            180.             -DE/DX =    0.               !
 ! D9    D(4,3,9,2)              0.             -DE/DX =    0.               !
 ! D10   D(4,3,9,8)            180.             -DE/DX =    0.               !
 ! D11   D(5,3,9,2)            180.             -DE/DX =    0.               !
 ! D12   D(5,3,9,8)              0.             -DE/DX =    0.               !
 ! D13   D(1,8,9,2)            180.             -DE/DX =    0.               !
 ! D14   D(1,8,9,3)              0.             -DE/DX =    0.               !
 ! D15   D(7,8,9,2)              0.             -DE/DX =    0.               !
 ! D16   D(7,8,9,3)            180.             -DE/DX =    0.               !
 -----------------------------------------------------------------------------
 GradGradGradGradGradGradGradGradGradGradGradGradGradGradGradGradGradGrad

 1\1\ NATIONAL INSTITUTE OF STANDARDS AND TECHNOLOGY-GRAND43\Freq\RB3LY
 P\CC-pVDZ\C3H4N2\ROOT\04-Aug-2000\0\\#N GEOM=ALLCHECK GUESS=TCHECK RB3
 LYP/CC-PVDZ FREQ\\1H imidazole C3H4N2 casno=288324\\0,1\N,0.4990485749
 ,0.,1.1320617767\H,0.4924132034,0.,-2.0608430574\C,-1.0235621822,0.,-0
 .5492890413\H,-1.909950276,0.,-1.1764193026\C,-0.8425172191,0.,0.81534
 53309\H,-1.6075799201,0.,1.5890995734\H,2.2058393334,0.,-0.1682142233\
 C,1.1268138015,0.,-0.0263683449\N,0.2516473192,0.,-1.0780261566\\Versi
 on=IBM-RS6000-G98RevA.7\State=1-A'\HF=-226.2319975\RMSD=1.352e-09\RMSF
 =1.295e-04\Dipole=-0.0723185,0.,-1.4296751\DipoleDeriv=-0.3664027,-0.0
 00069,-0.0421116,0.0000074,-0.2906148,-0.0000059,-0.0305104,-0.0000277
 ,-0.5735389,0.168854,0.0000113,-0.0078753,0.0000014,0.3041183,-0.00002
 18,-0.0111416,-0.0000049,0.1904941,-0.0124113,-0.0000541,-0.2494729,-0
 .0000061,-0.1306594,0.0000282,-0.0347031,0.0000957,0.173323,0.0213267,
 0.0000041,-0.0405641,0.0000109,0.1670972,-0.0000048,-0.0673323,-0.0000
 136,0.0363748,0.1769407,0.0000144,-0.039493,-0.0000153,-0.1104863,-0.0
 000244,-0.0650608,-0.0000245,0.1357856,-0.0056692,0.0000409,0.0621997,
 0.0000034,0.1323205,0.0000046,0.0781903,-0.0000386,0.0295644,-0.020813
 4,0.0000021,0.0365721,0.0000257,0.1460761,-0.0000324,0.0347861,-0.0000
 035,0.0651573,0.1048407,0.0000309,0.1003367,-0.0000632,-0.0056262,0.00
 00776,0.0148782,0.0000667,0.5130034,-0.0666618,0.0000195,0.1804087,0.0
 000358,-0.2122224,-0.0000211,0.0808955,-0.0000495,-0.5701592\Polar=50.
 7339568,0.0043307,19.8293572,-0.9886505,-0.0020921,46.6008358\PG=CS [S
 G(C3H4N2)]\NImag=0\\0.49176880,-0.00000028,0.10378381,-0.05512804,0.00
 000040,0.57336613,-0.00293552,-0.00000035,-0.00783514,0.07971249,0.000
 00021,0.00688683,0.00000087,0.,0.01129668,-0.00304025,0.00000024,-0.00
 353643,-0.09646063,0.00000007,0.44664504,-0.03295902,-0.00000019,-0.01
 343632,0.00797043,0.00000081,-0.00424344,0.74252933,-0.00000009,0.0173
 9368,0.00000001,0.00000005,-0.00743967,-0.00000018,-0.00000100,0.10922
 824,-0.08733555,-0.00000079,-0.02008872,0.02685703,0.00000043,-0.00060
 621,0.16045636,-0.00000020,0.73515931,0.00152237,-0.00000022,0.0009794
 0,0.00029080,0.00000018,-0.00009860,-0.25411444,0.00000005,-0.14021904
 ,0.26787081,0.00000007,0.00690346,-0.00000034,-0.00000001,-0.00133247,
 0.00000005,0.00000020,-0.02070128,-0.00000011,0.00000009,0.01820873,-0
 .00404016,-0.00000015,-0.00547199,-0.00092044,0.00000016,0.00022718,-0
 .15049894,-0.00000002,-0.16432033,0.15374381,0.00000009,0.15663058,-0.
 25918484,0.00000009,-0.04000137,-0.00844326,-0.00000072,-0.00113909,-0
 .09756377,0.00000050,-0.01828238,0.00460032,0.00000016,-0.02136298,0.6
 5876078,0.00000023,-0.07013378,0.00000031,0.00000010,0.00245318,0.0000
 0009,0.00000105,-0.06559155,0.00000090,0.00000024,-0.00146019,0.000000
 22,-0.00000091,0.13272990,-0.04945532,0.00000095,-0.11115019,0.0034301
 0,-0.00000099,0.00044704,-0.03714801,0.00000048,-0.38911944,0.00182635
 ,-0.00000012,0.00338968,-0.15453870,-0.00000152,0.79043522,-0.01897934
 ,-0.00000009,0.02022724,0.00078856,0.00000010,-0.00002844,0.00801187,-
 0.00000010,-0.00573340,-0.00022185,-0.00000010,0.00070789,-0.19150159,
 0.00000025,0.14688291,0.20747306,0.00000003,-0.00524509,-0.00000028,-0
 .00000001,0.00201005,0.00000001,-0.00000027,-0.00032671,-0.00000019,-0
 .00000014,-0.00213175,-0.00000009,0.00000017,-0.02856379,0.00000047,-0
 .00000004,0.02283235,-0.00625833,-0.00000003,0.01165641,0.00119576,0.0
 0000011,0.00024916,0.02038063,-0.00000004,-0.00715062,-0.00049623,0.00
 000011,-0.00001619,0.14876267,0.00000005,-0.21516118,-0.15864462,-0.00
 000005,0.21446228,-0.00856581,-0.00000050,0.00352866,-0.00049632,0.000
 00005,-0.00032576,0.00121598,0.00000044,-0.00334772,-0.00028880,-0.000
 00013,0.00039997,0.00128455,0.00000013,0.00259412,-0.00027134,-0.00000
 007,-0.00023570,0.36535751,0.00000057,-0.00539841,0.00000095,-0.000000
 15,-0.00136358,0.00000018,0.00000088,0.00263887,-0.00000063,-0.0000000
 8,0.00184718,0.00000008,-0.00000078,0.00700224,-0.00000006,-0.00000013
 ,0.00114680,0.00000024,-0.00000013,0.02049879,0.02846329,0.00000015,0.
 00080087,0.00048532,0.00000014,0.00038475,-0.00105282,-0.00000015,-0.0
 0570264,-0.00102789,0.00000001,0.00098406,0.00297496,0.00000008,-0.004
 26872,0.00131932,-0.00000001,0.00064784,-0.03926571,0.00000012,0.06037
 412,-0.16484934,0.00000090,0.11750671,0.01794004,-0.00000032,0.0148088
 2,-0.09315152,-0.00000004,0.00420016,-0.00291234,-0.00000007,0.0041739
 0,-0.09112600,-0.00000047,0.01631604,-0.00587805,0.00000002,-0.0033766
 3,-0.34542011,0.00000004,0.03688696,0.89146808,-0.00000131,-0.07581764
 ,-0.00000092,0.00000044,-0.00876662,-0.00000085,-0.00000162,0.01635585
 ,0.00000193,0.00000035,0.00276872,-0.00000010,0.00000116,0.01000357,-0
 .00000087,0.00000042,0.00540507,-0.00000054,0.00000084,-0.02433052,-0.
 00000032,-0.00000021,0.13278822,0.14106112,-0.00000017,-0.33941017,-0.
 01553437,-0.00000150,-0.00893821,-0.04648910,0.00000093,-0.01121487,0.
 00406167,0.00000011,-0.00514410,0.07694179,-0.00000103,-0.00165416,-0.
 00195612,0.00000027,0.00058177,0.03195158,-0.00000131,-0.06018053,-0.0
 8564835,0.00000212,0.63877737,-0.00581729,0.00000064,-0.02584112,-0.09
 482721,-0.00000030,0.09052739,-0.28193885,0.00000020,0.06340449,-0.016
 74685,-0.00000021,0.01779698,-0.01682624,-0.00000061,0.07009255,0.0005
 7870,0.00000030,-0.00132758,-0.01281565,-0.00000021,-0.02878342,-0.206
 07077,-0.00000008,-0.10438821,0.63446411,0.00000061,0.02162712,-0.0000
 0100,-0.00000005,-0.00374442,0.00000040,0.00000013,-0.05155740,-0.0000
 0134,-0.00000047,-0.00410243,-0.00000018,0.00000032,0.01356046,0.00000
 163,-0.00000031,0.00487305,0.00000016,-0.00000064,-0.00204139,-0.00000
 002,0.00000015,-0.05840663,0.00000059,0.00000025,0.07979164,0.03573325
 ,-0.00000058,-0.10616584,0.08878234,0.00000071,-0.43487222,0.07203162,
 -0.00000083,-0.13695647,-0.01876942,0.00000022,0.01372116,0.00664508,0
 .00000092,-0.07291830,-0.00277476,-0.00000016,-0.00526945,0.00470054,0
 .00000042,0.00696025,-0.10486755,-0.00000044,-0.21281712,-0.08148112,-
 0.00000026,0.94831786\\-0.00026016,0.,-0.00015712,0.00002232,0.,-0.000
 02006,-0.00022707,0.,0.00019242,0.00000622,0.,-0.00002986,0.00037357,0
 .,-0.00001642,-0.00005320,0.,-0.00000749,-0.00000695,0.,0.00000028,0.0
 0016562,0.,0.00024116,-0.00002035,0.,-0.00020291\\\@


 CHARLIE BROWN -- WHICH DO YOU THINK LASTS LONGER IN LIFE, THE GOOD THINGS 
                  OR THE BAD THINGS?
 LINUS --         GOOD THINGS LAST EIGHT SECONDS ..
                  BAD THINGS LAST THREE WEEKS
 CHARLIE BROWN -- WHAT ABOUT IN BETWEEN?
 SNOOPY --        IN BETWEEN YOU SHOULD TAKE A NAP ...
 Job cpu time:  0 days  0 hours  0 minutes 10.4 seconds.
 File lengths (MBytes):  RWF=   14 Int=    0 D2E=    0 Chk=    3 Scr=    1
 Normal termination of Gaussian 98.
