 Entering Gaussian System, Link 0=g98
 Initial command:
 /usr/local/apps/g98/g98/l1.exe /wrk/rdj3/Gau-13956.inp -scrdir=/wrk/rdj3/
 Entering Link 1 = /usr/local/apps/g98/g98/l1.exe PID=     12166.
  
 Copyright (c) 1988,1990,1992,1993,1995,1998 Gaussian, Inc.
                  All Rights Reserved.
  
 This is part of the Gaussian(R) 98 program.  It is based on
 the Gaussian 94(TM) system (copyright 1995 Gaussian, Inc.),
 the Gaussian 92(TM) system (copyright 1992 Gaussian, Inc.),
 the Gaussian 90(TM) system (copyright 1990 Gaussian, Inc.),
 the Gaussian 88(TM) system (copyright 1988 Gaussian, Inc.),
 the Gaussian 86(TM) system (copyright 1986 Carnegie Mellon
 University), and the Gaussian 82(TM) system (copyright 1983
 Carnegie Mellon University). Gaussian is a federally registered
 trademark of Gaussian, Inc.
  
 This software contains proprietary and confidential information,
 including trade secrets, belonging to Gaussian, Inc.
  
 This software is provided under written license and may be
 used, copied, transmitted, or stored only in accord with that
 written license.
  
 The following legend is applicable only to US Government
 contracts under DFARS:
  
                    RESTRICTED RIGHTS LEGEND
  
 Use, duplication or disclosure by the US Government is subject
 to restrictions as set forth in subparagraph (c)(1)(ii) of the
 Rights in Technical Data and Computer Software clause at DFARS
 252.227-7013.
  
 Gaussian, Inc.
 Carnegie Office Park, Building 6, Pittsburgh, PA 15106 USA
  
 The following legend is applicable only to US Government
 contracts under FAR:
  
                    RESTRICTED RIGHTS LEGEND
  
 Use, reproduction and disclosure by the US Government is subject
 to restrictions as set forth in subparagraph (c) of the
 Commercial Computer Software - Restricted Rights clause at FAR
 52.227-19.
  
 Gaussian, Inc.
 Carnegie Office Park, Building 6, Pittsburgh, PA 15106 USA
  
  
 ---------------------------------------------------------------
 Warning -- This program may not be used in any manner that
 competes with the business of Gaussian, Inc. or will provide
 assistance to any competitor of Gaussian, Inc.  The licensee
 of this program is prohibited from giving any competitor of
 Gaussian, Inc. access to this program.  By using this program,
 the user acknowledges that Gaussian, Inc. is engaged in the
 business of creating and licensing software in the field of
 computational chemistry and represents and warrants to the
 licensee that it is not a competitor of Gaussian, Inc. and that
 it will not use this program in any manner prohibited above.
 ---------------------------------------------------------------
  

 Cite this work as:
 Gaussian 98, Revision A.4,
 M. J. Frisch, G. W. Trucks, H. B. Schlegel, G. E. Scuseria, 
 M. A. Robb, J. R. Cheeseman, V. G. Zakrzewski, J. A. Montgomery, Jr., 
 R. E. Stratmann, J. C. Burant, S. Dapprich, J. M. Millam, 
 A. D. Daniels, K. N. Kudin, M. C. Strain, O. Farkas, J. Tomasi, 
 V. Barone, M. Cossi, R. Cammi, B. Mennucci, C. Pomelli, C. Adamo, 
 S. Clifford, J. Ochterski, G. A. Petersson, P. Y. Ayala, Q. Cui, 
 K. Morokuma, D. K. Malick, A. D. Rabuck, K. Raghavachari, 
 J. B. Foresman, J. Cioslowski, J. V. Ortiz, B. B. Stefanov, G. Liu, 
 A. Liashenko, P. Piskorz, I. Komaromi, R. Gomperts, R. L. Martin, 
 D. J. Fox, T. Keith, M. A. Al-Laham, C. Y. Peng, A. Nanayakkara, 
 C. Gonzalez, M. Challacombe, P. M. W. Gill, B. Johnson, W. Chen, 
 M. W. Wong, J. L. Andres, C. Gonzalez, M. Head-Gordon, 
 E. S. Replogle, and J. A. Pople, 
 Gaussian, Inc., Pittsburgh PA, 1998.

 **********************************************
 Gaussian 98:  IBM-RS6000-G98RevA.4 11-Sep-1998
                   9-Mar-2000 
 **********************************************
 %mem=24000000
 -----------------------
 #B3LYP/6-311G* opt freq
 -----------------------
 1/14=-1,18=20,26=3,38=1/1,3;
 2/9=110,17=6,18=5/2;
 3/5=4,6=6,7=1,11=2,25=1,30=1/1,2,3;
 4//1;
 5/5=2,38=4,42=-5/2;
 6/7=2,8=2,9=2,10=2,28=1/1;
 7//1,2,3,16;
 1/14=-1,18=20/3(1);
 99//99;
 2/9=110/2;
 3/5=4,6=6,7=1,11=2,25=1,30=1/1,2,3;
 4/5=5,16=2/1;
 5/5=2,38=4,42=-5/2;
 7//1,2,3,16;
 1/14=-1,18=20/3(-5);
 2/9=110/2;
 6/7=2,8=2,9=2,10=2,19=2,28=1/1;
 99/9=1/99;
 --------------------------------
 1H imidazole C3H4N2 casno=288324
 --------------------------------
 Symbolic Z-matrix:
 Charge =  0 Multiplicity = 1
 N                     0.30938   0.        1.30938 
 H                     0.3125    0.       -1.6875 
 C                    -1.06875   0.       -0.28438 
 H                    -1.91875   0.       -0.79063 
 C                    -0.93438   0.        1.02812 
 H                    -1.675     0.        1.6875 
 H                     1.91875   0.        0.09063 
 C                     0.93438   0.        0.19063 
 N                     0.09688   0.       -0.775 

 GradGradGradGradGradGradGradGradGradGradGradGradGradGradGradGradGradGrad
 Berny optimization.
 Initialization pass.
                         ----------------------------
                         !    Initial Parameters    !
                         ! (Angstroms and Degrees)  !
 ------------------------                            -------------------------
 ! Name  Definition              Value          Derivative Info.             !
 -----------------------------------------------------------------------------
 ! R1    R(1,5)                  1.2752         estimate D2E/DX2             !
 ! R2    R(1,8)                  1.2815         estimate D2E/DX2             !
 ! R3    R(2,9)                  0.9376         estimate D2E/DX2             !
 ! R4    R(3,4)                  0.9893         estimate D2E/DX2             !
 ! R5    R(3,5)                  1.3194         estimate D2E/DX2             !
 ! R6    R(3,9)                  1.2647         estimate D2E/DX2             !
 ! R7    R(5,6)                  0.9916         estimate D2E/DX2             !
 ! R8    R(7,8)                  0.9894         estimate D2E/DX2             !
 ! R9    R(8,9)                  1.2782         estimate D2E/DX2             !
 ! A1    A(5,1,8)              106.4483         estimate D2E/DX2             !
 ! A2    A(4,3,5)              126.6232         estimate D2E/DX2             !
 ! A3    A(4,3,9)              126.3957         estimate D2E/DX2             !
 ! A4    A(5,3,9)              106.9812         estimate D2E/DX2             !
 ! A5    A(1,5,3)              108.5877         estimate D2E/DX2             !
 ! A6    A(1,5,6)              125.5794         estimate D2E/DX2             !
 ! A7    A(3,5,6)              125.8329         estimate D2E/DX2             !
 ! A8    A(1,8,7)              124.9909         estimate D2E/DX2             !
 ! A9    A(1,8,9)              109.8741         estimate D2E/DX2             !
 ! A10   A(7,8,9)              125.1349         estimate D2E/DX2             !
 ! A11   A(2,9,3)              126.122          estimate D2E/DX2             !
 ! A12   A(2,9,8)              125.7693         estimate D2E/DX2             !
 ! A13   A(3,9,8)              108.1088         estimate D2E/DX2             !
 ! D1    D(8,1,5,3)              0.             estimate D2E/DX2             !
 ! D2    D(8,1,5,6)            180.             estimate D2E/DX2             !
 ! D3    D(5,1,8,7)            180.             estimate D2E/DX2             !
 ! D4    D(5,1,8,9)              0.             estimate D2E/DX2             !
 ! D5    D(4,3,5,1)            180.             estimate D2E/DX2             !
 ! D6    D(4,3,5,6)              0.             estimate D2E/DX2             !
 ! D7    D(9,3,5,1)              0.             estimate D2E/DX2             !
 ! D8    D(9,3,5,6)            180.             estimate D2E/DX2             !
 ! D9    D(4,3,9,2)              0.             estimate D2E/DX2             !
 ! D10   D(4,3,9,8)            180.             estimate D2E/DX2             !
 ! D11   D(5,3,9,2)            180.             estimate D2E/DX2             !
 ! D12   D(5,3,9,8)              0.             estimate D2E/DX2             !
 ! D13   D(1,8,9,2)            180.             estimate D2E/DX2             !
 ! D14   D(1,8,9,3)              0.             estimate D2E/DX2             !
 ! D15   D(7,8,9,2)              0.             estimate D2E/DX2             !
 ! D16   D(7,8,9,3)            180.             estimate D2E/DX2             !
 -----------------------------------------------------------------------------
 Trust Radius=3.00D-01 FncErr=1.00D-07 GrdErr=1.00D-06
 Number of steps in this run=  48 maximum allowed number of steps= 100.
 GradGradGradGradGradGradGradGradGradGradGradGradGradGradGradGradGradGrad

                          Input orientation:                          
 ---------------------------------------------------------------------
 Center     Atomic     Atomic              Coordinates (Angstroms)
 Number     Number      Type              X           Y           Z
 ---------------------------------------------------------------------
    1          7             0        0.309375    0.000000    1.309375
    2          1             0        0.312500    0.000000   -1.687500
    3          6             0       -1.068750    0.000000   -0.284375
    4          1             0       -1.918750    0.000000   -0.790625
    5          6             0       -0.934375    0.000000    1.028125
    6          1             0       -1.675000    0.000000    1.687500
    7          1             0        1.918750    0.000000    0.090625
    8          6             0        0.934375    0.000000    0.190625
    9          7             0        0.096875    0.000000   -0.775000
 ---------------------------------------------------------------------
                    Distance matrix (angstroms):
                    1          2          3          4          5
     1  N    0.000000
     2  H    2.996877   0.000000
     3  C    2.106957   1.968911   0.000000
     4  H    3.061787   2.404758   0.989338   0.000000
     5  C    1.275153   2.988196   1.319361   2.068054   0.000000
     6  H    2.020080   3.916731   2.062966   2.490084   0.991615
     7  H    2.018772   2.396199   3.010944   3.937386   3.003203
     8  C    1.281494   1.978404   2.058673   3.017147   2.047836
     9  N    2.095179   0.937630   1.264672   2.015686   2.077194
                    6          7          8          9
     6  H    0.000000
     7  H    3.932563   0.000000
     8  C    3.008234   0.989441   0.000000
     9  N    3.033718   2.017061   1.278217   0.000000
 Stoichiometry    C3H4N2
 Framework group  CS[SG(C3H4N2)]
 Deg. of freedom   15
 Full point group                 CS      NOp   2
 Largest Abelian subgroup         CS      NOp   2
 Largest concise Abelian subgroup C1      NOp   1
                         Standard orientation:                         
 ---------------------------------------------------------------------
 Center     Atomic     Atomic              Coordinates (Angstroms)
 Number     Number      Type              X           Y           Z
 ---------------------------------------------------------------------
    1          7             0       -0.674969   -0.941702    0.000000
    2          1             0       -0.005288    1.979393    0.000000
    3          6             0        1.025744    0.302019    0.000000
    4          1             0        1.967693    0.604544    0.000000
    5          6             0        0.600174   -0.946822    0.000000
    6          1             0        1.173884   -1.755622    0.000000
    7          1             0       -1.969692    0.607211    0.000000
    8          6             0       -1.032886    0.288794    0.000000
    9          7             0        0.000000    1.041778    0.000000
 ---------------------------------------------------------------------
 Rotational constants (GHZ):     11.1543393     10.4769603      5.4025219
 Isotopes: N-14,H-1,C-12,H-1,C-12,H-1,H-1,C-12,N-14
 Standard basis: 6-311G(d) (5D, 7F)
 There are    77 symmetry adapted basis functions of A'  symmetry.
 There are    25 symmetry adapted basis functions of A"  symmetry.
 Crude estimate of integral set expansion from redundant integrals=1.000.
 Integral buffers will be    262144 words long.
 Raffenetti 2 integral format.
 Two-electron integral symmetry is turned on.
   102 basis functions      180 primitive gaussians
    18 alpha electrons       18 beta electrons
       nuclear repulsion energy       173.5664837334 Hartrees.
 One-electron integrals computed using PRISM.
 NBasis=   102 RedAO= T  NBF=    77    25
 NBsUse=   102 1.00D-04 NBFU=    77    25
 Projected INDO Guess.
 Initial guess orbital symmetries:
       Occupied  (A') (A') (A') (A') (A') (A') (A') (A') (A') (A')
                 (A') (A") (A') (A') (A') (A") (A') (A")
       Virtual   (A") (A') (A') (A") (A') (A') (A') (A') (A') (A')
                 (A') (A') (A') (A') (A') (A') (A') (A') (A') (A')
                 (A') (A') (A') (A') (A') (A') (A') (A') (A') (A')
                 (A') (A') (A') (A') (A') (A') (A') (A') (A') (A')
                 (A') (A') (A') (A') (A') (A') (A') (A') (A') (A')
                 (A') (A') (A') (A') (A') (A') (A') (A') (A') (A')
                 (A') (A') (A') (A') (A") (A") (A") (A") (A") (A")
                 (A") (A") (A") (A") (A") (A") (A") (A") (A") (A")
                 (A") (A") (A") (A")
 Requested convergence on RMS density matrix=1.00D-08 within  64 cycles.
 Requested convergence on MAX density matrix=1.00D-06.
 Integral accuracy reduced to 1.0D-05 until final iterations.
 Initial convergence to 1.0D-05 achieved.  Increase integral accuracy.
 SCF Done:  E(RB+HF-LYP) =  -226.206017996     A.U. after   14 cycles
             Convg  =    0.1745D-08             -V/T =  1.9959
             S**2   =   0.0000

 **********************************************************************

            Population analysis using the SCF density.

 **********************************************************************

 Orbital Symmetries:
       Occupied  (A') (A') (A') (A') (A') (A') (A') (A') (A') (A')
                 (A') (A") (A') (A') (A') (A") (A') (A")
       Virtual   (A') (A") (A') (A") (A') (A') (A') (A') (A') (A')
                 (A') (A") (A') (A') (A") (A') (A") (A') (A') (A')
                 (A') (A') (A") (A') (A') (A') (A") (A') (A') (A')
                 (A') (A') (A') (A") (A') (A") (A") (A') (A') (A")
                 (A") (A') (A') (A') (A') (A') (A') (A") (A') (A')
                 (A') (A") (A') (A") (A") (A') (A') (A") (A') (A")
                 (A') (A") (A') (A") (A') (A') (A') (A') (A') (A')
                 (A') (A') (A") (A") (A') (A') (A') (A') (A') (A')
                 (A') (A') (A') (A')
  The electronic state is 1-A'.
 Alpha  occ. eigenvalues --  -14.36195 -14.26196 -10.19047 -10.16277 -10.14448
 Alpha  occ. eigenvalues --   -1.07802  -0.90400  -0.76724  -0.65298  -0.61608
 Alpha  occ. eigenvalues --   -0.59460  -0.46949  -0.46904  -0.44538  -0.42574
 Alpha  occ. eigenvalues --   -0.29803  -0.25420  -0.22903
 Alpha virt. eigenvalues --    0.03573   0.04963   0.08811   0.09237   0.10109
 Alpha virt. eigenvalues --    0.12279   0.20972   0.23575   0.27621   0.29312
 Alpha virt. eigenvalues --    0.36796   0.38976   0.39722   0.41907   0.44055
 Alpha virt. eigenvalues --    0.45053   0.48984   0.51754   0.56559   0.61254
 Alpha virt. eigenvalues --    0.63741   0.65292   0.65910   0.68172   0.71460
 Alpha virt. eigenvalues --    0.72773   0.74734   0.79992   0.80556   0.83716
 Alpha virt. eigenvalues --    0.95568   0.97883   1.02953   1.05204   1.15796
 Alpha virt. eigenvalues --    1.22533   1.26392   1.26413   1.27895   1.38719
 Alpha virt. eigenvalues --    1.51088   1.60293   1.69073   1.75254   1.79051
 Alpha virt. eigenvalues --    1.84453   1.87040   1.92430   2.01364   2.07981
 Alpha virt. eigenvalues --    2.24504   2.27846   2.28696   2.29778   2.39331
 Alpha virt. eigenvalues --    2.54677   2.65678   2.68052   2.68282   2.70460
 Alpha virt. eigenvalues --    2.81610   2.82630   2.82878   2.94589   2.94895
 Alpha virt. eigenvalues --    3.24445   3.29938   3.42106   3.44831   3.50958
 Alpha virt. eigenvalues --    3.65759   3.73768   3.78341   3.87693   3.88560
 Alpha virt. eigenvalues --    4.44104   4.57345   4.82381   5.27583  23.79045
 Alpha virt. eigenvalues --   23.97675  24.35859  35.55764  35.81283
          Condensed to atoms (all electrons):
              1          2          3          4          5          6
  1  N    6.338446   0.009615  -0.136556   0.008997   0.568648  -0.021509
  2  H    0.009615   0.394718  -0.043994  -0.002343   0.010425  -0.000290
  3  C   -0.136556  -0.043994   5.111199   0.371340   0.600732  -0.056940
  4  H    0.008997  -0.002343   0.371340   0.438875  -0.024576   0.001959
  5  C    0.568648   0.010425   0.600732  -0.024576   4.898399   0.411372
  6  H   -0.021509  -0.000290  -0.056940   0.001959   0.411372   0.440304
  7  H   -0.020076  -0.003040   0.005377  -0.000481   0.007034  -0.000478
  8  C    0.621771  -0.038169  -0.149000   0.006726  -0.205836   0.009048
  9  N   -0.100232   0.326307   0.424838  -0.030279  -0.079224   0.003726
              7          8          9
  1  N   -0.020076   0.621771  -0.100232
  2  H   -0.003040  -0.038169   0.326307
  3  C    0.005377  -0.149000   0.424838
  4  H   -0.000481   0.006726  -0.030279
  5  C    0.007034  -0.205836  -0.079224
  6  H   -0.000478   0.009048   0.003726
  7  H    0.420994   0.402295  -0.037327
  8  C    0.402295   4.918120   0.441712
  9  N   -0.037327   0.441712   6.475802
 Total atomic charges:
              1
  1  N   -0.269104
  2  H    0.346771
  3  C   -0.126995
  4  H    0.229781
  5  C   -0.186974
  6  H    0.212809
  7  H    0.225702
  8  C   -0.006666
  9  N   -0.425324
 Sum of Mulliken charges=   0.00000
 Atomic charges with hydrogens summed into heavy atoms:
              1
  1  N   -0.269104
  2  H    0.000000
  3  C    0.102787
  4  H    0.000000
  5  C    0.025834
  6  H    0.000000
  7  H    0.000000
  8  C    0.219036
  9  N   -0.078552
 Sum of Mulliken charges=   0.00000
 Electronic spatial extent (au):  <R**2>=   258.6046
 Charge=     0.0000 electrons
 Dipole moment (Debye):
    X=     1.1082    Y=     3.6950    Z=     0.0000  Tot=     3.8576
 Quadrupole moment (Debye-Ang):
   XX=   -26.8184   YY=   -25.4177   ZZ=   -30.6541
   XY=    -3.1302   XZ=     0.0000   YZ=     0.0000
 Octapole moment (Debye-Ang**2):
  XXX=     0.2457  YYY=    15.4207  ZZZ=     0.0000  XYY=     4.6889
  XXY=     4.9522  XXZ=     0.0000  XZZ=    -0.8207  YZZ=     1.2520
  YYZ=     0.0000  XYZ=     0.0000
 Hexadecapole moment (Debye-Ang**3):
 XXXX=  -140.4785 YYYY=  -128.8930 ZZZZ=   -31.0578 XXXY=    -2.6722
 XXXZ=     0.0000 YYYX=    -6.8120 YYYZ=     0.0000 ZZZX=     0.0000
 ZZZY=     0.0000 XXYY=   -51.6860 XXZZ=   -34.3202 YYZZ=   -31.9427
 XXYZ=     0.0000 YYXZ=     0.0000 ZZXY=     0.7939
 N-N= 1.735664837334D+02 E-N=-8.754025595059D+02  KE= 2.271277925063D+02
 Symmetry A'   KE= 2.187863206770D+02
 Symmetry A"   KE= 8.341471829229D+00
 ***** Axes restored to original set *****
 -------------------------------------------------------------------
 Center     Atomic                   Forces (Hartrees/Bohr)
 Number     Number              X              Y              Z
 -------------------------------------------------------------------
    1          7           0.080791726    0.000000000    0.083511071
    2          1           0.017918220    0.000000000   -0.077955518
    3          6          -0.079524004    0.000000000    0.017887158
    4          1          -0.066512181    0.000000000   -0.049775638
    5          6          -0.028720599    0.000000000   -0.013186684
    6          1          -0.057559061    0.000000000    0.058092578
    7          1           0.082132128    0.000000000   -0.010820948
    8          6           0.018546141    0.000000000    0.045668795
    9          7           0.032927629    0.000000000   -0.053420814
 -------------------------------------------------------------------
 Cartesian Forces:  Max     0.083511071 RMS     0.044870998

 GradGradGradGradGradGradGradGradGradGradGradGradGradGradGradGradGradGrad
 Berny optimization.
 Internal  Forces:  Max     0.129189935 RMS     0.045798073
 Search for a local minimum.
 Step number   1 out of a maximum of  48
 All quantities printed in internal units (Hartrees-Bohrs-Radians)
 Second derivative matrix not updated -- first step.
     Eigenvalues ---    0.03211   0.03261   0.03288   0.03318   0.03352
     Eigenvalues ---    0.03407   0.16000   0.16000   0.16000   0.16000
     Eigenvalues ---    0.22000   0.22917   0.49193   0.49594   0.49613
     Eigenvalues ---    0.54578   0.60577   0.63413   0.68379   0.73836
     Eigenvalues ---    0.765081000.000001000.000001000.000001000.00000
     Eigenvalues --- 1000.000001000.000001000.000001000.000001000.00000
     Eigenvalues --- 1000.000001000.000001000.000001000.000001000.00000
     Eigenvalues --- 1000.000001000.000001000.00000
 RFO step:  Lambda=-1.06905462D-01.
 Linear search not attempted -- first point.
 Maximum step size (   0.300) exceeded in Quadratic search.
    -- Step size scaled by   0.777
 Iteration  1 RMS(Cart)=  0.06566939 RMS(Int)=  0.00044850
 Iteration  2 RMS(Cart)=  0.00051603 RMS(Int)=  0.00010377
 Iteration  3 RMS(Cart)=  0.00000030 RMS(Int)=  0.00010377
 Variable       Old X    -DE/DX   Delta X   Delta X   Delta X     New X
                                 (Linear)    (Quad)   (Total)
    R1        2.40969   0.11548   0.00000   0.10272   0.10265   2.51234
    R2        2.42167   0.05968   0.00000   0.05372   0.05353   2.47521
    R3        1.77186   0.07999   0.00000   0.08723   0.08723   1.85910
    R4        1.86958   0.08261   0.00000   0.10648   0.10648   1.97605
    R5        2.49323   0.07914   0.00000   0.08496   0.08511   2.57834
    R6        2.38988   0.12919   0.00000   0.11583   0.11599   2.50588
    R7        1.87388   0.08162   0.00000   0.10593   0.10593   1.97981
    R8        1.86977   0.08281   0.00000   0.10676   0.10676   1.97653
    R9        2.41548   0.11124   0.00000   0.10385   0.10380   2.51928
    A1        1.85787   0.00423   0.00000  -0.00350  -0.00382   1.85405
    A2        2.20999   0.01581   0.00000   0.03789   0.03774   2.24773
    A3        2.20602  -0.00050   0.00000  -0.00961  -0.00976   2.19626
    A4        1.86717  -0.01531   0.00000  -0.02827  -0.02797   1.83920
    A5        1.89521   0.01053   0.00000   0.02106   0.02114   1.91635
    A6        2.19177  -0.01006   0.00000  -0.02450  -0.02454   2.16723
    A7        2.19620  -0.00047   0.00000   0.00344   0.00340   2.19960
    A8        2.18150   0.00127   0.00000   0.00454   0.00463   2.18613
    A9        1.91767   0.00208   0.00000   0.00438   0.00420   1.92186
   A10        2.18402  -0.00335   0.00000  -0.00892  -0.00882   2.17519
   A11        2.20124   0.00033   0.00000  -0.00444  -0.00450   2.19674
   A12        2.19509   0.00120   0.00000  -0.00189  -0.00195   2.19313
   A13        1.88685  -0.00153   0.00000   0.00633   0.00646   1.89331
    D1        0.00000   0.00000   0.00000   0.00000   0.00000   0.00000
    D2        3.14159   0.00000   0.00000   0.00000   0.00000   3.14159
    D3        3.14159   0.00000   0.00000   0.00000   0.00000   3.14159
    D4        0.00000   0.00000   0.00000   0.00000   0.00000   0.00000
    D5        3.14159   0.00000   0.00000   0.00000   0.00000   3.14159
    D6        0.00000   0.00000   0.00000   0.00000   0.00000   0.00000
    D7        0.00000   0.00000   0.00000   0.00000   0.00000   0.00000
    D8        3.14159   0.00000   0.00000   0.00000   0.00000   3.14159
    D9        0.00000   0.00000   0.00000   0.00000   0.00000   0.00000
   D10        3.14159   0.00000   0.00000   0.00000   0.00000   3.14159
   D11        3.14159   0.00000   0.00000   0.00000   0.00000   3.14159
   D12        0.00000   0.00000   0.00000   0.00000   0.00000   0.00000
   D13        3.14159   0.00000   0.00000   0.00000   0.00000   3.14159
   D14        0.00000   0.00000   0.00000   0.00000   0.00000   0.00000
   D15        0.00000   0.00000   0.00000   0.00000   0.00000   0.00000
   D16        3.14159   0.00000   0.00000   0.00000   0.00000   3.14159
         Item               Value     Threshold  Converged?
 Maximum Force            0.129190     0.000450     NO 
 RMS     Force            0.045798     0.000300     NO 
 Maximum Displacement     0.186863     0.001800     NO 
 RMS     Displacement     0.065608     0.001200     NO 
 Predicted change in Energy=-2.748194D-02
 GradGradGradGradGradGradGradGradGradGradGradGradGradGradGradGradGradGrad

                          Input orientation:                          
 ---------------------------------------------------------------------
 Center     Atomic     Atomic              Coordinates (Angstroms)
 Number     Number      Type              X           Y           Z
 ---------------------------------------------------------------------
    1          7             0        0.477042    0.000000    1.111822
    2          1             0        0.475444    0.000000   -1.998452
    3          6             0       -0.982751    0.000000   -0.539511
    4          1             0       -1.870632    0.000000   -1.091887
    5          6             0       -0.818873    0.000000    0.815009
    6          1             0       -1.586010    0.000000    1.528532
    7          1             0        2.154613    0.000000   -0.143955
    8          6             0        1.114651    0.000000   -0.032333
    9          7             0        0.244329    0.000000   -1.042193
 ---------------------------------------------------------------------
                    Distance matrix (angstroms):
                    1          2          3          4          5
     1  N    0.000000
     2  H    3.110274   0.000000
     3  C    2.204063   2.062726   0.000000
     4  H    3.219923   2.515141   1.045683   0.000000
     5  C    1.329471   3.096904   1.364397   2.177717   0.000000
     6  H    2.104716   4.085243   2.154234   2.635831   1.047671
     7  H    2.095524   2.501753   3.162201   4.135356   3.124297
     8  C    1.309823   2.067416   2.157852   3.167739   2.111043
     9  N    2.166549   0.983791   1.326052   2.115545   2.140000
                    6          7          8          9
     6  H    0.000000
     7  H    4.097496   0.000000
     8  C    3.119274   1.045935   0.000000
     9  N    3.155752   2.110928   1.333146   0.000000
 Stoichiometry    C3H4N2
 Framework group  CS[SG(C3H4N2)]
 Deg. of freedom   15
 Full point group                 CS      NOp   2
 Largest Abelian subgroup         CS      NOp   2
 Largest concise Abelian subgroup C1      NOp   1
                         Standard orientation:                         
 ---------------------------------------------------------------------
 Center     Atomic     Atomic              Coordinates (Angstroms)
 Number     Number      Type              X           Y           Z
 ---------------------------------------------------------------------
    1          7             0       -0.710122   -0.970542    0.000000
    2          1             0       -0.010644    2.060058    0.000000
    3          6             0        1.082990    0.311114    0.000000
    4          1             0        2.072179    0.650170    0.000000
    5          6             0        0.619348   -0.972091    0.000000
    6          1             0        1.206813   -1.839558    0.000000
    7          1             0       -2.063127    0.629645    0.000000
    8          6             0       -1.074732    0.287511    0.000000
    9          7             0        0.000000    1.076325    0.000000
 ---------------------------------------------------------------------
 Rotational constants (GHZ):     10.2062702      9.8068965      5.0012992
 Isotopes: N-14,H-1,C-12,H-1,C-12,H-1,H-1,C-12,N-14
 Standard basis: 6-311G(d) (5D, 7F)
 There are    77 symmetry adapted basis functions of A'  symmetry.
 There are    25 symmetry adapted basis functions of A"  symmetry.
 Crude estimate of integral set expansion from redundant integrals=1.000.
 Integral buffers will be    262144 words long.
 Raffenetti 2 integral format.
 Two-electron integral symmetry is turned on.
   102 basis functions      180 primitive gaussians
    18 alpha electrons       18 beta electrons
       nuclear repulsion energy       166.8690486365 Hartrees.
 One-electron integrals computed using PRISM.
 NBasis=   102 RedAO= T  NBF=    77    25
 NBsUse=   102 1.00D-04 NBFU=    77    25
 Initial guess read from the read-write file:
 Initial guess orbital symmetries:
       Occupied  (A') (A') (A') (A') (A') (A') (A') (A') (A') (A')
                 (A') (A") (A') (A') (A') (A") (A') (A")
       Virtual   (A') (A") (A') (A") (A') (A') (A') (A') (A') (A')
                 (A') (A") (A') (A') (A") (A') (A") (A') (A') (A')
                 (A') (A') (A") (A') (A') (A') (A") (A') (A') (A')
                 (A') (A') (A') (A") (A') (A") (A") (A') (A') (A")
                 (A") (A') (A') (A') (A') (A') (A') (A") (A') (A')
                 (A') (A") (A') (A") (A") (A') (A') (A") (A') (A")
                 (A') (A") (A') (A") (A') (A') (A') (A') (A') (A')
                 (A') (A') (A") (A") (A') (A') (A') (A') (A') (A')
                 (A') (A') (A') (A')
 Requested convergence on RMS density matrix=1.00D-08 within  64 cycles.
 Requested convergence on MAX density matrix=1.00D-06.
 Integral accuracy reduced to 1.0D-05 until final iterations.
 Initial convergence to 1.0D-05 achieved.  Increase integral accuracy.
 SCF Done:  E(RB+HF-LYP) =  -226.259180148     A.U. after   13 cycles
             Convg  =    0.5425D-08             -V/T =  2.0011
             S**2   =   0.0000
 ***** Axes restored to original set *****
 -------------------------------------------------------------------
 Center     Atomic                   Forces (Hartrees/Bohr)
 Number     Number              X              Y              Z
 -------------------------------------------------------------------
    1          7           0.032564663    0.000000000    0.026002941
    2          1           0.005094705    0.000000000   -0.022991517
    3          6          -0.030239173    0.000000000    0.021339960
    4          1          -0.018293020    0.000000000   -0.018858008
    5          6          -0.013423853    0.000000000   -0.016296951
    6          1          -0.016064006    0.000000000    0.020287410
    7          1           0.025510833    0.000000000   -0.005111022
    8          6          -0.003149874    0.000000000    0.022590837
    9          7           0.017999726    0.000000000   -0.026963650
 -------------------------------------------------------------------
 Cartesian Forces:  Max     0.032564663 RMS     0.016903736

 GradGradGradGradGradGradGradGradGradGradGradGradGradGradGradGradGradGrad
 Berny optimization.
 Internal  Forces:  Max     0.045184080 RMS     0.014542265
 Search for a local minimum.
 Step number   2 out of a maximum of  48
 All quantities printed in internal units (Hartrees-Bohrs-Radians)
 Update second derivatives using information from points  1  2
 Trust test= 1.93D+00 RLast= 3.00D-01 DXMaxT set to 4.24D-01
     Eigenvalues ---    0.03209   0.03262   0.03288   0.03314   0.03351
     Eigenvalues ---    0.03406   0.15907   0.16000   0.16000   0.16001
     Eigenvalues ---    0.22128   0.22839   0.49301   0.49602   0.50888
     Eigenvalues ---    0.55578   0.61059   0.63884   0.70433   0.72894
     Eigenvalues ---    0.752831000.000001000.000001000.000001000.00000
     Eigenvalues --- 1000.000001000.000001000.000001000.000001000.00000
     Eigenvalues --- 1000.000001000.000001000.000001000.000001000.00000
     Eigenvalues --- 1000.000001000.000001000.00000
 RFO step:  Lambda=-1.95589221D-03.
 Quartic linear search produced a step of  0.58918.
 Iteration  1 RMS(Cart)=  0.04090297 RMS(Int)=  0.00073947
 Iteration  2 RMS(Cart)=  0.00086638 RMS(Int)=  0.00008539
 Iteration  3 RMS(Cart)=  0.00000092 RMS(Int)=  0.00008539
 Variable       Old X    -DE/DX   Delta X   Delta X   Delta X     New X
                                 (Linear)    (Quad)   (Total)
    R1        2.51234   0.03930   0.06048   0.00508   0.06544   2.57777
    R2        2.47521   0.01342   0.03154  -0.01240   0.01902   2.49423
    R3        1.85910   0.02355   0.05139  -0.00261   0.04879   1.90788
    R4        1.97605   0.02549   0.06273   0.00316   0.06589   2.04195
    R5        2.57834   0.01807   0.05014  -0.01595   0.03424   2.61257
    R6        2.50588   0.04518   0.06834   0.00925   0.07774   2.58362
    R7        1.97981   0.02558   0.06241   0.00453   0.06695   2.04676
    R8        1.97653   0.02591   0.06290   0.00432   0.06722   2.04375
    R9        2.51928   0.03440   0.06116  -0.00103   0.06017   2.57945
    A1        1.85405  -0.00089  -0.00225  -0.02087  -0.02343   1.83063
    A2        2.24773   0.00807   0.02223   0.04174   0.06387   2.31160
    A3        2.19626  -0.00447  -0.00575  -0.04722  -0.05308   2.14318
    A4        1.83920  -0.00360  -0.01648   0.00548  -0.01079   1.82841
    A5        1.91635   0.00454   0.01245   0.01108   0.02349   1.93985
    A6        2.16723  -0.00615  -0.01446  -0.03358  -0.04801   2.11922
    A7        2.19960   0.00161   0.00200   0.02249   0.02452   2.22412
    A8        2.18613   0.00014   0.00273   0.00453   0.00729   2.19342
    A9        1.92186   0.00439   0.00247   0.02711   0.02953   1.95139
   A10        2.17519  -0.00453  -0.00520  -0.03164  -0.03681   2.13838
   A11        2.19674   0.00180  -0.00265   0.00819   0.00544   2.20218
   A12        2.19313   0.00264  -0.00115   0.01461   0.01336   2.20650
   A13        1.89331  -0.00444   0.00380  -0.02281  -0.01880   1.87451
    D1        0.00000   0.00000   0.00000   0.00000   0.00000   0.00000
    D2        3.14159   0.00000   0.00000   0.00000   0.00000   3.14159
    D3        3.14159   0.00000   0.00000   0.00000   0.00000   3.14159
    D4        0.00000   0.00000   0.00000   0.00000   0.00000   0.00000
    D5        3.14159   0.00000   0.00000   0.00000   0.00000   3.14159
    D6        0.00000   0.00000   0.00000   0.00000   0.00000   0.00000
    D7        0.00000   0.00000   0.00000   0.00000   0.00000   0.00000
    D8        3.14159   0.00000   0.00000   0.00000   0.00000   3.14159
    D9        0.00000   0.00000   0.00000   0.00000   0.00000   0.00000
   D10        3.14159   0.00000   0.00000   0.00000   0.00000   3.14159
   D11        3.14159   0.00000   0.00000   0.00000   0.00000   3.14159
   D12        0.00000   0.00000   0.00000   0.00000   0.00000   0.00000
   D13        3.14159   0.00000   0.00000   0.00000   0.00000   3.14159
   D14        0.00000   0.00000   0.00000   0.00000   0.00000   0.00000
   D15        0.00000   0.00000   0.00000   0.00000   0.00000   0.00000
   D16        3.14159   0.00000   0.00000   0.00000   0.00000   3.14159
         Item               Value     Threshold  Converged?
 Maximum Force            0.045184     0.000450     NO 
 RMS     Force            0.014542     0.000300     NO 
 Maximum Displacement     0.127503     0.001800     NO 
 RMS     Displacement     0.040815     0.001200     NO 
 Predicted change in Energy=-1.086130D-02
 GradGradGradGradGradGradGradGradGradGradGradGradGradGradGradGradGradGrad

                          Input orientation:                          
 ---------------------------------------------------------------------
 Center     Atomic     Atomic              Coordinates (Angstroms)
 Number     Number      Type              X           Y           Z
 ---------------------------------------------------------------------
    1          7             0        0.492253    0.000000    1.141291
    2          1             0        0.486890    0.000000   -2.049074
    3          6             0       -1.017730    0.000000   -0.547689
    4          1             0       -1.904899    0.000000   -1.164556
    5          6             0       -0.834090    0.000000    0.822576
    6          1             0       -1.599076    0.000000    1.589320
    7          1             0        2.192804    0.000000   -0.156701
    8          6             0        1.120004    0.000000   -0.019757
    9          7             0        0.246365    0.000000   -1.068535
 ---------------------------------------------------------------------
                    Distance matrix (angstroms):
                    1          2          3          4          5
     1  N    0.000000
     2  H    3.190369   0.000000
     3  C    2.265546   2.125568   0.000000
     4  H    3.326149   2.550104   1.080553   0.000000
     5  C    1.364099   3.160911   1.382515   2.257282   0.000000
     6  H    2.138782   4.193944   2.214671   2.770805   1.083098
     7  H    2.139311   2.547787   3.234254   4.219827   3.181363
     8  C    1.319888   2.125785   2.201958   3.234286   2.127912
     9  N    2.223463   1.009609   1.367193   2.153406   2.178000
                    6          7          8          9
     6  H    0.000000
     7  H    4.174559   0.000000
     8  C    3.159514   1.081505   0.000000
     9  N    3.235714   2.149434   1.364984   0.000000
 Stoichiometry    C3H4N2
 Framework group  CS[SG(C3H4N2)]
 Deg. of freedom   15
 Full point group                 CS      NOp   2
 Largest Abelian subgroup         CS      NOp   2
 Largest concise Abelian subgroup C1      NOp   1
                         Standard orientation:                         
 ---------------------------------------------------------------------
 Center     Atomic     Atomic              Coordinates (Angstroms)
 Number     Number      Type              X           Y           Z
 ---------------------------------------------------------------------
    1          7             0       -0.735316   -0.994496    0.000000
    2          1             0       -0.014448    2.113366    0.000000
    3          6             0        1.115049    0.312734    0.000000
    4          1             0        2.117982    0.714877    0.000000
    5          6             0        0.628720   -0.981419    0.000000
    6          1             0        1.202221   -1.900221    0.000000
    7          1             0       -2.101374    0.651875    0.000000
    8          6             0       -1.086631    0.277778    0.000000
    9          7             0        0.000000    1.103861    0.000000
 ---------------------------------------------------------------------
 Rotational constants (GHZ):      9.8656423      9.3239143      4.7935658
 Isotopes: N-14,H-1,C-12,H-1,C-12,H-1,H-1,C-12,N-14
 Standard basis: 6-311G(d) (5D, 7F)
 There are    77 symmetry adapted basis functions of A'  symmetry.
 There are    25 symmetry adapted basis functions of A"  symmetry.
 Crude estimate of integral set expansion from redundant integrals=1.000.
 Integral buffers will be    262144 words long.
 Raffenetti 2 integral format.
 Two-electron integral symmetry is turned on.
   102 basis functions      180 primitive gaussians
    18 alpha electrons       18 beta electrons
       nuclear repulsion energy       163.3151676813 Hartrees.
 One-electron integrals computed using PRISM.
 NBasis=   102 RedAO= T  NBF=    77    25
 NBsUse=   102 1.00D-04 NBFU=    77    25
 Initial guess read from the read-write file:
 Initial guess orbital symmetries:
       Occupied  (A') (A') (A') (A') (A') (A') (A') (A') (A') (A')
                 (A') (A') (A") (A') (A') (A") (A') (A")
       Virtual   (A') (A") (A") (A') (A') (A') (A') (A') (A') (A')
                 (A') (A') (A') (A") (A') (A") (A') (A") (A') (A')
                 (A') (A') (A') (A") (A') (A') (A") (A') (A') (A')
                 (A') (A') (A') (A") (A') (A") (A") (A') (A') (A")
                 (A") (A') (A') (A') (A') (A') (A') (A") (A') (A')
                 (A') (A') (A") (A") (A") (A') (A') (A') (A") (A")
                 (A') (A') (A") (A') (A") (A') (A') (A') (A') (A')
                 (A') (A') (A") (A') (A") (A') (A') (A') (A') (A')
                 (A') (A') (A') (A')
 Requested convergence on RMS density matrix=1.00D-08 within  64 cycles.
 Requested convergence on MAX density matrix=1.00D-06.
 Integral accuracy reduced to 1.0D-05 until final iterations.
 Initial convergence to 1.0D-05 achieved.  Increase integral accuracy.
 SCF Done:  E(RB+HF-LYP) =  -226.267462843     A.U. after   12 cycles
             Convg  =    0.7105D-08             -V/T =  2.0036
             S**2   =   0.0000
 ***** Axes restored to original set *****
 -------------------------------------------------------------------
 Center     Atomic                   Forces (Hartrees/Bohr)
 Number     Number              X              Y              Z
 -------------------------------------------------------------------
    1          7           0.007732467    0.000000000   -0.007360051
    2          1          -0.000372595    0.000000000    0.002232349
    3          6          -0.007527629    0.000000000    0.011504467
    4          1           0.001741373    0.000000000    0.000763571
    5          6          -0.011973979    0.000000000   -0.006443343
    6          1           0.001323729    0.000000000   -0.001232240
    7          1          -0.001067634    0.000000000   -0.000172900
    8          6           0.002528911    0.000000000    0.005156913
    9          7           0.007615355    0.000000000   -0.004448765
 -------------------------------------------------------------------
 Cartesian Forces:  Max     0.011973979 RMS     0.004760270

 GradGradGradGradGradGradGradGradGradGradGradGradGradGradGradGradGradGrad
 Berny optimization.
 Internal  Forces:  Max     0.009049165 RMS     0.002803694
 Search for a local minimum.
 Step number   3 out of a maximum of  48
 All quantities printed in internal units (Hartrees-Bohrs-Radians)
 Update second derivatives using information from points  1  2  3
 Trust test= 7.63D-01 RLast= 2.12D-01 DXMaxT set to 6.00D-01
     Eigenvalues ---    0.03205   0.03261   0.03287   0.03304   0.03349
     Eigenvalues ---    0.03404   0.15355   0.16000   0.16001   0.16002
     Eigenvalues ---    0.22177   0.23439   0.44416   0.49329   0.49617
     Eigenvalues ---    0.55896   0.58863   0.63441   0.65833   0.74113
     Eigenvalues ---    0.747351000.000001000.000001000.000001000.00000
     Eigenvalues --- 1000.000001000.000001000.000001000.000001000.00000
     Eigenvalues --- 1000.000001000.000001000.000001000.000001000.00000
     Eigenvalues --- 1000.000001000.000001000.00000
 RFO step:  Lambda=-5.31599916D-04.
 Quartic linear search produced a step of  0.00675.
 Iteration  1 RMS(Cart)=  0.00572463 RMS(Int)=  0.00001860
 Iteration  2 RMS(Cart)=  0.00001778 RMS(Int)=  0.00000443
 Iteration  3 RMS(Cart)=  0.00000000 RMS(Int)=  0.00000443
 Variable       Old X    -DE/DX   Delta X   Delta X   Delta X     New X
                                 (Linear)    (Quad)   (Total)
    R1        2.57777   0.00767   0.00044   0.01186   0.01231   2.59009
    R2        2.49423  -0.00540   0.00013  -0.00704  -0.00692   2.48731
    R3        1.90788  -0.00226   0.00033  -0.00230  -0.00197   1.90591
    R4        2.04195  -0.00187   0.00044  -0.00190  -0.00146   2.04049
    R5        2.61257  -0.00894   0.00023  -0.01314  -0.01290   2.59967
    R6        2.58362   0.00905   0.00052   0.01405   0.01457   2.59819
    R7        2.04676  -0.00181   0.00045  -0.00180  -0.00135   2.04541
    R8        2.04375  -0.00104   0.00045  -0.00020   0.00025   2.04400
    R9        2.57945  -0.00037   0.00041   0.00130   0.00170   2.58115
    A1        1.83063   0.00414  -0.00016   0.01470   0.01455   1.84518
    A2        2.31160   0.00022   0.00043   0.00206   0.00249   2.31409
    A3        2.14318  -0.00053  -0.00036  -0.00499  -0.00535   2.13783
    A4        1.82841   0.00031  -0.00007   0.00293   0.00286   1.83127
    A5        1.93985  -0.00223   0.00016  -0.00953  -0.00937   1.93048
    A6        2.11922   0.00105  -0.00032   0.00359   0.00326   2.12248
    A7        2.22412   0.00119   0.00017   0.00594   0.00610   2.23022
    A8        2.19342   0.00163   0.00005   0.00816   0.00821   2.20163
    A9        1.95139  -0.00262   0.00020  -0.01151  -0.01132   1.94007
   A10        2.13838   0.00100  -0.00025   0.00335   0.00310   2.14148
   A11        2.20218  -0.00004   0.00004  -0.00078  -0.00074   2.20144
   A12        2.20650  -0.00036   0.00009  -0.00263  -0.00253   2.20396
   A13        1.87451   0.00040  -0.00013   0.00341   0.00327   1.87778
    D1        0.00000   0.00000   0.00000   0.00000   0.00000   0.00000
    D2        3.14159   0.00000   0.00000   0.00000   0.00000   3.14159
    D3        3.14159   0.00000   0.00000   0.00000   0.00000   3.14159
    D4        0.00000   0.00000   0.00000   0.00000   0.00000   0.00000
    D5        3.14159   0.00000   0.00000   0.00000   0.00000   3.14159
    D6        0.00000   0.00000   0.00000   0.00000   0.00000   0.00000
    D7        0.00000   0.00000   0.00000   0.00000   0.00000   0.00000
    D8        3.14159   0.00000   0.00000   0.00000   0.00000   3.14159
    D9        0.00000   0.00000   0.00000   0.00000   0.00000   0.00000
   D10        3.14159   0.00000   0.00000   0.00000   0.00000   3.14159
   D11        3.14159   0.00000   0.00000   0.00000   0.00000   3.14159
   D12        0.00000   0.00000   0.00000   0.00000   0.00000   0.00000
   D13        3.14159   0.00000   0.00000   0.00000   0.00000   3.14159
   D14        0.00000   0.00000   0.00000   0.00000   0.00000   0.00000
   D15        0.00000   0.00000   0.00000   0.00000   0.00000   0.00000
   D16        3.14159   0.00000   0.00000   0.00000   0.00000   3.14159
         Item               Value     Threshold  Converged?
 Maximum Force            0.009049     0.000450     NO 
 RMS     Force            0.002804     0.000300     NO 
 Maximum Displacement     0.016765     0.001800     NO 
 RMS     Displacement     0.005722     0.001200     NO 
 Predicted change in Energy=-2.658525D-04
 GradGradGradGradGradGradGradGradGradGradGradGradGradGradGradGradGradGrad

                          Input orientation:                          
 ---------------------------------------------------------------------
 Center     Atomic     Atomic              Coordinates (Angstroms)
 Number     Number      Type              X           Y           Z
 ---------------------------------------------------------------------
    1          7             0        0.493732    0.000000    1.125223
    2          1             0        0.489191    0.000000   -2.053835
    3          6             0       -1.020758    0.000000   -0.549517
    4          1             0       -1.904327    0.000000   -1.170189
    5          6             0       -0.841173    0.000000    0.814398
    6          1             0       -1.602742    0.000000    1.583531
    7          1             0        2.201233    0.000000   -0.165615
    8          6             0        1.128401    0.000000   -0.027883
    9          7             0        0.250178    0.000000   -1.074002
 ---------------------------------------------------------------------
                    Distance matrix (angstroms):
                    1          2          3          4          5
     1  N    0.000000
     2  H    3.179061   0.000000
     3  C    2.257971   2.131413   0.000000
     4  H    3.319579   2.551424   1.079782   0.000000
     5  C    1.370615   3.161745   1.375687   2.251418   0.000000
     6  H    2.145984   4.196024   2.211018   2.770186   1.082383
     7  H    2.140519   2.548816   3.244782   4.226676   3.196351
     8  C    1.316228   2.124400   2.211557   3.240726   2.142115
     9  N    2.212670   1.008564   1.374905   2.156651   2.181078
                    6          7          8          9
     6  H    0.000000
     7  H    4.186853   0.000000
     8  C    3.171087   1.081638   0.000000
     9  N    3.239721   2.152157   1.365885   0.000000
 Stoichiometry    C3H4N2
 Framework group  CS[SG(C3H4N2)]
 Deg. of freedom   15
 Full point group                 CS      NOp   2
 Largest Abelian subgroup         CS      NOp   2
 Largest concise Abelian subgroup C1      NOp   1
                         Standard orientation:                         
 ---------------------------------------------------------------------
 Center     Atomic     Atomic              Coordinates (Angstroms)
 Number     Number      Type              X           Y           Z
 ---------------------------------------------------------------------
    1          7             0       -0.736974   -0.984202    0.000000
    2          1             0       -0.010084    2.110643    0.000000
    3          6             0        1.118488    0.302537    0.000000
    4          1             0        2.119991    0.706169    0.000000
    5          6             0        0.633640   -0.984878    0.000000
    6          1             0        1.200489   -1.906960    0.000000
    7          1             0       -2.106443    0.660906    0.000000
    8          6             0       -1.092983    0.282966    0.000000
    9          7             0        0.000000    1.102129    0.000000
 ---------------------------------------------------------------------
 Rotational constants (GHZ):      9.7532989      9.4073207      4.7885931
 Isotopes: N-14,H-1,C-12,H-1,C-12,H-1,H-1,C-12,N-14
 Standard basis: 6-311G(d) (5D, 7F)
 There are    77 symmetry adapted basis functions of A'  symmetry.
 There are    25 symmetry adapted basis functions of A"  symmetry.
 Crude estimate of integral set expansion from redundant integrals=1.000.
 Integral buffers will be    262144 words long.
 Raffenetti 2 integral format.
 Two-electron integral symmetry is turned on.
   102 basis functions      180 primitive gaussians
    18 alpha electrons       18 beta electrons
       nuclear repulsion energy       163.2186944677 Hartrees.
 One-electron integrals computed using PRISM.
 NBasis=   102 RedAO= T  NBF=    77    25
 NBsUse=   102 1.00D-04 NBFU=    77    25
 Initial guess read from the read-write file:
 Initial guess orbital symmetries:
       Occupied  (A') (A') (A') (A') (A') (A') (A') (A') (A') (A')
                 (A') (A') (A') (A") (A') (A") (A') (A")
       Virtual   (A") (A') (A") (A') (A') (A') (A') (A') (A') (A')
                 (A') (A') (A') (A") (A') (A") (A') (A") (A') (A')
                 (A') (A') (A') (A") (A') (A') (A") (A') (A') (A')
                 (A') (A') (A') (A") (A') (A") (A") (A') (A') (A")
                 (A") (A') (A') (A') (A') (A') (A') (A") (A') (A')
                 (A') (A') (A") (A") (A") (A') (A') (A') (A") (A')
                 (A") (A') (A") (A') (A") (A') (A') (A') (A') (A')
                 (A') (A') (A") (A') (A") (A') (A') (A') (A') (A')
                 (A') (A') (A') (A')
 Requested convergence on RMS density matrix=1.00D-08 within  64 cycles.
 Requested convergence on MAX density matrix=1.00D-06.
 SCF Done:  E(RB+HF-LYP) =  -226.267752832     A.U. after   10 cycles
             Convg  =    0.4442D-08             -V/T =  2.0036
             S**2   =   0.0000
 ***** Axes restored to original set *****
 -------------------------------------------------------------------
 Center     Atomic                   Forces (Hartrees/Bohr)
 Number     Number              X              Y              Z
 -------------------------------------------------------------------
    1          7           0.005564809    0.000000000   -0.000142926
    2          1          -0.000674942    0.000000000    0.001069707
    3          6          -0.002403077    0.000000000    0.004671676
    4          1           0.001262128    0.000000000    0.000350174
    5          6          -0.003586551    0.000000000   -0.004482210
    6          1           0.001492440    0.000000000   -0.000831762
    7          1          -0.001252718    0.000000000    0.000164545
    8          6          -0.004057910    0.000000000    0.003471006
    9          7           0.003655821    0.000000000   -0.004270209
 -------------------------------------------------------------------
 Cartesian Forces:  Max     0.005564809 RMS     0.002430406

 GradGradGradGradGradGradGradGradGradGradGradGradGradGradGradGradGradGrad
 Berny optimization.
 Internal  Forces:  Max     0.003447143 RMS     0.001222614
 Search for a local minimum.
 Step number   4 out of a maximum of  48
 All quantities printed in internal units (Hartrees-Bohrs-Radians)
 Update second derivatives using information from points  1  2  3  4
 Trust test= 1.09D+00 RLast= 3.47D-02 DXMaxT set to 6.00D-01
     Eigenvalues ---    0.03205   0.03261   0.03287   0.03304   0.03350
     Eigenvalues ---    0.03404   0.14507   0.15999   0.16000   0.16052
     Eigenvalues ---    0.21670   0.31302   0.43626   0.48584   0.49488
     Eigenvalues ---    0.49669   0.56500   0.60325   0.64436   0.69827
     Eigenvalues ---    0.765631000.000001000.000001000.000001000.00000
     Eigenvalues --- 1000.000001000.000001000.000001000.000001000.00000
     Eigenvalues --- 1000.000001000.000001000.000001000.000001000.00000
     Eigenvalues --- 1000.000001000.000001000.00000
 RFO step:  Lambda=-1.56510174D-04.
 Quartic linear search produced a step of  0.10170.
 Iteration  1 RMS(Cart)=  0.00254280 RMS(Int)=  0.00000605
 Iteration  2 RMS(Cart)=  0.00000656 RMS(Int)=  0.00000320
 Iteration  3 RMS(Cart)=  0.00000000 RMS(Int)=  0.00000320
 Variable       Old X    -DE/DX   Delta X   Delta X   Delta X     New X
                                 (Linear)    (Quad)   (Total)
    R1        2.59009   0.00250   0.00125   0.00694   0.00819   2.59827
    R2        2.48731  -0.00345  -0.00070  -0.00625  -0.00695   2.48036
    R3        1.90591  -0.00120  -0.00020  -0.00165  -0.00185   1.90406
    R4        2.04049  -0.00123  -0.00015  -0.00183  -0.00198   2.03851
    R5        2.59967  -0.00338  -0.00131  -0.00746  -0.00878   2.59089
    R6        2.59819   0.00164   0.00148   0.00648   0.00796   2.60616
    R7        2.04541  -0.00164  -0.00014  -0.00275  -0.00289   2.04252
    R8        2.04400  -0.00126   0.00003  -0.00156  -0.00154   2.04246
    R9        2.58115   0.00002   0.00017   0.00139   0.00157   2.58272
    A1        1.84518  -0.00163   0.00148  -0.00607  -0.00459   1.84059
    A2        2.31409   0.00040   0.00025   0.00347   0.00372   2.31781
    A3        2.13783  -0.00050  -0.00054  -0.00507  -0.00561   2.13222
    A4        1.83127   0.00010   0.00029   0.00161   0.00189   1.83316
    A5        1.93048   0.00095  -0.00095   0.00308   0.00212   1.93260
    A6        2.12248  -0.00096   0.00033  -0.00541  -0.00507   2.11741
    A7        2.23022   0.00001   0.00062   0.00233   0.00296   2.23318
    A8        2.20163  -0.00114   0.00084  -0.00365  -0.00281   2.19882
    A9        1.94007   0.00228  -0.00115   0.00847   0.00733   1.94740
   A10        2.14148  -0.00114   0.00032  -0.00483  -0.00451   2.13697
   A11        2.20144   0.00046  -0.00008   0.00106   0.00098   2.20243
   A12        2.20396   0.00123  -0.00026   0.00603   0.00577   2.20973
   A13        1.87778  -0.00169   0.00033  -0.00709  -0.00675   1.87103
    D1        0.00000   0.00000   0.00000   0.00000   0.00000   0.00000
    D2        3.14159   0.00000   0.00000   0.00000   0.00000   3.14159
    D3        3.14159   0.00000   0.00000   0.00000   0.00000   3.14159
    D4        0.00000   0.00000   0.00000   0.00000   0.00000   0.00000
    D5        3.14159   0.00000   0.00000   0.00000   0.00000   3.14159
    D6        0.00000   0.00000   0.00000   0.00000   0.00000   0.00000
    D7        0.00000   0.00000   0.00000   0.00000   0.00000   0.00000
    D8        3.14159   0.00000   0.00000   0.00000   0.00000   3.14159
    D9        0.00000   0.00000   0.00000   0.00000   0.00000   0.00000
   D10        3.14159   0.00000   0.00000   0.00000   0.00000   3.14159
   D11        3.14159   0.00000   0.00000   0.00000   0.00000   3.14159
   D12        0.00000   0.00000   0.00000   0.00000   0.00000   0.00000
   D13        3.14159   0.00000   0.00000   0.00000   0.00000   3.14159
   D14        0.00000   0.00000   0.00000   0.00000   0.00000   0.00000
   D15        0.00000   0.00000   0.00000   0.00000   0.00000   0.00000
   D16        3.14159   0.00000   0.00000   0.00000   0.00000   3.14159
         Item               Value     Threshold  Converged?
 Maximum Force            0.003447     0.000450     NO 
 RMS     Force            0.001223     0.000300     NO 
 Maximum Displacement     0.006433     0.001800     NO 
 RMS     Displacement     0.002544     0.001200     NO 
 Predicted change in Energy=-8.071135D-05
 GradGradGradGradGradGradGradGradGradGradGradGradGradGradGradGradGradGrad

                          Input orientation:                          
 ---------------------------------------------------------------------
 Center     Atomic     Atomic              Coordinates (Angstroms)
 Number     Number      Type              X           Y           Z
 ---------------------------------------------------------------------
    1          7             0        0.496760    0.000000    1.126640
    2          1             0        0.489153    0.000000   -2.054911
    3          6             0       -1.021675    0.000000   -0.546408
    4          1             0       -1.902444    0.000000   -1.169236
    5          6             0       -0.841888    0.000000    0.812795
    6          1             0       -1.599650    0.000000    1.583540
    7          1             0        2.198119    0.000000   -0.163072
    8          6             0        1.126128    0.000000   -0.025175
    9          7             0        0.251844    0.000000   -1.075669
 ---------------------------------------------------------------------
                    Distance matrix (angstroms):
                    1          2          3          4          5
     1  N    0.000000
     2  H    3.181560   0.000000
     3  C    2.259367   2.134990   0.000000
     4  H    3.320727   2.550325   1.078734   0.000000
     5  C    1.374947   3.161552   1.371042   2.247938   0.000000
     6  H    2.145621   4.195405   2.206974   2.769379   1.080856
     7  H    2.134943   2.549435   3.242533   4.222202   3.192798
     8  C    1.312548   2.127337   2.210145   3.237456   2.138991
     9  N    2.215886   1.007586   1.379119   2.156319   2.182326
                    6          7          8          9
     6  H    0.000000
     7  H    4.180156   0.000000
     8  C    3.165095   1.080824   0.000000
     9  N    3.240281   2.149610   1.366715   0.000000
 Stoichiometry    C3H4N2
 Framework group  CS[SG(C3H4N2)]
 Deg. of freedom   15
 Full point group                 CS      NOp   2
 Largest Abelian subgroup         CS      NOp   2
 Largest concise Abelian subgroup C1      NOp   1
                         Standard orientation:                         
 ---------------------------------------------------------------------
 Center     Atomic     Atomic              Coordinates (Angstroms)
 Number     Number      Type              X           Y           Z
 ---------------------------------------------------------------------
    1          7             0       -0.740467   -0.983743    0.000000
    2          1             0       -0.007852    2.112319    0.000000
    3          6             0        1.119353    0.299147    0.000000
    4          1             0        2.118904    0.704814    0.000000
    5          6             0        0.634479   -0.983294    0.000000
    6          1             0        1.196607   -1.906474    0.000000
    7          1             0       -2.103058    0.659828    0.000000
    8          6             0       -1.090720    0.281210    0.000000
    9          7             0        0.000000    1.104763    0.000000
 ---------------------------------------------------------------------
 Rotational constants (GHZ):      9.7576710      9.4002092      4.7878026
 Isotopes: N-14,H-1,C-12,H-1,C-12,H-1,H-1,C-12,N-14
 Standard basis: 6-311G(d) (5D, 7F)
 There are    77 symmetry adapted basis functions of A'  symmetry.
 There are    25 symmetry adapted basis functions of A"  symmetry.
 Crude estimate of integral set expansion from redundant integrals=1.000.
 Integral buffers will be    262144 words long.
 Raffenetti 2 integral format.
 Two-electron integral symmetry is turned on.
   102 basis functions      180 primitive gaussians
    18 alpha electrons       18 beta electrons
       nuclear repulsion energy       163.2159648988 Hartrees.
 One-electron integrals computed using PRISM.
 NBasis=   102 RedAO= T  NBF=    77    25
 NBsUse=   102 1.00D-04 NBFU=    77    25
 Initial guess read from the read-write file:
 Initial guess orbital symmetries:
       Occupied  (A') (A') (A') (A') (A') (A') (A') (A') (A') (A')
                 (A') (A') (A') (A") (A') (A") (A') (A")
       Virtual   (A") (A') (A") (A') (A') (A') (A') (A') (A') (A')
                 (A') (A') (A') (A") (A') (A") (A') (A") (A') (A')
                 (A') (A') (A') (A") (A') (A') (A") (A') (A') (A')
                 (A') (A') (A') (A") (A') (A") (A") (A') (A') (A")
                 (A") (A') (A') (A') (A') (A') (A') (A") (A') (A')
                 (A') (A') (A") (A") (A") (A') (A') (A') (A") (A')
                 (A") (A') (A") (A') (A") (A') (A') (A') (A') (A')
                 (A') (A') (A') (A") (A") (A') (A') (A') (A') (A')
                 (A') (A') (A') (A')
 Requested convergence on RMS density matrix=1.00D-08 within  64 cycles.
 Requested convergence on MAX density matrix=1.00D-06.
 SCF Done:  E(RB+HF-LYP) =  -226.267849943     A.U. after   10 cycles
             Convg  =    0.2006D-08             -V/T =  2.0036
             S**2   =   0.0000
 ***** Axes restored to original set *****
 -------------------------------------------------------------------
 Center     Atomic                   Forces (Hartrees/Bohr)
 Number     Number              X              Y              Z
 -------------------------------------------------------------------
    1          7           0.001531002    0.000000000    0.000123334
    2          1          -0.000236899    0.000000000    0.000461713
    3          6          -0.000022075    0.000000000    0.000387796
    4          1           0.000371479    0.000000000    0.000283615
    5          6          -0.001284175    0.000000000   -0.000823557
    6          1           0.000536391    0.000000000   -0.000325317
    7          1          -0.000437562    0.000000000    0.000078009
    8          6          -0.001210816    0.000000000    0.000223639
    9          7           0.000752655    0.000000000   -0.000409233
 -------------------------------------------------------------------
 Cartesian Forces:  Max     0.001531002 RMS     0.000549959

 GradGradGradGradGradGradGradGradGradGradGradGradGradGradGradGradGradGrad
 Berny optimization.
 Internal  Forces:  Max     0.000758338 RMS     0.000323592
 Search for a local minimum.
 Step number   5 out of a maximum of  48
 All quantities printed in internal units (Hartrees-Bohrs-Radians)
 Update second derivatives using information from points  1  2  3  4  5

 Trust test= 1.20D+00 RLast= 2.34D-02 DXMaxT set to 6.00D-01
     Eigenvalues ---    0.03204   0.03261   0.03287   0.03303   0.03349
     Eigenvalues ---    0.03404   0.14346   0.15977   0.16006   0.16023
     Eigenvalues ---    0.21217   0.28313   0.43180   0.47333   0.49646
     Eigenvalues ---    0.49676   0.56309   0.59805   0.64674   0.68257
     Eigenvalues ---    0.762121000.000001000.000001000.000001000.00000
     Eigenvalues --- 1000.000001000.000001000.000001000.000001000.00000
     Eigenvalues --- 1000.000001000.000001000.000001000.000001000.00000
     Eigenvalues --- 1000.000001000.000001000.00000
 RFO step:  Lambda=-3.12904100D-06.
 Quartic linear search produced a step of  0.25277.
 Iteration  1 RMS(Cart)=  0.00084762 RMS(Int)=  0.00000126
 Iteration  2 RMS(Cart)=  0.00000051 RMS(Int)=  0.00000119
 Variable       Old X    -DE/DX   Delta X   Delta X   Delta X     New X
                                 (Linear)    (Quad)   (Total)
    R1        2.59827   0.00071   0.00207   0.00028   0.00235   2.60062
    R2        2.48036  -0.00076  -0.00176  -0.00007  -0.00183   2.47853
    R3        1.90406  -0.00050  -0.00047  -0.00062  -0.00109   1.90297
    R4        2.03851  -0.00047  -0.00050  -0.00067  -0.00117   2.03735
    R5        2.59089  -0.00067  -0.00222   0.00009  -0.00213   2.58877
    R6        2.60616  -0.00020   0.00201  -0.00112   0.00089   2.60705
    R7        2.04252  -0.00061  -0.00073  -0.00081  -0.00154   2.04098
    R8        2.04246  -0.00044  -0.00039  -0.00060  -0.00098   2.04148
    R9        2.58272  -0.00052   0.00040  -0.00113  -0.00073   2.58199
    A1        1.84059  -0.00058  -0.00116  -0.00052  -0.00168   1.83892
    A2        2.31781  -0.00004   0.00094  -0.00107  -0.00013   2.31768
    A3        2.13222  -0.00001  -0.00142   0.00103  -0.00039   2.13183
    A4        1.83316   0.00005   0.00048   0.00004   0.00052   1.83368
    A5        1.93260   0.00009   0.00054  -0.00018   0.00035   1.93295
    A6        2.11741  -0.00020  -0.00128  -0.00020  -0.00149   2.11593
    A7        2.23318   0.00011   0.00075   0.00039   0.00114   2.23431
    A8        2.19882  -0.00034  -0.00071  -0.00042  -0.00113   2.19768
    A9        1.94740   0.00064   0.00185   0.00038   0.00223   1.94964
   A10        2.13697  -0.00030  -0.00114   0.00004  -0.00110   2.13587
   A11        2.20243  -0.00001   0.00025  -0.00038  -0.00014   2.20229
   A12        2.20973   0.00022   0.00146   0.00010   0.00156   2.21129
   A13        1.87103  -0.00020  -0.00171   0.00028  -0.00143   1.86960
    D1        0.00000   0.00000   0.00000   0.00000   0.00000   0.00000
    D2        3.14159   0.00000   0.00000   0.00000   0.00000   3.14159
    D3        3.14159   0.00000   0.00000   0.00000   0.00000   3.14159
    D4        0.00000   0.00000   0.00000   0.00000   0.00000   0.00000
    D5        3.14159   0.00000   0.00000   0.00000   0.00000   3.14159
    D6        0.00000   0.00000   0.00000   0.00000   0.00000   0.00000
    D7        0.00000   0.00000   0.00000   0.00000   0.00000   0.00000
    D8        3.14159   0.00000   0.00000   0.00000   0.00000   3.14159
    D9        0.00000   0.00000   0.00000   0.00000   0.00000   0.00000
   D10        3.14159   0.00000   0.00000   0.00000   0.00000   3.14159
   D11        3.14159   0.00000   0.00000   0.00000   0.00000   3.14159
   D12        0.00000   0.00000   0.00000   0.00000   0.00000   0.00000
   D13        3.14159   0.00000   0.00000   0.00000   0.00000   3.14159
   D14        0.00000   0.00000   0.00000   0.00000   0.00000   0.00000
   D15        0.00000   0.00000   0.00000   0.00000   0.00000   0.00000
   D16        3.14159   0.00000   0.00000   0.00000   0.00000   3.14159
         Item               Value     Threshold  Converged?
 Maximum Force            0.000758     0.000450     NO 
 RMS     Force            0.000324     0.000300     NO 
 Maximum Displacement     0.002874     0.001800     NO 
 RMS     Displacement     0.000848     0.001200     YES
 Predicted change in Energy=-5.678759D-06
 GradGradGradGradGradGradGradGradGradGradGradGradGradGradGradGradGradGrad

                          Input orientation:                          
 ---------------------------------------------------------------------
 Center     Atomic     Atomic              Coordinates (Angstroms)
 Number     Number      Type              X           Y           Z
 ---------------------------------------------------------------------
    1          7             0        0.497509    0.000000    1.126817
    2          1             0        0.488931    0.000000   -2.054811
    3          6             0       -1.021566    0.000000   -0.546153
    4          1             0       -1.901793    0.000000   -1.168677
    5          6             0       -0.842182    0.000000    0.811968
    6          1             0       -1.598642    0.000000    1.582849
    7          1             0        2.196576    0.000000   -0.162700
    8          6             0        1.125102    0.000000   -0.024866
    9          7             0        0.252214    0.000000   -1.076019
 ---------------------------------------------------------------------
                    Distance matrix (angstroms):
                    1          2          3          4          5
     1  N    0.000000
     2  H    3.181640   0.000000
     3  C    2.259738   2.134865   0.000000
     4  H    3.320533   2.549666   1.078117   0.000000
     5  C    1.376192   3.160741   1.369916   2.246270   0.000000
     6  H    2.145184   4.194107   2.205826   2.768175   1.080041
     7  H    2.132999   2.548752   3.240906   4.220026   3.191243
     8  C    1.311581   2.127297   2.209055   3.235800   2.137872
     9  N    2.216451   1.007011   1.379591   2.155999   2.182246
                    6          7          8          9
     6  H    0.000000
     7  H    4.177395   0.000000
     8  C    3.162836   1.080303   0.000000
     9  N    3.239637   2.148184   1.366329   0.000000
 Stoichiometry    C3H4N2
 Framework group  CS[SG(C3H4N2)]
 Deg. of freedom   15
 Full point group                 CS      NOp   2
 Largest Abelian subgroup         CS      NOp   2
 Largest concise Abelian subgroup C1      NOp   1
                         Standard orientation:                         
 ---------------------------------------------------------------------
 Center     Atomic     Atomic              Coordinates (Angstroms)
 Number     Number      Type              X           Y           Z
 ---------------------------------------------------------------------
    1          7             0       -0.741492   -0.983623    0.000000
    2          1             0       -0.007118    2.112104    0.000000
    3          6             0        1.119262    0.298567    0.000000
    4          1             0        2.118320    0.703805    0.000000
    5          6             0        0.634699   -0.982788    0.000000
    6          1             0        1.195291   -1.905948    0.000000
    7          1             0       -2.101474    0.659585    0.000000
    8          6             0       -1.089722    0.280885    0.000000
    9          7             0        0.000000    1.105119    0.000000
 ---------------------------------------------------------------------
 Rotational constants (GHZ):      9.7634196      9.4004013      4.7892361
 Isotopes: N-14,H-1,C-12,H-1,C-12,H-1,H-1,C-12,N-14
 Standard basis: 6-311G(d) (5D, 7F)
 There are    77 symmetry adapted basis functions of A'  symmetry.
 There are    25 symmetry adapted basis functions of A"  symmetry.
 Crude estimate of integral set expansion from redundant integrals=1.000.
 Integral buffers will be    262144 words long.
 Raffenetti 2 integral format.
 Two-electron integral symmetry is turned on.
   102 basis functions      180 primitive gaussians
    18 alpha electrons       18 beta electrons
       nuclear repulsion energy       163.2447745938 Hartrees.
 One-electron integrals computed using PRISM.
 NBasis=   102 RedAO= T  NBF=    77    25
 NBsUse=   102 1.00D-04 NBFU=    77    25
 Initial guess read from the read-write file:
 Initial guess orbital symmetries:
       Occupied  (A') (A') (A') (A') (A') (A') (A') (A') (A') (A')
                 (A') (A') (A') (A") (A') (A") (A') (A")
       Virtual   (A") (A') (A") (A') (A') (A') (A') (A') (A') (A')
                 (A') (A') (A') (A") (A') (A") (A') (A") (A') (A')
                 (A') (A') (A') (A") (A') (A') (A") (A') (A') (A')
                 (A') (A') (A') (A") (A') (A") (A") (A') (A') (A")
                 (A") (A') (A') (A') (A') (A') (A') (A") (A') (A')
                 (A') (A') (A") (A") (A") (A') (A') (A') (A") (A')
                 (A") (A') (A") (A') (A") (A') (A') (A') (A') (A')
                 (A') (A') (A') (A") (A") (A') (A') (A') (A') (A')
                 (A') (A') (A') (A')
 Requested convergence on RMS density matrix=1.00D-08 within  64 cycles.
 Requested convergence on MAX density matrix=1.00D-06.
 SCF Done:  E(RB+HF-LYP) =  -226.267856078     A.U. after    8 cycles
             Convg  =    0.4482D-08             -V/T =  2.0036
             S**2   =   0.0000
 ***** Axes restored to original set *****
 -------------------------------------------------------------------
 Center     Atomic                   Forces (Hartrees/Bohr)
 Number     Number              X              Y              Z
 -------------------------------------------------------------------
    1          7           0.000310028    0.000000000    0.000181894
    2          1          -0.000019631    0.000000000    0.000021879
    3          6           0.000252417    0.000000000   -0.000238542
    4          1          -0.000005924    0.000000000    0.000046976
    5          6          -0.000408517    0.000000000   -0.000004842
    6          1           0.000065127    0.000000000   -0.000005500
    7          1          -0.000002885    0.000000000    0.000008808
    8          6          -0.000181843    0.000000000   -0.000279360
    9          7          -0.000008771    0.000000000    0.000268689
 -------------------------------------------------------------------
 Cartesian Forces:  Max     0.000408517 RMS     0.000150009

 GradGradGradGradGradGradGradGradGradGradGradGradGradGradGradGradGradGrad
 Berny optimization.
 Internal  Forces:  Max     0.000264829 RMS     0.000075594
 Search for a local minimum.
 Step number   6 out of a maximum of  48
 All quantities printed in internal units (Hartrees-Bohrs-Radians)
 Update second derivatives using information from points  1  2  3  4  5
                                                        6
 Trust test= 1.08D+00 RLast= 6.28D-03 DXMaxT set to 6.00D-01
     Eigenvalues ---    0.03204   0.03261   0.03287   0.03303   0.03349
     Eigenvalues ---    0.03404   0.14284   0.15594   0.16002   0.16039
     Eigenvalues ---    0.21102   0.28540   0.42513   0.45184   0.49575
     Eigenvalues ---    0.49669   0.56346   0.59008   0.63317   0.70289
     Eigenvalues ---    0.760401000.000001000.000001000.000001000.00000
     Eigenvalues --- 1000.000001000.000001000.000001000.000001000.00000
     Eigenvalues --- 1000.000001000.000001000.000001000.000001000.00000
     Eigenvalues --- 1000.000001000.000001000.00000
 RFO step:  Lambda=-3.63312260D-07.
 Quartic linear search produced a step of  0.08332.
 Iteration  1 RMS(Cart)=  0.00012111 RMS(Int)=  0.00000003
 Iteration  2 RMS(Cart)=  0.00000002 RMS(Int)=  0.00000003
 Variable       Old X    -DE/DX   Delta X   Delta X   Delta X     New X
                                 (Linear)    (Quad)   (Total)
    R1        2.60062   0.00026   0.00020   0.00032   0.00051   2.60114
    R2        2.47853   0.00006  -0.00015   0.00018   0.00003   2.47856
    R3        1.90297  -0.00003  -0.00009  -0.00001  -0.00010   1.90288
    R4        2.03735  -0.00002  -0.00010  -0.00001  -0.00011   2.03724
    R5        2.58877   0.00006  -0.00018   0.00021   0.00003   2.58879
    R6        2.60705  -0.00019   0.00007  -0.00035  -0.00028   2.60677
    R7        2.04098  -0.00005  -0.00013  -0.00005  -0.00018   2.04080
    R8        2.04148   0.00000  -0.00008   0.00002  -0.00006   2.04141
    R9        2.58199  -0.00021  -0.00006  -0.00034  -0.00040   2.58159
    A1        1.83892  -0.00012  -0.00014  -0.00012  -0.00026   1.83865
    A2        2.31768  -0.00006  -0.00001  -0.00033  -0.00034   2.31734
    A3        2.13183   0.00003  -0.00003   0.00027   0.00024   2.13206
    A4        1.83368   0.00003   0.00004   0.00006   0.00010   1.83378
    A5        1.93295  -0.00008   0.00003  -0.00017  -0.00014   1.93280
    A6        2.11593   0.00000  -0.00012  -0.00012  -0.00024   2.11568
    A7        2.23431   0.00008   0.00009   0.00029   0.00038   2.23470
    A8        2.19768  -0.00005  -0.00009  -0.00009  -0.00018   2.19750
    A9        1.94964   0.00008   0.00019   0.00005   0.00024   1.94988
   A10        2.13587  -0.00003  -0.00009   0.00003  -0.00006   2.13581
   A11        2.20229  -0.00006  -0.00001  -0.00013  -0.00014   2.20215
   A12        2.21129  -0.00003   0.00013  -0.00005   0.00008   2.21137
   A13        1.86960   0.00009  -0.00012   0.00018   0.00006   1.86966
    D1        0.00000   0.00000   0.00000   0.00000   0.00000   0.00000
    D2        3.14159   0.00000   0.00000   0.00000   0.00000   3.14159
    D3        3.14159   0.00000   0.00000   0.00000   0.00000   3.14159
    D4        0.00000   0.00000   0.00000   0.00000   0.00000   0.00000
    D5        3.14159   0.00000   0.00000   0.00000   0.00000   3.14159
    D6        0.00000   0.00000   0.00000   0.00000   0.00000   0.00000
    D7        0.00000   0.00000   0.00000   0.00000   0.00000   0.00000
    D8        3.14159   0.00000   0.00000   0.00000   0.00000   3.14159
    D9        0.00000   0.00000   0.00000   0.00000   0.00000   0.00000
   D10        3.14159   0.00000   0.00000   0.00000   0.00000   3.14159
   D11        3.14159   0.00000   0.00000   0.00000   0.00000   3.14159
   D12        0.00000   0.00000   0.00000   0.00000   0.00000   0.00000
   D13        3.14159   0.00000   0.00000   0.00000   0.00000   3.14159
   D14        0.00000   0.00000   0.00000   0.00000   0.00000   0.00000
   D15        0.00000   0.00000   0.00000   0.00000   0.00000   0.00000
   D16        3.14159   0.00000   0.00000   0.00000   0.00000   3.14159
         Item               Value     Threshold  Converged?
 Maximum Force            0.000265     0.000450     YES
 RMS     Force            0.000076     0.000300     YES
 Maximum Displacement     0.000305     0.001800     YES
 RMS     Displacement     0.000121     0.001200     YES
 Predicted change in Energy=-2.181298D-07
 Optimization completed.
    -- Stationary point found.
                         ----------------------------
                         !   Optimized Parameters   !
                         ! (Angstroms and Degrees)  !
 ------------------------                            -------------------------
 ! Name  Definition              Value          Derivative Info.             !
 -----------------------------------------------------------------------------
 ! R1    R(1,5)                  1.3762         -DE/DX =    0.0003           !
 ! R2    R(1,8)                  1.3116         -DE/DX =    0.0001           !
 ! R3    R(2,9)                  1.007          -DE/DX =    0.               !
 ! R4    R(3,4)                  1.0781         -DE/DX =    0.               !
 ! R5    R(3,5)                  1.3699         -DE/DX =    0.0001           !
 ! R6    R(3,9)                  1.3796         -DE/DX =   -0.0002           !
 ! R7    R(5,6)                  1.08           -DE/DX =    0.               !
 ! R8    R(7,8)                  1.0803         -DE/DX =    0.               !
 ! R9    R(8,9)                  1.3663         -DE/DX =   -0.0002           !
 ! A1    A(5,1,8)              105.3621         -DE/DX =   -0.0001           !
 ! A2    A(4,3,5)              132.7933         -DE/DX =   -0.0001           !
 ! A3    A(4,3,9)              122.1446         -DE/DX =    0.               !
 ! A4    A(5,3,9)              105.0621         -DE/DX =    0.               !
 ! A5    A(1,5,3)              110.7496         -DE/DX =   -0.0001           !
 ! A6    A(1,5,6)              121.2336         -DE/DX =    0.               !
 ! A7    A(3,5,6)              128.0168         -DE/DX =    0.0001           !
 ! A8    A(1,8,7)              125.9178         -DE/DX =    0.               !
 ! A9    A(1,8,9)              111.7059         -DE/DX =    0.0001           !
 ! A10   A(7,8,9)              122.3763         -DE/DX =    0.               !
 ! A11   A(2,9,3)              126.1819         -DE/DX =   -0.0001           !
 ! A12   A(2,9,8)              126.6977         -DE/DX =    0.               !
 ! A13   A(3,9,8)              107.1203         -DE/DX =    0.0001           !
 ! D1    D(8,1,5,3)              0.             -DE/DX =    0.               !
 ! D2    D(8,1,5,6)            180.             -DE/DX =    0.               !
[...]
 Frc consts  --     6.7977                 6.9548                 8.5337
 IR Inten    --     2.8629                 4.1380                37.6779
 Raman Activ --     0.0000                 0.0000                 0.0000
 Depolar     --     0.0000                 0.0000                 0.0000
 Atom AN      X      Y      Z        X      Y      Z        X      Y      Z
   1   7     0.00   0.00   0.00     0.00   0.00   0.00     0.00   0.00   0.00
   2   1    -0.01   0.01   0.00    -0.01  -0.02   0.00    -0.01   1.00   0.00
   3   6    -0.01  -0.01   0.00    -0.08  -0.03   0.00     0.00   0.00   0.00
   4   1     0.12   0.05   0.00     0.87   0.35   0.00     0.01   0.00   0.00
   5   6     0.01  -0.01   0.00    -0.01   0.03   0.00     0.00   0.00   0.00
   6   1    -0.07   0.12   0.00     0.17  -0.29   0.00     0.00   0.00   0.00
   7   1     0.92  -0.34   0.00    -0.07   0.03   0.00    -0.01   0.00   0.00
   8   6    -0.08   0.03   0.00     0.01   0.00   0.00     0.00   0.00   0.00
   9   7     0.00   0.00   0.00     0.00   0.00   0.00     0.00  -0.08   0.00

 -------------------
 - Thermochemistry -
 -------------------
 Temperature   298.150 Kelvin.  Pressure   1.00000 Atm.
 Atom  1 has atomic number  7 and mass  14.00307
 Atom  2 has atomic number  1 and mass   1.00783
 Atom  3 has atomic number  6 and mass  12.00000
 Atom  4 has atomic number  1 and mass   1.00783
 Atom  5 has atomic number  6 and mass  12.00000
 Atom  6 has atomic number  1 and mass   1.00783
 Atom  7 has atomic number  1 and mass   1.00783
 Atom  8 has atomic number  6 and mass  12.00000
 Atom  9 has atomic number  7 and mass  14.00307
 Molecular mass:    68.03745 amu.
 Principal axes and moments of inertia in atomic units:
                           1         2         3
     EIGENVALUES --   184.84724 191.98555 376.83279
           X            0.47212   0.88154   0.00000
           Y            0.88154  -0.47212   0.00000
           Z            0.00000   0.00000   1.00000
 THIS MOLECULE IS AN ASYMMETRIC TOP.
 ROTATIONAL SYMMETRY NUMBER  1.
 ROTATIONAL TEMPERATURES (KELVIN)      0.46857     0.45115     0.22985
 ROTATIONAL CONSTANTS (GHZ)            9.76342     9.40040     4.78924
 Zero-point vibrational energy     186289.0 (Joules/Mol)
                                   44.52414 (Kcal/Mol)
 WARNING-- EXPLICIT CONSIDERATION OF   1 DEGREES OF FREEDOM AS
           VIBRATIONS MAY CAUSE SIGNIFICANT ERROR
 VIBRATIONAL TEMPERATURES:    746.11   932.24   984.93  1029.46  1153.91
          (KELVIN)           1229.89  1310.27  1364.79  1547.40  1578.01
                             1652.62  1674.61  1848.98  1967.80  2074.85
                             2166.87  2252.40  4658.57  4666.67  4704.39
                             5265.82
 
 Zero-point correction=                           0.070954 (Hartree/Particle)
 Thermal correction to Energy=                    0.074724
 Thermal correction to Enthalpy=                  0.075669
 Thermal correction to Gibbs Free Energy=         0.044683
 Sum of electronic and zero-point Energies=           -226.196902
 Sum of electronic and thermal Energies=              -226.193132
 Sum of electronic and thermal Enthalpies=            -226.192187
 Sum of electronic and thermal Free Energies=         -226.223173
 
                     E (Thermal)             CV                S
                      KCAL/MOL        CAL/MOL-KELVIN    CAL/MOL-KELVIN
 TOTAL                   46.890             13.449             65.215
 ELECTRONIC               0.000              0.000              0.000
 TRANSLATIONAL            0.889              2.981             38.570
 ROTATIONAL               0.889              2.981             24.107
 VIBRATIONAL             45.113              7.488              2.538
 VIBRATION  1             0.874              1.209              0.613
                       Q            LOG10(Q)             LN(Q)
 TOTAL BOT       0.280260D-20        -20.552440        -47.323741
 TOTAL V=0       0.121280D+13         12.083789         27.823954
 VIB (BOT)       0.306912D-32        -32.512987        -74.863918
 VIB (BOT)  1    0.311673D+00         -0.506300         -1.165799
 VIB (V=0)       0.132814D+01          0.123243          0.283776
 VIB (V=0)  1    0.108919D+01          0.037102          0.085431
 ELECTRONIC      0.100000D+01          0.000000          0.000000
 TRANSLATIONAL   0.220588D+08          7.343582         16.909224
 ROTATIONAL      0.413966D+05          4.616964         10.630954
 ***** Axes restored to original set *****
 -------------------------------------------------------------------
 Center     Atomic                   Forces (Hartrees/Bohr)
 Number     Number              X              Y              Z
 -------------------------------------------------------------------
    1          7           0.000310148    0.000000000    0.000181870
    2          1          -0.000019632    0.000000000    0.000021872
    3          6           0.000252372    0.000000000   -0.000238559
    4          1          -0.000005910    0.000000000    0.000046986
    5          6          -0.000408578    0.000000000   -0.000004906
    6          1           0.000065109    0.000000000   -0.000005474
    7          1          -0.000002906    0.000000000    0.000008808
    8          6          -0.000181834    0.000000000   -0.000279308
    9          7          -0.000008770    0.000000000    0.000268712
 -------------------------------------------------------------------
 Cartesian Forces:  Max     0.000408578 RMS     0.000150019

 GradGradGradGradGradGradGradGradGradGradGradGradGradGradGradGradGradGrad
 Berny optimization.
 Internal  Forces:  Max     0.000264922 RMS     0.000075600
 Search for a local minimum.
 Step number   1 out of a maximum of  48
 All quantities printed in internal units (Hartrees-Bohrs-Radians)
 Second derivative matrix not updated -- analytic derivatives used.
     Eigenvalues ---    0.00508   0.01051   0.01946   0.02651   0.05973
     Eigenvalues ---    0.06222   0.09865   0.10502   0.10986   0.11754
     Eigenvalues ---    0.22977   0.24351   0.34195   0.36847   0.37093
     Eigenvalues ---    0.37455   0.40493   0.44216   0.46770   0.47957
     Eigenvalues ---    0.576481000.000001000.000001000.000001000.00000
     Eigenvalues --- 1000.000001000.000001000.000001000.000001000.00000
     Eigenvalues --- 1000.000001000.000001000.000001000.000001000.00000
     Eigenvalues --- 1000.000001000.000001000.00000
 Angle between quadratic step and forces=  25.84 degrees.
 Linear search not attempted -- first point.
 Iteration  1 RMS(Cart)=  0.00018084 RMS(Int)=  0.00000004
 Iteration  2 RMS(Cart)=  0.00000005 RMS(Int)=  0.00000000
 Variable       Old X    -DE/DX   Delta X   Delta X   Delta X     New X
                                 (Linear)    (Quad)   (Total)
    R1        2.60062   0.00026   0.00000   0.00090   0.00090   2.60153
    R2        2.47853   0.00006   0.00000   0.00015   0.00015   2.47868
    R3        1.90297  -0.00003   0.00000  -0.00005  -0.00005   1.90293
    R4        2.03735  -0.00002   0.00000  -0.00005  -0.00005   2.03729
    R5        2.58877   0.00006   0.00000   0.00010   0.00010   2.58886
    R6        2.60705  -0.00019   0.00000  -0.00055  -0.00055   2.60650
    R7        2.04098  -0.00005   0.00000  -0.00017  -0.00017   2.04081
    R8        2.04148   0.00000   0.00000   0.00001   0.00001   2.04148
    R9        2.58199  -0.00021   0.00000  -0.00061  -0.00061   2.58138
    A1        1.83892  -0.00012   0.00000  -0.00038  -0.00038   1.83853
    A2        2.31768  -0.00006   0.00000  -0.00056  -0.00056   2.31712
    A3        2.13183   0.00003   0.00000   0.00041   0.00041   2.13224
    A4        1.83368   0.00003   0.00000   0.00015   0.00015   1.83383
    A5        1.93295  -0.00008   0.00000  -0.00026  -0.00026   1.93268
    A6        2.11593   0.00000   0.00000  -0.00038  -0.00038   2.11555
    A7        2.23431   0.00008   0.00000   0.00064   0.00064   2.23496
    A8        2.19768  -0.00005   0.00000  -0.00028  -0.00028   2.19740
    A9        1.94964   0.00008   0.00000   0.00026   0.00026   1.94989
   A10        2.13587  -0.00003   0.00000   0.00002   0.00002   2.13589
   A11        2.20229  -0.00006   0.00000  -0.00022  -0.00022   2.20207
   A12        2.21129  -0.00003   0.00000  -0.00001  -0.00001   2.21128
   A13        1.86960   0.00009   0.00000   0.00023   0.00023   1.86984
    D1        0.00000   0.00000   0.00000   0.00000   0.00000   0.00000
    D2        3.14159   0.00000   0.00000   0.00000   0.00000   3.14159
    D3        3.14159   0.00000   0.00000   0.00000   0.00000   3.14159
    D4        0.00000   0.00000   0.00000   0.00000   0.00000   0.00000
    D5        3.14159   0.00000   0.00000   0.00000   0.00000   3.14159
    D6        0.00000   0.00000   0.00000   0.00000   0.00000   0.00000
    D7        0.00000   0.00000   0.00000   0.00000   0.00000   0.00000
    D8        3.14159   0.00000   0.00000   0.00000   0.00000   3.14159
    D9        0.00000   0.00000   0.00000   0.00000   0.00000   0.00000
   D10        3.14159   0.00000   0.00000   0.00000   0.00000   3.14159
   D11        3.14159   0.00000   0.00000   0.00000   0.00000   3.14159
   D12        0.00000   0.00000   0.00000   0.00000   0.00000   0.00000
   D13        3.14159   0.00000   0.00000   0.00000   0.00000   3.14159
   D14        0.00000   0.00000   0.00000   0.00000   0.00000   0.00000
   D15        0.00000   0.00000   0.00000   0.00000   0.00000   0.00000
   D16        3.14159   0.00000   0.00000   0.00000   0.00000   3.14159
         Item               Value     Threshold  Converged?
 Maximum Force            0.000265     0.000450     YES
 RMS     Force            0.000076     0.000300     YES
 Maximum Displacement     0.000495     0.001800     YES
 RMS     Displacement     0.000181     0.001200     YES
 Predicted change in Energy=-3.685611D-07
 Optimization completed.
    -- Stationary point found.
                         ----------------------------
                         !   Optimized Parameters   !
                         ! (Angstroms and Degrees)  !
 ------------------------                            -------------------------
 ! Name  Definition              Value          Derivative Info.             !
 -----------------------------------------------------------------------------
 ! R1    R(1,5)                  1.3762         -DE/DX =    0.0003           !
 ! R2    R(1,8)                  1.3116         -DE/DX =    0.0001           !
 ! R3    R(2,9)                  1.007          -DE/DX =    0.               !
 ! R4    R(3,4)                  1.0781         -DE/DX =    0.               !
 ! R5    R(3,5)                  1.3699         -DE/DX =    0.0001           !
 ! R6    R(3,9)                  1.3796         -DE/DX =   -0.0002           !
 ! R7    R(5,6)                  1.08           -DE/DX =    0.               !
 ! R8    R(7,8)                  1.0803         -DE/DX =    0.               !
 ! R9    R(8,9)                  1.3663         -DE/DX =   -0.0002           !
 ! A1    A(5,1,8)              105.3621         -DE/DX =   -0.0001           !
 ! A2    A(4,3,5)              132.7933         -DE/DX =   -0.0001           !
 ! A3    A(4,3,9)              122.1446         -DE/DX =    0.               !
 ! A4    A(5,3,9)              105.0621         -DE/DX =    0.               !
 ! A5    A(1,5,3)              110.7496         -DE/DX =   -0.0001           !
 ! A6    A(1,5,6)              121.2336         -DE/DX =    0.               !
 ! A7    A(3,5,6)              128.0168         -DE/DX =    0.0001           !
 ! A8    A(1,8,7)              125.9178         -DE/DX =    0.               !
 ! A9    A(1,8,9)              111.7059         -DE/DX =    0.0001           !
 ! A10   A(7,8,9)              122.3763         -DE/DX =    0.               !
 ! A11   A(2,9,3)              126.1819         -DE/DX =   -0.0001           !
 ! A12   A(2,9,8)              126.6977         -DE/DX =    0.               !
 ! A13   A(3,9,8)              107.1203         -DE/DX =    0.0001           !
 ! D1    D(8,1,5,3)              0.             -DE/DX =    0.               !
 ! D2    D(8,1,5,6)            180.             -DE/DX =    0.               !
 ! D3    D(5,1,8,7)            180.             -DE/DX =    0.               !
 ! D4    D(5,1,8,9)              0.             -DE/DX =    0.               !
 ! D5    D(4,3,5,1)            180.             -DE/DX =    0.               !
 ! D6    D(4,3,5,6)              0.             -DE/DX =    0.               !
 ! D7    D(9,3,5,1)              0.             -DE/DX =    0.               !
 ! D8    D(9,3,5,6)            180.             -DE/DX =    0.               !
 ! D9    D(4,3,9,2)              0.             -DE/DX =    0.               !
 ! D10   D(4,3,9,8)            180.             -DE/DX =    0.               !
 ! D11   D(5,3,9,2)            180.             -DE/DX =    0.               !
 ! D12   D(5,3,9,8)              0.             -DE/DX =    0.               !
 ! D13   D(1,8,9,2)            180.             -DE/DX =    0.               !
 ! D14   D(1,8,9,3)              0.             -DE/DX =    0.               !
 ! D15   D(7,8,9,2)              0.             -DE/DX =    0.               !
 ! D16   D(7,8,9,3)            180.             -DE/DX =    0.               !
 -----------------------------------------------------------------------------
 GradGradGradGradGradGradGradGradGradGradGradGradGradGradGradGradGradGrad

 1\1\GINC-WOLFRAM\Freq\RB3LYP\6-311G(d)\C3H4N2\RDJ3\09-Mar-2000\0\\#N G
 EOM=ALLCHECK GUESS=TCHECK RB3LYP/6-311G(D) FREQ\\1H imidazole C3H4N2 c
 asno=288324\\0,1\N,0.4974740219,0.,1.1268740213\H,0.4888959028,0.,-2.0
 547541757\C,-1.0216005264,0.,-0.5460959831\H,-1.9018281263,0.,-1.16861
 97486\C,-0.8422174371,0.,0.812024887\H,-1.598677388,0.,1.5829061814\H,
 2.1965413374,0.,-0.1626430804\C,1.125067133,0.,-0.0248085685\N,0.25217
 93006,0.,-1.0759613341\\Version=IBM-RS6000-G98RevA.4\State=1-A'\HF=-22
 6.2678561\RMSD=2.424e-09\RMSF=1.500e-04\Dipole=-0.1013534,0.,-1.478304
 6\DipoleDeriv=-0.383055,-0.0001167,-0.0369278,0.0000181,-0.3015961,0.0
 000789,-0.0211596,-0.0000714,-0.5994536,0.1867154,-0.0000357,0.0000375
 ,-0.0000412,0.3441461,0.0001155,0.0009568,0.0000509,0.1594755,0.004384
 1,-0.0003,-0.2337803,0.0000213,-0.1327629,-0.0000532,-0.030225,-0.0001
 59,0.1852987,0.0037665,0.0002313,-0.0556092,-0.0000553,0.1886777,-0.00
 00372,-0.0797164,0.0001789,0.0322268,0.1991219,0.0002348,-0.0334151,-0
 .0000127,-0.1384879,-0.0000372,-0.0856459,-0.0000423,0.1471096,-0.0138
 443,-0.0000556,0.0736912,0.0000394,0.1571725,0.0000761,0.096256,0.0000
 352,0.0183407,-0.0443764,0.0000931,0.038764,-0.0000026,0.160643,0.0001
 708,0.0325333,0.0000396,0.0669732,0.1353497,-0.0001209,0.0794054,-0.00
 00156,0.0030399,-0.0002398,0.0184702,0.0001354,0.5473192,-0.0880611,0.
 0000698,0.1678343,0.0000488,-0.2808322,-0.000074,0.0685306,-0.0001674,
 -0.5572896\Polar=50.0394533,0.0010468,22.171801,-0.551081,-0.0067809,4
 7.0738014\PG=CS [SG(C3H4N2)]\NImag=0\\0.48420259,-0.00000085,0.1049396
 6,-0.05560492,-0.00000231,0.57354683,-0.00321443,-0.00000011,-0.008052
 95,0.08242782,-0.00000290,0.00710331,0.00000011,-0.00000083,0.01130020
 ,-0.00293278,-0.00000030,-0.00384500,-0.09581403,0.00000157,0.45290210
 ,-0.03336469,-0.00000262,-0.01457180,0.00754648,-0.00000610,-0.0021547
 2,0.73539293,0.00000085,0.01715608,0.00000121,0.00000021,-0.00790177,0
 .00000073,0.00000476,0.10666756,-0.08845868,-0.00000190,-0.02058491,0.
 02835407,-0.00000246,-0.00061713,0.16248415,0.00000193,0.73133236,0.00
 154950,0.00000198,0.00108526,0.00002505,0.00000474,0.00017524,-0.25324
 708,-0.00000354,-0.13782709,0.26761410,-0.00000120,0.00706067,0.000003
 59,-0.00000061,-0.00107497,0.00000201,-0.00000131,-0.01939511,0.000000
 69,0.00000108,0.01769485,-0.00403445,0.00000149,-0.00541891,-0.0009654
 1,0.00000381,0.00011628,-0.14829086,-0.00000298,-0.16454970,0.15203475
 ,0.00000105,0.15718029,-0.24882701,0.00000372,-0.03723506,-0.00847399,
 0.00000571,-0.00137601,-0.10208318,-0.00000548,-0.01780374,0.00510236,
 -0.00000010,-0.02173146,0.65197145,0.00000067,-0.07042630,-0.00000021,
 0.00000046,0.00237776,-0.00000186,0.00000220,-0.06471994,0.00000158,-0
 .00000231,-0.00189346,-0.00000161,-0.00000073,0.13123625,-0.04597632,-
 0.00000050,-0.11277334,0.00350043,-0.00000314,0.00024038,-0.03436409,0
 .00000382,-0.38224757,0.00095855,-0.00000234,0.00261233,-0.15820783,0.
 00000008,0.78730255,-0.02011953,-0.00000133,0.02049320,0.00077213,-0.0
 0000220,0.00000483,0.00892947,0.00000347,-0.00525696,-0.00030181,-0.00
 000062,0.00068274,-0.19065680,-0.00000036,0.14487382,0.20718673,-0.000
 00017,-0.00538797,-0.00000249,-0.00000007,0.00207904,0.00000016,-0.000
 00213,-0.00057668,-0.00000233,0.00000164,-0.00213179,0.00000109,0.0000
 0200,-0.02767740,0.00000140,0.,0.02244487,-0.00610725,0.00000107,0.012
 11440,0.00120522,0.00000163,0.00020720,0.02023793,-0.00000259,-0.00792
 839,-0.00050110,0.00000027,-0.00027141,0.14733693,0.00000026,-0.216293
 30,-0.15739584,0.00000006,0.21616814,-0.00904969,0.00000091,0.00460807
 ,-0.00066503,0.00000160,-0.00053378,0.00101385,-0.00000041,-0.00315176
 ,-0.00032516,0.,0.00034811,0.00106233,-0.00000012,0.00262219,-0.000288
 36,0.00000064,-0.00017139,0.36515772,-0.00000060,-0.00546014,-0.000005
 09,0.,-0.00121095,-0.00000198,-0.00000399,0.00259971,-0.00000370,0.000
 00234,0.00182999,0.00000187,0.00000453,0.00705230,0.00000211,-0.000000
 95,0.00106934,0.00000062,0.00000251,0.02023434,0.02932298,0.00000026,0
 .00023539,0.00054403,0.00000080,0.00026204,-0.00085506,-0.00000063,-0.
 00577859,-0.00101402,0.00000045,0.00099231,0.00296327,0.00000007,-0.00
 418301,0.00132314,-0.00000003,0.00065972,-0.03808172,0.00000060,0.0616
 5496,-0.16683790,-0.00000147,0.11549834,0.01927678,-0.00000162,0.01350
 951,-0.09342751,0.00000044,0.00437051,-0.00312269,0.00000073,0.0040149
 6,-0.09119199,0.00000076,0.01588080,-0.00605068,-0.00000153,-0.0033371
 0,-0.34417674,-0.00000332,0.03529495,0.88993214,0.00000084,-0.07678692
 ,0.00000683,0.,-0.00911368,0.00000187,0.00000385,0.01678119,0.00000486
 ,-0.00000183,0.00265932,-0.00000148,-0.00000614,0.01058165,-0.00000363
 ,0.00000093,0.00535219,-0.00000081,-0.00000363,-0.02378926,-0.00000039
 ,0.00000471,0.13265797,0.13784989,0.00000296,-0.33522910,-0.01635375,0
 .00000097,-0.01065300,-0.04725127,-0.00000193,-0.01040316,0.00386710,-
 0.00000405,-0.00534329,0.07797650,-0.00000015,-0.00108603,-0.00180558,
 0.00000345,0.00056431,0.03045575,0.00000704,-0.06119915,-0.08919613,-0
 .00000984,0.62971361,-0.00433883,-0.00000022,-0.02622015,-0.09769481,0
 .00000161,0.08912174,-0.27076027,-0.00000029,0.05728949,-0.01729427,0.
 00000202,0.01794162,-0.01690317,-0.00000058,0.07071248,0.00052885,-0.0
 0000038,-0.00126738,-0.01272892,-0.00000051,-0.02949757,-0.20440144,0.
 00000128,-0.09554251,0.62359288,0.00000335,0.02180162,-0.00000164,0.00
 000096,-0.00355893,-0.00000221,0.00000534,-0.05061102,0.00000132,-0.00
 000411,-0.00474950,-0.00000324,-0.00000351,0.01346914,0.00000222,0.000
 00106,0.00482840,-0.00000049,-0.00000151,-0.00232533,-0.00000113,0.000
 00131,-0.05834246,0.00000155,-0.00000291,0.07948809,0.03594154,-0.0000
 0077,-0.10804534,0.08758239,-0.00000329,-0.43861287,0.06476572,0.00000
 045,-0.13922291,-0.01877868,-0.00000167,0.01468212,0.00807742,0.000001
 84,-0.07357202,-0.00291934,-0.00000132,-0.00522066,0.00390452,-0.00000
 145,0.00735633,-0.09603585,0.00000259,-0.20636419,-0.08253772,0.000003
 62,0.94899953\\-0.00031015,0.,-0.00018187,0.00001963,0.,-0.00002187,-0
 .00025237,0.,0.00023856,0.00000591,0.,-0.00004699,0.00040858,0.,0.0000
 0491,-0.00006511,0.,0.00000547,0.00000291,0.,-0.00000881,0.00018183,0.
 ,0.00027931,0.00000877,0.,-0.00026871\\\@


 WHEN ALL ELSE FAILS, TRY THE BOSS'S SUGGESTION.
 Job cpu time:  0 days  0 hours 25 minutes  4.2 seconds.
 File lengths (MBytes):  RWF=   20 Int=    0 D2E=    0 Chk=    3 Scr=    1
 Normal termination of Gaussian 98.
