 Entering Gaussian System, Link 0=g98
 Initial command:
 /usr/local/apps/g98/g98/l1.exe /tmp/Gau-207975.inp -scrdir=/tmp/
 Entering Link 1 = /usr/local/apps/g98/g98/l1.exe PID=    207963.
  
 Copyright (c) 1988,1990,1992,1993,1995,1998 Gaussian, Inc.
                  All Rights Reserved.
  
 This is part of the Gaussian(R) 98 program.  It is based on
 the Gaussian 94(TM) system (copyright 1995 Gaussian, Inc.),
 the Gaussian 92(TM) system (copyright 1992 Gaussian, Inc.),
 the Gaussian 90(TM) system (copyright 1990 Gaussian, Inc.),
 the Gaussian 88(TM) system (copyright 1988 Gaussian, Inc.),
 the Gaussian 86(TM) system (copyright 1986 Carnegie Mellon
 University), and the Gaussian 82(TM) system (copyright 1983
 Carnegie Mellon University). Gaussian is a federally registered
 trademark of Gaussian, Inc.
  
 This software contains proprietary and confidential information,
 including trade secrets, belonging to Gaussian, Inc.
  
 This software is provided under written license and may be
 used, copied, transmitted, or stored only in accord with that
 written license.
  
 The following legend is applicable only to US Government
 contracts under DFARS:
  
                    RESTRICTED RIGHTS LEGEND
  
 Use, duplication or disclosure by the US Government is subject
 to restrictions as set forth in subparagraph (c)(1)(ii) of the
 Rights in Technical Data and Computer Software clause at DFARS
 252.227-7013.
  
 Gaussian, Inc.
 Carnegie Office Park, Building 6, Pittsburgh, PA 15106 USA
  
 The following legend is applicable only to US Government
 contracts under FAR:
  
                    RESTRICTED RIGHTS LEGEND
  
 Use, reproduction and disclosure by the US Government is subject
 to restrictions as set forth in subparagraph (c) of the
 Commercial Computer Software - Restricted Rights clause at FAR
 52.227-19.
  
 Gaussian, Inc.
 Carnegie Office Park, Building 6, Pittsburgh, PA 15106 USA
  
  
 ---------------------------------------------------------------
 Warning -- This program may not be used in any manner that
 competes with the business of Gaussian, Inc. or will provide
 assistance to any competitor of Gaussian, Inc.  The licensee
 of this program is prohibited from giving any competitor of
 Gaussian, Inc. access to this program.  By using this program,
 the user acknowledges that Gaussian, Inc. is engaged in the
 business of creating and licensing software in the field of
 computational chemistry and represents and warrants to the
 licensee that it is not a competitor of Gaussian, Inc. and that
 it will not use this program in any manner prohibited above.
 ---------------------------------------------------------------
  

 Cite this work as:
 Gaussian 98, Revision A.7,
 M. J. Frisch, G. W. Trucks, H. B. Schlegel, G. E. Scuseria, 
 M. A. Robb, J. R. Cheeseman, V. G. Zakrzewski, J. A. Montgomery, Jr., 
 R. E. Stratmann, J. C. Burant, S. Dapprich, J. M. Millam, 
 A. D. Daniels, K. N. Kudin, M. C. Strain, O. Farkas, J. Tomasi, 
 V. Barone, M. Cossi, R. Cammi, B. Mennucci, C. Pomelli, C. Adamo, 
 S. Clifford, J. Ochterski, G. A. Petersson, P. Y. Ayala, Q. Cui, 
 K. Morokuma, D. K. Malick, A. D. Rabuck, K. Raghavachari, 
 J. B. Foresman, J. Cioslowski, J. V. Ortiz, A. G. Baboul, 
 B. B. Stefanov, G. Liu, A. Liashenko, P. Piskorz, I. Komaromi, 
 R. Gomperts, R. L. Martin, D. J. Fox, T. Keith, M. A. Al-Laham, 
 C. Y. Peng, A. Nanayakkara, C. Gonzalez, M. Challacombe, 
 P. M. W. Gill, B. Johnson, W. Chen, M. W. Wong, J. L. Andres, 
 C. Gonzalez, M. Head-Gordon, E. S. Replogle, and J. A. Pople, 
 Gaussian, Inc., Pittsburgh PA, 1998.

 *****************************************
 Gaussian 98:  SGI64-G98RevA.7 11-Apr-1999
                 6-Apr-2000 
 *****************************************
 %NProc=4
 Will use up to    4 processors via shared memory.
 %mem=24000000
 ---------------------
 #B3LYP/6-31G opt freq
 ---------------------
 1/14=-1,18=20,26=3,38=1/1,3;
 2/9=110,17=6,18=5/2;
 3/5=1,6=6,11=2,25=1,30=1/1,2,3;
 4//1;
 5/5=2,38=4,42=-5/2;
 6/7=2,8=2,9=2,10=2,28=1/1;
 7//1,2,3,16;
 1/14=-1,18=20/3(1);
 99//99;
 2/9=110/2;
 3/5=1,6=6,11=2,25=1,30=1/1,2,3;
 4/5=5,16=2/1;
 5/5=2,38=4,42=-5/2;
 7//1,2,3,16;
 1/14=-1,18=20/3(-5);
 2/9=110/2;
 6/7=2,8=2,9=2,10=2,19=2,28=1/1;
 99/9=1/99;
 --------------------------------
 1H imidazole C3H4N2 casno=288324
 --------------------------------
 Symbolic Z-matrix:
 Charge =  0 Multiplicity = 1
 N                     0.30938   0.        1.30938 
 H                     0.3125    0.       -1.6875 
 C                    -1.06875   0.       -0.28438 
 H                    -1.91875   0.       -0.79063 
 C                    -0.93438   0.        1.02812 
 H                    -1.675     0.        1.6875 
 H                     1.91875   0.        0.09063 
 C                     0.93438   0.        0.19063 
 N                     0.09688   0.       -0.775 

 GradGradGradGradGradGradGradGradGradGradGradGradGradGradGradGradGradGrad
 Berny optimization.
 Initialization pass.
                         ----------------------------
                         !    Initial Parameters    !
                         ! (Angstroms and Degrees)  !
 ------------------------                            -------------------------
 ! Name  Definition              Value          Derivative Info.             !
 -----------------------------------------------------------------------------
 ! R1    R(1,5)                  1.2752         estimate D2E/DX2             !
 ! R2    R(1,8)                  1.2815         estimate D2E/DX2             !
 ! R3    R(2,9)                  0.9376         estimate D2E/DX2             !
 ! R4    R(3,4)                  0.9893         estimate D2E/DX2             !
 ! R5    R(3,5)                  1.3194         estimate D2E/DX2             !
 ! R6    R(3,9)                  1.2647         estimate D2E/DX2             !
 ! R7    R(5,6)                  0.9916         estimate D2E/DX2             !
 ! R8    R(7,8)                  0.9894         estimate D2E/DX2             !
 ! R9    R(8,9)                  1.2782         estimate D2E/DX2             !
 ! A1    A(5,1,8)              106.4483         estimate D2E/DX2             !
 ! A2    A(4,3,5)              126.6232         estimate D2E/DX2             !
 ! A3    A(4,3,9)              126.3957         estimate D2E/DX2             !
 ! A4    A(5,3,9)              106.9812         estimate D2E/DX2             !
 ! A5    A(1,5,3)              108.5877         estimate D2E/DX2             !
 ! A6    A(1,5,6)              125.5794         estimate D2E/DX2             !
 ! A7    A(3,5,6)              125.8329         estimate D2E/DX2             !
 ! A8    A(1,8,7)              124.9909         estimate D2E/DX2             !
 ! A9    A(1,8,9)              109.8741         estimate D2E/DX2             !
 ! A10   A(7,8,9)              125.1349         estimate D2E/DX2             !
 ! A11   A(2,9,3)              126.122          estimate D2E/DX2             !
 ! A12   A(2,9,8)              125.7693         estimate D2E/DX2             !
 ! A13   A(3,9,8)              108.1088         estimate D2E/DX2             !
 ! D1    D(8,1,5,3)              0.             estimate D2E/DX2             !
 ! D2    D(8,1,5,6)            180.             estimate D2E/DX2             !
 ! D3    D(5,1,8,7)            180.             estimate D2E/DX2             !
 ! D4    D(5,1,8,9)              0.             estimate D2E/DX2             !
 ! D5    D(4,3,5,1)            180.             estimate D2E/DX2             !
 ! D6    D(4,3,5,6)              0.             estimate D2E/DX2             !
 ! D7    D(9,3,5,1)              0.             estimate D2E/DX2             !
 ! D8    D(9,3,5,6)            180.             estimate D2E/DX2             !
 ! D9    D(4,3,9,2)              0.             estimate D2E/DX2             !
 ! D10   D(4,3,9,8)            180.             estimate D2E/DX2             !
 ! D11   D(5,3,9,2)            180.             estimate D2E/DX2             !
 ! D12   D(5,3,9,8)              0.             estimate D2E/DX2             !
 ! D13   D(1,8,9,2)            180.             estimate D2E/DX2             !
 ! D14   D(1,8,9,3)              0.             estimate D2E/DX2             !
 ! D15   D(7,8,9,2)              0.             estimate D2E/DX2             !
 ! D16   D(7,8,9,3)            180.             estimate D2E/DX2             !
 -----------------------------------------------------------------------------
 Trust Radius=3.00D-01 FncErr=1.00D-07 GrdErr=1.00D-06
 Number of steps in this run=  48 maximum allowed number of steps= 100.
 GradGradGradGradGradGradGradGradGradGradGradGradGradGradGradGradGradGrad

                          Input orientation:                          
 ---------------------------------------------------------------------
 Center     Atomic     Atomic              Coordinates (Angstroms)
 Number     Number      Type              X           Y           Z
 ---------------------------------------------------------------------
    1          7             0        0.309375    0.000000    1.309375
    2          1             0        0.312500    0.000000   -1.687500
    3          6             0       -1.068750    0.000000   -0.284375
    4          1             0       -1.918750    0.000000   -0.790625
    5          6             0       -0.934375    0.000000    1.028125
    6          1             0       -1.675000    0.000000    1.687500
    7          1             0        1.918750    0.000000    0.090625
    8          6             0        0.934375    0.000000    0.190625
    9          7             0        0.096875    0.000000   -0.775000
 ---------------------------------------------------------------------
                    Distance matrix (angstroms):
                    1          2          3          4          5
     1  N    0.000000
     2  H    2.996877   0.000000
     3  C    2.106957   1.968911   0.000000
     4  H    3.061787   2.404758   0.989338   0.000000
     5  C    1.275153   2.988196   1.319361   2.068054   0.000000
     6  H    2.020080   3.916731   2.062966   2.490084   0.991615
     7  H    2.018772   2.396199   3.010944   3.937386   3.003203
     8  C    1.281494   1.978404   2.058673   3.017147   2.047836
     9  N    2.095179   0.937630   1.264672   2.015686   2.077194
                    6          7          8          9
     6  H    0.000000
     7  H    3.932563   0.000000
     8  C    3.008234   0.989441   0.000000
     9  N    3.033718   2.017061   1.278217   0.000000
 Stoichiometry    C3H4N2
 Framework group  CS[SG(C3H4N2)]
 Deg. of freedom   15
 Full point group                 CS      NOp   2
 Largest Abelian subgroup         CS      NOp   2
 Largest concise Abelian subgroup C1      NOp   1
                         Standard orientation:                         
 ---------------------------------------------------------------------
 Center     Atomic     Atomic              Coordinates (Angstroms)
 Number     Number      Type              X           Y           Z
 ---------------------------------------------------------------------
    1          7             0       -0.674969   -0.941702    0.000000
    2          1             0       -0.005288    1.979393    0.000000
    3          6             0        1.025744    0.302019    0.000000
    4          1             0        1.967693    0.604544    0.000000
    5          6             0        0.600174   -0.946822    0.000000
    6          1             0        1.173884   -1.755622    0.000000
    7          1             0       -1.969692    0.607211    0.000000
    8          6             0       -1.032886    0.288794    0.000000
    9          7             0        0.000000    1.041778    0.000000
 ---------------------------------------------------------------------
 Rotational constants (GHZ):     11.1543393     10.4769603      5.4025219
 Isotopes: N-14,H-1,C-12,H-1,C-12,H-1,H-1,C-12,N-14
 Standard basis: 6-31G (6D, 7F)
 There are    43 symmetry adapted basis functions of A'  symmetry.
 There are    10 symmetry adapted basis functions of A"  symmetry.
 Crude estimate of integral set expansion from redundant integrals=1.000.
 Integral buffers will be    131072 words long.
 Raffenetti 2 integral format.
 Two-electron integral symmetry is turned on.
    53 basis functions      126 primitive gaussians
    18 alpha electrons       18 beta electrons
       nuclear repulsion energy       173.5664837334 Hartrees.
 One-electron integrals computed using PRISM.
 NBasis=    53 RedAO= T  NBF=    43    10
 NBsUse=    53 1.00D-04 NBFU=    43    10
 Projected INDO Guess.
 Initial guess orbital symmetries:
       Occupied  (A') (A') (A') (A') (A') (A') (A') (A') (A') (A')
                 (A') (A") (A') (A') (A') (A") (A') (A")
       Virtual   (A") (A') (A') (A") (A') (A') (A') (A') (A') (A')
                 (A') (A') (A') (A') (A') (A') (A') (A') (A') (A')
                 (A') (A') (A') (A') (A') (A') (A') (A') (A') (A')
                 (A") (A") (A") (A") (A")
 Requested convergence on RMS density matrix=1.00D-08 within  64 cycles.
 Requested convergence on MAX density matrix=1.00D-06.
 Keep R1 and R2 integrals in memory in canonical form, NReq=     2863944.
 Integral accuracy reduced to 1.0D-05 until final iterations.
 Initial convergence to 1.0D-05 achieved.  Increase integral accuracy.
 SCF Done:  E(RB+HF-LYP) =  -226.067579344     A.U. after   14 cycles
             Convg  =    0.9834D-08             -V/T =  1.9969
             S**2   =   0.0000

 **********************************************************************

            Population analysis using the SCF density.

 **********************************************************************

 Orbital Symmetries:
       Occupied  (A') (A') (A') (A') (A') (A') (A') (A') (A') (A')
                 (A') (A") (A') (A') (A') (A") (A') (A")
       Virtual   (A") (A') (A") (A') (A') (A') (A') (A') (A') (A')
                 (A') (A") (A') (A") (A") (A') (A') (A') (A') (A")
                 (A') (A") (A') (A') (A') (A') (A') (A') (A') (A')
                 (A') (A') (A') (A') (A')
  The electronic state is 1-A'.
 Alpha  occ. eigenvalues --  -14.38494 -14.28921 -10.21038 -10.18389 -10.16243
 Alpha  occ. eigenvalues --   -1.09604  -0.91758  -0.77463  -0.65769  -0.62024
 Alpha  occ. eigenvalues --   -0.59555  -0.47308  -0.47033  -0.44763  -0.42871
 Alpha  occ. eigenvalues --   -0.29769  -0.23778  -0.23086
 Alpha virt. eigenvalues --    0.05403   0.08466   0.10267   0.16243   0.18020
 Alpha virt. eigenvalues --    0.20026   0.26536   0.27030   0.33341   0.35689
 Alpha virt. eigenvalues --    0.51035   0.53132   0.54608   0.59018   0.63612
 Alpha virt. eigenvalues --    0.65123   0.67808   0.71784   0.73262   0.76016
 Alpha virt. eigenvalues --    0.77454   0.85320   0.86752   0.88828   0.89457
 Alpha virt. eigenvalues --    0.94154   0.97205   1.02781   1.08855   1.09682
 Alpha virt. eigenvalues --    1.30705   1.35137   1.42664   1.64025   1.77085
          Condensed to atoms (all electrons):
              1          2          3          4          5          6
  1  N    6.588889   0.009044  -0.123460   0.010473   0.498342  -0.042590
  2  H    0.009044   0.404407  -0.029403  -0.001628   0.010033  -0.000039
  3  C   -0.123460  -0.029403   5.055691   0.342675   0.564197  -0.082219
  4  H    0.010473  -0.001628   0.342675   0.580518  -0.019554   0.001101
  5  C    0.498342   0.010033   0.564197  -0.019554   4.848023   0.384485
  6  H   -0.042590  -0.000039  -0.082219   0.001101   0.384485   0.605604
  7  H   -0.033939   0.000757   0.003897  -0.000213   0.009869  -0.000200
  8  C    0.581679  -0.014628  -0.163293   0.009052  -0.171014   0.011784
  9  N   -0.137648   0.308610   0.332282  -0.059418  -0.065534   0.006259
              7          8          9
  1  N   -0.033939   0.581679  -0.137648
  2  H    0.000757  -0.014628   0.308610
  3  C    0.003897  -0.163293   0.332282
  4  H   -0.000213   0.009052  -0.059418
  5  C    0.009869  -0.171014  -0.065534
  6  H   -0.000200   0.011784   0.006259
  7  H    0.569033   0.386036  -0.078546
  8  C    0.386036   4.858256   0.302447
  9  N   -0.078546   0.302447   6.990188
 Total atomic charges:
              1
  1  N   -0.350791
  2  H    0.312847
  3  C    0.099633
  4  H    0.136994
  5  C   -0.058848
  6  H    0.115817
  7  H    0.143307
  8  C    0.199681
  9  N   -0.598639
 Sum of Mulliken charges=   0.00000
 Atomic charges with hydrogens summed into heavy atoms:
              1
  1  N   -0.350791
  2  H    0.000000
  3  C    0.236627
  4  H    0.000000
  5  C    0.056969
  6  H    0.000000
  7  H    0.000000
  8  C    0.342987
  9  N   -0.285792
 Sum of Mulliken charges=   0.00000
 Electronic spatial extent (au):  <R**2>=   258.7608
 Charge=     0.0000 electrons
 Dipole moment (Debye):
    X=     1.3088    Y=     3.9047    Z=     0.0000  Tot=     4.1182
 Quadrupole moment (Debye-Ang):
   XX=   -27.0651   YY=   -25.8839   ZZ=   -30.1512
   XY=    -3.3034   XZ=     0.0000   YZ=     0.0000
 Octapole moment (Debye-Ang**2):
  XXX=     0.8766  YYY=    16.1009  ZZZ=     0.0000  XYY=     5.0510
  XXY=     5.2032  XXZ=     0.0000  XZZ=    -0.5727  YZZ=     1.0959
  YYZ=     0.0000  XYZ=     0.0000
 Hexadecapole moment (Debye-Ang**3):
 XXXX=  -139.2618 YYYY=  -128.1932 ZZZZ=   -28.4082 XXXY=    -2.5807
 XXXZ=     0.0000 YYYX=    -6.8705 YYYZ=     0.0000 ZZZX=     0.0000
 ZZZY=     0.0000 XXYY=   -51.6139 XXZZ=   -32.7780 YYZZ=   -31.0688
 XXYZ=     0.0000 YYXZ=     0.0000 ZZXY=     0.6849
 N-N= 1.735664837334D+02 E-N=-8.744765035750D+02  KE= 2.267691880776D+02
 Symmetry A'   KE= 2.184596244007D+02
 Symmetry A"   KE= 8.309563676944D+00
 ***** Axes restored to original set *****
 -------------------------------------------------------------------
 Center     Atomic                   Forces (Hartrees/Bohr)
 Number     Number              X              Y              Z
 -------------------------------------------------------------------
    1          7           0.090539490    0.000000000    0.101248305
    2          1           0.018356021    0.000000000   -0.077371084
    3          6          -0.097316839    0.000000000    0.011091526
    4          1          -0.067120919    0.000000000   -0.048560006
    5          6          -0.054311036    0.000000000   -0.002488437
    6          1          -0.057048497    0.000000000    0.057633871
    7          1           0.081838461    0.000000000   -0.010106730
    8          6           0.049333450    0.000000000    0.040054674
    9          7           0.035729870    0.000000000   -0.071502118
 -------------------------------------------------------------------
 Cartesian Forces:  Max     0.101248305 RMS     0.050180351

 GradGradGradGradGradGradGradGradGradGradGradGradGradGradGradGradGradGrad
 Berny optimization.
 Internal  Forces:  Max     0.150201216 RMS     0.051469095
 Search for a local minimum.
 Step number   1 out of a maximum of  48
 All quantities printed in internal units (Hartrees-Bohrs-Radians)
 Second derivative matrix not updated -- first step.
     Eigenvalues ---    0.03211   0.03261   0.03288   0.03318   0.03352
     Eigenvalues ---    0.03407   0.16000   0.16000   0.16000   0.16000
     Eigenvalues ---    0.22000   0.22917   0.49193   0.49594   0.49613
     Eigenvalues ---    0.54578   0.60577   0.63413   0.68379   0.73836
     Eigenvalues ---    0.765081000.000001000.000001000.000001000.00000
     Eigenvalues --- 1000.000001000.000001000.000001000.000001000.00000
     Eigenvalues --- 1000.000001000.000001000.000001000.000001000.00000
     Eigenvalues --- 1000.000001000.000001000.00000
 RFO step:  Lambda=-1.27846730D-01.
 Linear search not attempted -- first point.
 Maximum step size (   0.300) exceeded in Quadratic search.
    -- Step size scaled by   0.733
 Iteration  1 RMS(Cart)=  0.06685785 RMS(Int)=  0.00035013
 Iteration  2 RMS(Cart)=  0.00040925 RMS(Int)=  0.00008087
 Iteration  3 RMS(Cart)=  0.00000018 RMS(Int)=  0.00008087
 Variable       Old X    -DE/DX   Delta X   Delta X   Delta X     New X
                                 (Linear)    (Quad)   (Total)
    R1        2.40969   0.13908   0.00000   0.11447   0.11442   2.52411
    R2        2.42167   0.07987   0.00000   0.06729   0.06714   2.48882
    R3        1.77186   0.07952   0.00000   0.07949   0.07949   1.85135
    R4        1.86958   0.08252   0.00000   0.09698   0.09698   1.96655
    R5        2.49323   0.09155   0.00000   0.08956   0.08967   2.58290
    R6        2.38988   0.15020   0.00000   0.12339   0.12352   2.51340
    R7        1.87388   0.08093   0.00000   0.09576   0.09576   1.96964
    R8        1.86977   0.08244   0.00000   0.09692   0.09692   1.96669
    R9        2.41548   0.13001   0.00000   0.11177   0.11173   2.52721
    A1        1.85787   0.00780   0.00000   0.00558   0.00533   1.86321
    A2        2.20999   0.01384   0.00000   0.02946   0.02934   2.23933
    A3        2.20602   0.00005   0.00000  -0.00566  -0.00578   2.20024
    A4        1.86717  -0.01389   0.00000  -0.02380  -0.02356   1.84361
    A5        1.89521   0.00828   0.00000   0.01318   0.01325   1.90846
    A6        2.19177  -0.00893   0.00000  -0.01880  -0.01883   2.17294
    A7        2.19620   0.00065   0.00000   0.00562   0.00558   2.20178
    A8        2.18150   0.00341   0.00000   0.00739   0.00747   2.18897
    A9        1.91767  -0.00348   0.00000  -0.00628  -0.00643   1.91124
   A10        2.18402   0.00007   0.00000  -0.00111  -0.00104   2.18298
   A11        2.20124  -0.00059   0.00000  -0.00550  -0.00555   2.19570
   A12        2.19509  -0.00071   0.00000  -0.00581  -0.00586   2.18923
   A13        1.88685   0.00130   0.00000   0.01131   0.01141   1.89826
    D1        0.00000   0.00000   0.00000   0.00000   0.00000   0.00000
    D2        3.14159   0.00000   0.00000   0.00000   0.00000   3.14159
    D3        3.14159   0.00000   0.00000   0.00000   0.00000   3.14159
    D4        0.00000   0.00000   0.00000   0.00000   0.00000   0.00000
    D5        3.14159   0.00000   0.00000   0.00000   0.00000   3.14159
    D6        0.00000   0.00000   0.00000   0.00000   0.00000   0.00000
    D7        0.00000   0.00000   0.00000   0.00000   0.00000   0.00000
    D8        3.14159   0.00000   0.00000   0.00000   0.00000   3.14159
    D9        0.00000   0.00000   0.00000   0.00000   0.00000   0.00000
   D10        3.14159   0.00000   0.00000   0.00000   0.00000   3.14159
   D11        3.14159   0.00000   0.00000   0.00000   0.00000   3.14159
   D12        0.00000   0.00000   0.00000   0.00000   0.00000   0.00000
   D13        3.14159   0.00000   0.00000   0.00000   0.00000   3.14159
   D14        0.00000   0.00000   0.00000   0.00000   0.00000   0.00000
   D15        0.00000   0.00000   0.00000   0.00000   0.00000   0.00000
   D16        3.14159   0.00000   0.00000   0.00000   0.00000   3.14159
         Item               Value     Threshold  Converged?
 Maximum Force            0.150201     0.000450     NO 
 RMS     Force            0.051469     0.000300     NO 
 Maximum Displacement     0.195520     0.001800     NO 
 RMS     Displacement     0.066835     0.001200     NO 
 Predicted change in Energy=-2.862452D-02
 GradGradGradGradGradGradGradGradGradGradGradGradGradGradGradGradGradGrad

                          Input orientation:                          
 ---------------------------------------------------------------------
 Center     Atomic     Atomic              Coordinates (Angstroms)
 Number     Number      Type              X           Y           Z
 ---------------------------------------------------------------------
    1          7             0        0.476774    0.000000    1.110999
    2          1             0        0.474735    0.000000   -1.997010
    3          6             0       -0.984830    0.000000   -0.539944
    4          1             0       -1.870761    0.000000   -1.085919
    5          6             0       -0.826315    0.000000    0.817645
    6          1             0       -1.590919    0.000000    1.525985
    7          1             0        2.159194    0.000000   -0.144337
    8          6             0        1.124125    0.000000   -0.035950
    9          7             0        0.245810    0.000000   -1.044438
 ---------------------------------------------------------------------
                    Distance matrix (angstroms):
                    1          2          3          4          5
     1  N    0.000000
     2  H    3.108009   0.000000
     3  C    2.204972   2.062370   0.000000
     4  H    3.215178   2.516235   1.040655   0.000000
     5  C    1.335701   3.100808   1.366812   2.171272   0.000000
     6  H    2.108926   4.083922   2.153000   2.626853   1.042289
     7  H    2.099144   2.503957   3.168815   4.138492   3.136666
     8  C    1.317025   2.065784   2.168341   3.173607   2.129047
     9  N    2.167777   0.979693   1.330034   2.116978   2.148676
                    6          7          8          9
     6  H    0.000000
     7  H    4.105280   0.000000
     8  C    3.132269   1.040728   0.000000
     9  N    3.159217   2.114526   1.337343   0.000000
 Stoichiometry    C3H4N2
 Framework group  CS[SG(C3H4N2)]
 Deg. of freedom   15
 Full point group                 CS      NOp   2
 Largest Abelian subgroup         CS      NOp   2
 Largest concise Abelian subgroup C1      NOp   1
                         Standard orientation:                         
 ---------------------------------------------------------------------
 Center     Atomic     Atomic              Coordinates (Angstroms)
 Number     Number      Type              X           Y           Z
 ---------------------------------------------------------------------
    1          7             0       -0.710462   -0.969936    0.000000
    2          1             0       -0.008512    2.057768    0.000000
    3          6             0        1.085406    0.309423    0.000000
    4          1             0        2.071538    0.641849    0.000000
    5          6             0        0.625218   -0.977590    0.000000
    6          1             0        1.210652   -1.839931    0.000000
    7          1             0       -2.066942    0.632052    0.000000
    8          6             0       -1.082875    0.293339    0.000000
    9          7             0        0.000000    1.078112    0.000000
 ---------------------------------------------------------------------
 Rotational constants (GHZ):     10.1059637      9.7921291      4.9732857
 Isotopes: N-14,H-1,C-12,H-1,C-12,H-1,H-1,C-12,N-14
 Standard basis: 6-31G (6D, 7F)
 There are    43 symmetry adapted basis functions of A'  symmetry.
 There are    10 symmetry adapted basis functions of A"  symmetry.
 Crude estimate of integral set expansion from redundant integrals=1.000.
 Integral buffers will be    131072 words long.
 Raffenetti 2 integral format.
 Two-electron integral symmetry is turned on.
    53 basis functions      126 primitive gaussians
    18 alpha electrons       18 beta electrons
       nuclear repulsion energy       166.4443169365 Hartrees.
 One-electron integrals computed using PRISM.
 NBasis=    53 RedAO= T  NBF=    43    10
 NBsUse=    53 1.00D-04 NBFU=    43    10
 Initial guess read from the read-write file:
 Initial guess orbital symmetries:
       Occupied  (A') (A') (A') (A') (A') (A') (A') (A') (A') (A')
                 (A') (A") (A') (A') (A') (A") (A') (A")
       Virtual   (A") (A') (A") (A') (A') (A') (A') (A') (A') (A')
                 (A') (A") (A') (A") (A") (A') (A') (A') (A') (A")
                 (A') (A") (A') (A') (A') (A') (A') (A') (A') (A')
                 (A') (A') (A') (A') (A')
 Requested convergence on RMS density matrix=1.00D-08 within  64 cycles.
 Requested convergence on MAX density matrix=1.00D-06.
 Keep R1 and R2 integrals in memory in canonical form, NReq=     2863944.
 Integral accuracy reduced to 1.0D-05 until final iterations.
 Initial convergence to 1.0D-05 achieved.  Increase integral accuracy.
 SCF Done:  E(RB+HF-LYP) =  -226.129191047     A.U. after   14 cycles
             Convg  =    0.4469D-08             -V/T =  2.0025
             S**2   =   0.0000
 ***** Axes restored to original set *****
 -------------------------------------------------------------------
 Center     Atomic                   Forces (Hartrees/Bohr)
 Number     Number              X              Y              Z
 -------------------------------------------------------------------
    1          7           0.038577643    0.000000000    0.038263066
    2          1           0.006082866    0.000000000   -0.027184973
    3          6          -0.036442027    0.000000000    0.019212380
    4          1          -0.021502862    0.000000000   -0.020514933
    5          6          -0.022744119    0.000000000   -0.014535446
    6          1          -0.017806156    0.000000000    0.022663365
    7          1           0.028366614    0.000000000   -0.004850551
    8          6           0.007842850    0.000000000    0.020620915
    9          7           0.017625190    0.000000000   -0.033673822
 -------------------------------------------------------------------
 Cartesian Forces:  Max     0.038577643 RMS     0.019839591

 GradGradGradGradGradGradGradGradGradGradGradGradGradGradGradGradGradGrad
 Berny optimization.
 Internal  Forces:  Max     0.054748608 RMS     0.018048816
 Search for a local minimum.
 Step number   2 out of a maximum of  48
 All quantities printed in internal units (Hartrees-Bohrs-Radians)
 Update second derivatives using information from points  1  2
 Trust test= 2.15D+00 RLast= 3.00D-01 DXMaxT set to 4.24D-01
     Eigenvalues ---    0.03210   0.03262   0.03288   0.03315   0.03352
     Eigenvalues ---    0.03406   0.15927   0.16000   0.16000   0.16001
     Eigenvalues ---    0.22149   0.22857   0.49304   0.49603   0.50971
     Eigenvalues ---    0.55767   0.60919   0.63974   0.70335   0.73650
     Eigenvalues ---    0.764951000.000001000.000001000.000001000.00000
     Eigenvalues --- 1000.000001000.000001000.000001000.000001000.00000
     Eigenvalues --- 1000.000001000.000001000.000001000.000001000.00000
     Eigenvalues --- 1000.000001000.000001000.00000
 RFO step:  Lambda=-2.45494029D-03.
 Quartic linear search produced a step of  0.70402.
 Iteration  1 RMS(Cart)=  0.04928757 RMS(Int)=  0.00086142
 Iteration  2 RMS(Cart)=  0.00101952 RMS(Int)=  0.00007439
 Iteration  3 RMS(Cart)=  0.00000122 RMS(Int)=  0.00007438
 Iteration  4 RMS(Cart)=  0.00000000 RMS(Int)=  0.00007438
 Variable       Old X    -DE/DX   Delta X   Delta X   Delta X     New X
                                 (Linear)    (Quad)   (Total)
    R1        2.52411   0.05127   0.08055   0.00549   0.08593   2.61004
    R2        2.48882   0.02407   0.04727  -0.00880   0.03837   2.52719
    R3        1.85135   0.02785   0.05596   0.00272   0.05868   1.91004
    R4        1.96655   0.02907   0.06827   0.00733   0.07561   2.04216
    R5        2.58290   0.02535   0.06313  -0.01602   0.04714   2.63004
    R6        2.51340   0.05475   0.08696   0.00502   0.09211   2.60551
    R7        1.96964   0.02846   0.06742   0.00724   0.07466   2.04430
    R8        1.96669   0.02872   0.06823   0.00622   0.07446   2.04115
    R9        2.52721   0.04539   0.07866   0.00098   0.07969   2.60690
    A1        1.86321  -0.00132   0.00375  -0.03030  -0.02682   1.83639
    A2        2.23933   0.00766   0.02066   0.04382   0.06439   2.30372
    A3        2.20024  -0.00450  -0.00407  -0.04986  -0.05401   2.14624
    A4        1.84361  -0.00316  -0.01659   0.00604  -0.01038   1.83323
    A5        1.90846   0.00506   0.00933   0.01698   0.02625   1.93472
    A6        2.17294  -0.00698  -0.01326  -0.04344  -0.05667   2.11627
    A7        2.20178   0.00193   0.00393   0.02646   0.03042   2.23220
    A8        2.18897   0.00019   0.00526  -0.00163   0.00364   2.19262
    A9        1.91124   0.00330  -0.00453   0.03361   0.02905   1.94029
   A10        2.18298  -0.00349  -0.00073  -0.03198  -0.03270   2.15028
   A11        2.19570   0.00153  -0.00391   0.00876   0.00477   2.20046
   A12        2.18923   0.00234  -0.00413   0.01756   0.01334   2.20257
   A13        1.89826  -0.00387   0.00803  -0.02632  -0.01811   1.88015
    D1        0.00000   0.00000   0.00000   0.00000   0.00000   0.00000
    D2        3.14159   0.00000   0.00000   0.00000   0.00000   3.14159
    D3        3.14159   0.00000   0.00000   0.00000   0.00000   3.14159
    D4        0.00000   0.00000   0.00000   0.00000   0.00000   0.00000
    D5        3.14159   0.00000   0.00000   0.00000   0.00000   3.14159
    D6        0.00000   0.00000   0.00000   0.00000   0.00000   0.00000
    D7        0.00000   0.00000   0.00000   0.00000   0.00000   0.00000
    D8        3.14159   0.00000   0.00000   0.00000   0.00000   3.14159
    D9        0.00000   0.00000   0.00000   0.00000   0.00000   0.00000
   D10        3.14159   0.00000   0.00000   0.00000   0.00000   3.14159
   D11        3.14159   0.00000   0.00000   0.00000   0.00000   3.14159
   D12        0.00000   0.00000   0.00000   0.00000   0.00000   0.00000
   D13        3.14159   0.00000   0.00000   0.00000   0.00000   3.14159
   D14        0.00000   0.00000   0.00000   0.00000   0.00000   0.00000
   D15        0.00000   0.00000   0.00000   0.00000   0.00000   0.00000
   D16        3.14159   0.00000   0.00000   0.00000   0.00000   3.14159
         Item               Value     Threshold  Converged?
 Maximum Force            0.054749     0.000450     NO 
 RMS     Force            0.018049     0.000300     NO 
 Maximum Displacement     0.147500     0.001800     NO 
 RMS     Displacement     0.049172     0.001200     NO 
 Predicted change in Energy=-1.636803D-02
 GradGradGradGradGradGradGradGradGradGradGradGradGradGradGradGradGradGrad

                          Input orientation:                          
 ---------------------------------------------------------------------
 Center     Atomic     Atomic              Coordinates (Angstroms)
 Number     Number      Type              X           Y           Z
 ---------------------------------------------------------------------
    1          7             0        0.495751    0.000000    1.151141
    2          1             0        0.487031    0.000000   -2.058758
    3          6             0       -1.026239    0.000000   -0.550794
    4          1             0       -1.915645    0.000000   -1.164629
    5          6             0       -0.847431    0.000000    0.829427
    6          1             0       -1.608668    0.000000    1.598063
    7          1             0        2.209915    0.000000   -0.152567
    8          6             0        1.137702    0.000000   -0.022041
    9          7             0        0.248341    0.000000   -1.076598
 ---------------------------------------------------------------------
                    Distance matrix (angstroms):
                    1          2          3          4          5
     1  N    0.000000
     2  H    3.209911   0.000000
     3  C    2.283208   2.136338   0.000000
     4  H    3.343295   2.563653   1.080664   0.000000
     5  C    1.381173   3.181572   1.391755   2.262153   0.000000
     6  H    2.151353   4.214770   2.226389   2.779694   1.081796
     7  H    2.153604   2.569415   3.260564   4.247883   3.211180
     8  C    1.337332   2.138127   2.227604   3.260127   2.160035
     9  N    2.241436   1.010747   1.378776   2.165775   2.198556
                    6          7          8          9
     6  H    0.000000
     7  H    4.200747   0.000000
     8  C    3.188618   1.080129   0.000000
     9  N    3.256116   2.168319   1.379512   0.000000
 Stoichiometry    C3H4N2
 Framework group  CS[SG(C3H4N2)]
 Deg. of freedom   15
 Full point group                 CS      NOp   2
 Largest Abelian subgroup         CS      NOp   2
 Largest concise Abelian subgroup C1      NOp   1
                         Standard orientation:                         
 ---------------------------------------------------------------------
 Center     Atomic     Atomic              Coordinates (Angstroms)
 Number     Number      Type              X           Y           Z
 ---------------------------------------------------------------------
    1          7             0       -0.740220   -1.002924    0.000000
    2          1             0       -0.012582    2.123427    0.000000
    3          6             0        1.124380    0.314765    0.000000
    4          1             0        2.128700    0.713736    0.000000
    5          6             0        0.640896   -0.990311    0.000000
    6          1             0        1.210578   -1.909955    0.000000
    7          1             0       -2.118730    0.651682    0.000000
    8          6             0       -1.103015    0.284258    0.000000
    9          7             0        0.000000    1.112758    0.000000
 ---------------------------------------------------------------------
 Rotational constants (GHZ):      9.6417747      9.1919284      4.7057396
 Isotopes: N-14,H-1,C-12,H-1,C-12,H-1,H-1,C-12,N-14
 Standard basis: 6-31G (6D, 7F)
 There are    43 symmetry adapted basis functions of A'  symmetry.
 There are    10 symmetry adapted basis functions of A"  symmetry.
 Crude estimate of integral set expansion from redundant integrals=1.000.
 Integral buffers will be    131072 words long.
 Raffenetti 2 integral format.
 Two-electron integral symmetry is turned on.
    53 basis functions      126 primitive gaussians
    18 alpha electrons       18 beta electrons
       nuclear repulsion energy       161.8603506519 Hartrees.
 One-electron integrals computed using PRISM.
 NBasis=    53 RedAO= T  NBF=    43    10
 NBsUse=    53 1.00D-04 NBFU=    43    10
 Initial guess read from the read-write file:
 Initial guess orbital symmetries:
       Occupied  (A') (A') (A') (A') (A') (A') (A') (A') (A') (A')
                 (A') (A') (A") (A') (A') (A") (A') (A")
       Virtual   (A") (A') (A") (A') (A') (A') (A') (A') (A') (A')
                 (A') (A") (A') (A") (A') (A") (A') (A') (A') (A')
                 (A") (A") (A') (A') (A') (A') (A') (A') (A') (A')
                 (A') (A') (A') (A') (A')
 Requested convergence on RMS density matrix=1.00D-08 within  64 cycles.
 Requested convergence on MAX density matrix=1.00D-06.
 Keep R1 and R2 integrals in memory in canonical form, NReq=     2863944.
 Integral accuracy reduced to 1.0D-05 until final iterations.
 Initial convergence to 1.0D-05 achieved.  Increase integral accuracy.
 SCF Done:  E(RB+HF-LYP) =  -226.141089992     A.U. after   13 cycles
             Convg  =    0.5532D-08             -V/T =  2.0056
             S**2   =   0.0000
 ***** Axes restored to original set *****
 -------------------------------------------------------------------
 Center     Atomic                   Forces (Hartrees/Bohr)
 Number     Number              X              Y              Z
 -------------------------------------------------------------------
    1          7           0.009081086    0.000000000   -0.007177577
    2          1          -0.000571899    0.000000000    0.003171486
    3          6          -0.008553073    0.000000000    0.012649452
    4          1           0.002614806    0.000000000    0.001643907
    5          6          -0.015842176    0.000000000   -0.007101819
    6          1           0.002143670    0.000000000   -0.002291407
    7          1          -0.002466143    0.000000000    0.000012083
    8          6           0.005326349    0.000000000    0.004014731
    9          7           0.008267379    0.000000000   -0.004920854
 -------------------------------------------------------------------
 Cartesian Forces:  Max     0.015842176 RMS     0.005582589

 GradGradGradGradGradGradGradGradGradGradGradGradGradGradGradGradGradGrad
 Berny optimization.
 Internal  Forces:  Max     0.010777911 RMS     0.003354719
 Search for a local minimum.
 Step number   3 out of a maximum of  48
 All quantities printed in internal units (Hartrees-Bohrs-Radians)
 Update second derivatives using information from points  1  2  3
 Trust test= 7.27D-01 RLast= 2.48D-01 DXMaxT set to 4.24D-01
     Eigenvalues ---    0.03205   0.03261   0.03287   0.03305   0.03350
     Eigenvalues ---    0.03404   0.15552   0.16000   0.16000   0.16003
     Eigenvalues ---    0.22170   0.23555   0.45674   0.49327   0.49607
     Eigenvalues ---    0.56225   0.58612   0.63279   0.64873   0.73442
     Eigenvalues ---    0.746941000.000001000.000001000.000001000.00000
     Eigenvalues --- 1000.000001000.000001000.000001000.000001000.00000
     Eigenvalues --- 1000.000001000.000001000.000001000.000001000.00000
     Eigenvalues --- 1000.000001000.000001000.00000
 RFO step:  Lambda=-7.70708112D-04.
 Quartic linear search produced a step of -0.00977.
 Iteration  1 RMS(Cart)=  0.00714710 RMS(Int)=  0.00002762
 Iteration  2 RMS(Cart)=  0.00002571 RMS(Int)=  0.00000487
 Iteration  3 RMS(Cart)=  0.00000000 RMS(Int)=  0.00000487
 Variable       Old X    -DE/DX   Delta X   Delta X   Delta X     New X
                                 (Linear)    (Quad)   (Total)
    R1        2.61004   0.00983  -0.00084   0.01611   0.01528   2.62532
    R2        2.52719  -0.00477  -0.00037  -0.00508  -0.00546   2.52173
    R3        1.91004  -0.00322  -0.00057  -0.00309  -0.00367   1.90637
    R4        2.04216  -0.00309  -0.00074  -0.00342  -0.00416   2.03800
    R5        2.63004  -0.01078  -0.00046  -0.01531  -0.01576   2.61428
    R6        2.60551   0.01005  -0.00090   0.01631   0.01541   2.62092
    R7        2.04430  -0.00314  -0.00073  -0.00361  -0.00434   2.03995
    R8        2.04115  -0.00245  -0.00073  -0.00219  -0.00292   2.03823
    R9        2.60690  -0.00059  -0.00078   0.00227   0.00148   2.60838
    A1        1.83639   0.00463   0.00026   0.01730   0.01757   1.85396
    A2        2.30372  -0.00026  -0.00063   0.00044  -0.00019   2.30353
    A3        2.14624  -0.00053   0.00053  -0.00460  -0.00407   2.14217
    A4        1.83323   0.00080   0.00010   0.00416   0.00426   1.83748
    A5        1.93472  -0.00281  -0.00026  -0.01173  -0.01197   1.92275
    A6        2.11627   0.00150   0.00055   0.00519   0.00574   2.12201
    A7        2.23220   0.00131  -0.00030   0.00653   0.00623   2.23843
    A8        2.19262   0.00208  -0.00004   0.00970   0.00967   2.20228
    A9        1.94029  -0.00357  -0.00028  -0.01478  -0.01507   1.92522
   A10        2.15028   0.00149   0.00032   0.00508   0.00541   2.15569
   A11        2.20046  -0.00030  -0.00005  -0.00150  -0.00154   2.19892
   A12        2.20257  -0.00067  -0.00013  -0.00355  -0.00367   2.19890
   A13        1.88015   0.00096   0.00018   0.00505   0.00521   1.88537
    D1        0.00000   0.00000   0.00000   0.00000   0.00000   0.00000
    D2        3.14159   0.00000   0.00000   0.00000   0.00000   3.14159
    D3        3.14159   0.00000   0.00000   0.00000   0.00000   3.14159
    D4        0.00000   0.00000   0.00000   0.00000   0.00000   0.00000
    D5        3.14159   0.00000   0.00000   0.00000   0.00000   3.14159
    D6        0.00000   0.00000   0.00000   0.00000   0.00000   0.00000
    D7        0.00000   0.00000   0.00000   0.00000   0.00000   0.00000
    D8        3.14159   0.00000   0.00000   0.00000   0.00000   3.14159
    D9        0.00000   0.00000   0.00000   0.00000   0.00000   0.00000
   D10        3.14159   0.00000   0.00000   0.00000   0.00000   3.14159
   D11        3.14159   0.00000   0.00000   0.00000   0.00000   3.14159
   D12        0.00000   0.00000   0.00000   0.00000   0.00000   0.00000
   D13        3.14159   0.00000   0.00000   0.00000   0.00000   3.14159
   D14        0.00000   0.00000   0.00000   0.00000   0.00000   0.00000
   D15        0.00000   0.00000   0.00000   0.00000   0.00000   0.00000
   D16        3.14159   0.00000   0.00000   0.00000   0.00000   3.14159
         Item               Value     Threshold  Converged?
 Maximum Force            0.010778     0.000450     NO 
 RMS     Force            0.003355     0.000300     NO 
 Maximum Displacement     0.020024     0.001800     NO 
 RMS     Displacement     0.007145     0.001200     NO 
 Predicted change in Energy=-3.858740D-04
 GradGradGradGradGradGradGradGradGradGradGradGradGradGradGradGradGradGrad

                          Input orientation:                          
 ---------------------------------------------------------------------
 Center     Atomic     Atomic              Coordinates (Angstroms)
 Number     Number      Type              X           Y           Z
 ---------------------------------------------------------------------
    1          7             0        0.496882    0.000000    1.132671
    2          1             0        0.488529    0.000000   -2.062743
    3          6             0       -1.029461    0.000000   -0.552333
    4          1             0       -1.914899    0.000000   -1.168025
    5          6             0       -0.856794    0.000000    0.820265
    6          1             0       -1.614468    0.000000    1.589189
    7          1             0        2.218937    0.000000   -0.162704
    8          6             0        1.148305    0.000000   -0.031970
    9          7             0        0.252359    0.000000   -1.081970
 ---------------------------------------------------------------------
                    Distance matrix (angstroms):
                    1          2          3          4          5
     1  N    0.000000
     2  H    3.195426   0.000000
     3  C    2.273535   2.141409   0.000000
     4  H    3.333151   2.564564   1.078461   0.000000
     5  C    1.389258   3.181451   1.383416   2.252307   0.000000
     6  H    2.160141   4.214168   2.219989   2.773534   1.079497
     7  H    2.154871   2.569914   3.271681   4.254324   3.228986
     8  C    1.334444   2.135262   2.239071   3.267085   2.178699
     9  N    2.228099   1.008808   1.386931   2.168966   2.201981
                    6          7          8          9
     6  H    0.000000
     7  H    4.214751   0.000000
     8  C    3.203291   1.078585   0.000000
     9  N    3.258855   2.170824   1.380296   0.000000
 Stoichiometry    C3H4N2
 Framework group  CS[SG(C3H4N2)]
 Deg. of freedom   15
 Full point group                 CS      NOp   2
 Largest Abelian subgroup         CS      NOp   2
 Largest concise Abelian subgroup C1      NOp   1
                         Standard orientation:                         
 ---------------------------------------------------------------------
 Center     Atomic     Atomic              Coordinates (Angstroms)
 Number     Number      Type              X           Y           Z
 ---------------------------------------------------------------------
    1          7             0       -0.741826   -0.990849    0.000000
    2          1             0       -0.006907    2.118916    0.000000
    3          6             0        1.127760    0.302832    0.000000
    4          1             0        2.130029    0.700997    0.000000
    5          6             0        0.647427   -0.994519    0.000000
    6          1             0        1.210353   -1.915621    0.000000
    7          1             0       -2.124119    0.662251    0.000000
    8          6             0       -1.111282    0.291432    0.000000
    9          7             0        0.000000    1.110132    0.000000
 ---------------------------------------------------------------------
 Rotational constants (GHZ):      9.5088003      9.2964562      4.7007147
 Isotopes: N-14,H-1,C-12,H-1,C-12,H-1,H-1,C-12,N-14
 Standard basis: 6-31G (6D, 7F)
 There are    43 symmetry adapted basis functions of A'  symmetry.
 There are    10 symmetry adapted basis functions of A"  symmetry.
 Crude estimate of integral set expansion from redundant integrals=1.000.
 Integral buffers will be    131072 words long.
 Raffenetti 2 integral format.
 Two-electron integral symmetry is turned on.
    53 basis functions      126 primitive gaussians
    18 alpha electrons       18 beta electrons
       nuclear repulsion energy       161.7685652021 Hartrees.
 One-electron integrals computed using PRISM.
 NBasis=    53 RedAO= T  NBF=    43    10
 NBsUse=    53 1.00D-04 NBFU=    43    10
 Initial guess read from the read-write file:
 Initial guess orbital symmetries:
       Occupied  (A') (A') (A') (A') (A') (A') (A') (A') (A') (A')
                 (A') (A') (A') (A") (A') (A") (A') (A")
       Virtual   (A") (A") (A') (A') (A') (A') (A') (A') (A') (A')
                 (A') (A") (A') (A') (A") (A') (A") (A') (A') (A')
                 (A") (A') (A") (A') (A') (A') (A') (A') (A') (A')
                 (A') (A') (A') (A') (A')
 Requested convergence on RMS density matrix=1.00D-08 within  64 cycles.
 Requested convergence on MAX density matrix=1.00D-06.
 Keep R1 and R2 integrals in memory in canonical form, NReq=     2863944.
 Integral accuracy reduced to 1.0D-05 until final iterations.
 Initial convergence to 1.0D-05 achieved.  Increase integral accuracy.
 SCF Done:  E(RB+HF-LYP) =  -226.141485952     A.U. after   11 cycles
             Convg  =    0.9838D-08             -V/T =  2.0057
             S**2   =   0.0000
 ***** Axes restored to original set *****
 -------------------------------------------------------------------
 Center     Atomic                   Forces (Hartrees/Bohr)
 Number     Number              X              Y              Z
 -------------------------------------------------------------------
    1          7           0.007114314    0.000000000    0.000838824
    2          1          -0.000815776    0.000000000    0.001083532
    3          6          -0.002734590    0.000000000    0.005086077
    4          1           0.001434508    0.000000000    0.000336313
    5          6          -0.004182995    0.000000000   -0.005586770
    6          1           0.001738268    0.000000000   -0.000859604
    7          1          -0.001529506    0.000000000    0.000195281
    8          6          -0.005043106    0.000000000    0.003958504
    9          7           0.004018884    0.000000000   -0.005052157
 -------------------------------------------------------------------
 Cartesian Forces:  Max     0.007114314 RMS     0.002895076

 GradGradGradGradGradGradGradGradGradGradGradGradGradGradGradGradGradGrad
 Berny optimization.
 Internal  Forces:  Max     0.003793450 RMS     0.001474475
 Search for a local minimum.
 Step number   4 out of a maximum of  48
 All quantities printed in internal units (Hartrees-Bohrs-Radians)
 Update second derivatives using information from points  1  2  3  4
 Trust test= 1.03D+00 RLast= 4.20D-02 DXMaxT set to 4.24D-01
     Eigenvalues ---    0.03204   0.03262   0.03287   0.03305   0.03350
     Eigenvalues ---    0.03405   0.15081   0.15995   0.16000   0.16040
     Eigenvalues ---    0.21755   0.33341   0.43486   0.48176   0.49437
     Eigenvalues ---    0.49679   0.57164   0.60025   0.64409   0.68845
     Eigenvalues ---    0.770921000.000001000.000001000.000001000.00000
     Eigenvalues --- 1000.000001000.000001000.000001000.000001000.00000
     Eigenvalues --- 1000.000001000.000001000.000001000.000001000.00000
     Eigenvalues --- 1000.000001000.000001000.00000
 RFO step:  Lambda=-2.25841895D-04.
 Quartic linear search produced a step of  0.02671.
 Iteration  1 RMS(Cart)=  0.00308115 RMS(Int)=  0.00000786
 Iteration  2 RMS(Cart)=  0.00000806 RMS(Int)=  0.00000465
 Iteration  3 RMS(Cart)=  0.00000000 RMS(Int)=  0.00000465
 Variable       Old X    -DE/DX   Delta X   Delta X   Delta X     New X
                                 (Linear)    (Quad)   (Total)
    R1        2.62532   0.00331   0.00041   0.00981   0.01021   2.63553
    R2        2.52173  -0.00379  -0.00015  -0.00628  -0.00642   2.51531
    R3        1.90637  -0.00124  -0.00010  -0.00217  -0.00226   1.90411
    R4        2.03800  -0.00137  -0.00011  -0.00274  -0.00286   2.03514
    R5        2.61428  -0.00363  -0.00042  -0.00899  -0.00942   2.60486
    R6        2.62092   0.00157   0.00041   0.00773   0.00814   2.62906
    R7        2.03995  -0.00183  -0.00012  -0.00380  -0.00391   2.03604
    R8        2.03823  -0.00154  -0.00008  -0.00277  -0.00284   2.03538
    R9        2.60838   0.00027   0.00004   0.00198   0.00203   2.61041
    A1        1.85396  -0.00257   0.00047  -0.00728  -0.00681   1.84716
    A2        2.30353   0.00053  -0.00001   0.00346   0.00346   2.30699
    A3        2.14217  -0.00058  -0.00011  -0.00527  -0.00537   2.13679
    A4        1.83748   0.00005   0.00011   0.00181   0.00191   1.83940
    A5        1.92275   0.00146  -0.00032   0.00370   0.00337   1.92611
    A6        2.12201  -0.00138   0.00015  -0.00624  -0.00608   2.11593
    A7        2.23843  -0.00009   0.00017   0.00254   0.00272   2.24114
    A8        2.20228  -0.00156   0.00026  -0.00408  -0.00383   2.19846
    A9        1.92522   0.00309  -0.00040   0.00928   0.00889   1.93410
   A10        2.15569  -0.00154   0.00014  -0.00520  -0.00506   2.15062
   A11        2.19892   0.00051  -0.00004   0.00077   0.00072   2.19965
   A12        2.19890   0.00153  -0.00010   0.00674   0.00664   2.20553
   A13        1.88537  -0.00204   0.00014  -0.00751  -0.00736   1.87800
    D1        0.00000   0.00000   0.00000   0.00000   0.00000   0.00000
    D2        3.14159   0.00000   0.00000   0.00000   0.00000   3.14159
    D3        3.14159   0.00000   0.00000   0.00000   0.00000   3.14159
    D4        0.00000   0.00000   0.00000   0.00000   0.00000   0.00000
    D5        3.14159   0.00000   0.00000   0.00000   0.00000   3.14159
    D6        0.00000   0.00000   0.00000   0.00000   0.00000   0.00000
    D7        0.00000   0.00000   0.00000   0.00000   0.00000   0.00000
    D8        3.14159   0.00000   0.00000   0.00000   0.00000   3.14159
    D9        0.00000   0.00000   0.00000   0.00000   0.00000   0.00000
   D10        3.14159   0.00000   0.00000   0.00000   0.00000   3.14159
   D11        3.14159   0.00000   0.00000   0.00000   0.00000   3.14159
   D12        0.00000   0.00000   0.00000   0.00000   0.00000   0.00000
   D13        3.14159   0.00000   0.00000   0.00000   0.00000   3.14159
   D14        0.00000   0.00000   0.00000   0.00000   0.00000   0.00000
   D15        0.00000   0.00000   0.00000   0.00000   0.00000   0.00000
   D16        3.14159   0.00000   0.00000   0.00000   0.00000   3.14159
         Item               Value     Threshold  Converged?
 Maximum Force            0.003793     0.000450     NO 
 RMS     Force            0.001474     0.000300     NO 
 Maximum Displacement     0.008349     0.001800     NO 
 RMS     Displacement     0.003083     0.001200     NO 
 Predicted change in Energy=-1.131029D-04
 GradGradGradGradGradGradGradGradGradGradGradGradGradGradGradGradGradGrad

                          Input orientation:                          
 ---------------------------------------------------------------------
 Center     Atomic     Atomic              Coordinates (Angstroms)
 Number     Number      Type              X           Y           Z
 ---------------------------------------------------------------------
    1          7             0        0.500631    0.000000    1.135606
    2          1             0        0.487917    0.000000   -2.063865
    3          6             0       -1.030501    0.000000   -0.549144
    4          1             0       -1.913011    0.000000   -1.166394
    5          6             0       -0.857475    0.000000    0.818384
    6          1             0       -1.611056    0.000000    1.588427
    7          1             0        2.214655    0.000000   -0.159666
    8          6             0        1.145561    0.000000   -0.028761
    9          7             0        0.253898    0.000000   -1.083807
 ---------------------------------------------------------------------
                    Distance matrix (angstroms):
                    1          2          3          4          5
     1  N    0.000000
     2  H    3.199496   0.000000
     3  C    2.276565   2.144755   0.000000
     4  H    3.335396   2.563183   1.076950   0.000000
     5  C    1.394662   3.180792   1.378430   2.247999   0.000000
     6  H    2.159692   4.212472   2.215006   2.771320   1.077427
     7  H    2.148397   2.570525   3.268445   4.248662   3.224061
     8  C    1.331046   2.138725   2.237419   3.263291   2.174812
     9  N    2.233086   1.007610   1.391239   2.168482   2.203062
                    6          7          8          9
     6  H    0.000000
     7  H    4.206174   0.000000
     8  C    3.195971   1.077079   0.000000
     9  N    3.258664   2.167627   1.381371   0.000000
 Stoichiometry    C3H4N2
 Framework group  CS[SG(C3H4N2)]
 Deg. of freedom   15
 Full point group                 CS      NOp   2
 Largest Abelian subgroup         CS      NOp   2
 Largest concise Abelian subgroup C1      NOp   1
                         Standard orientation:                         
 ---------------------------------------------------------------------
 Center     Atomic     Atomic              Coordinates (Angstroms)
 Number     Number      Type              X           Y           Z
 ---------------------------------------------------------------------
    1          7             0       -0.746115   -0.991532    0.000000
    2          1             0       -0.004472    2.120821    0.000000
    3          6             0        1.128722    0.299875    0.000000
    4          1             0        2.128693    0.699725    0.000000
    5          6             0        0.648547   -0.992217    0.000000
    6          1             0        1.206774   -1.913755    0.000000
    7          1             0       -2.119786    0.660326    0.000000
    8          6             0       -1.108671    0.289185    0.000000
    9          7             0        0.000000    1.113221    0.000000
 ---------------------------------------------------------------------
 Rotational constants (GHZ):      9.5173262      9.2798017      4.6985316
 Isotopes: N-14,H-1,C-12,H-1,C-12,H-1,H-1,C-12,N-14
 Standard basis: 6-31G (6D, 7F)
 There are    43 symmetry adapted basis functions of A'  symmetry.
 There are    10 symmetry adapted basis functions of A"  symmetry.
 Crude estimate of integral set expansion from redundant integrals=1.000.
 Integral buffers will be    131072 words long.
 Raffenetti 2 integral format.
 Two-electron integral symmetry is turned on.
    53 basis functions      126 primitive gaussians
    18 alpha electrons       18 beta electrons
       nuclear repulsion energy       161.7472082618 Hartrees.
 One-electron integrals computed using PRISM.
 NBasis=    53 RedAO= T  NBF=    43    10
 NBsUse=    53 1.00D-04 NBFU=    43    10
 Initial guess read from the read-write file:
 Initial guess orbital symmetries:
       Occupied  (A') (A') (A') (A') (A') (A') (A') (A') (A') (A')
                 (A') (A') (A') (A") (A') (A") (A') (A")
       Virtual   (A") (A") (A') (A') (A') (A') (A') (A') (A') (A')
                 (A') (A") (A') (A') (A") (A') (A") (A') (A') (A')
                 (A") (A') (A") (A') (A') (A') (A') (A') (A') (A')
                 (A') (A') (A') (A') (A')
 Requested convergence on RMS density matrix=1.00D-08 within  64 cycles.
 Requested convergence on MAX density matrix=1.00D-06.
 Keep R1 and R2 integrals in memory in canonical form, NReq=     2863944.
 SCF Done:  E(RB+HF-LYP) =  -226.141626862     A.U. after    9 cycles
             Convg  =    0.9384D-08             -V/T =  2.0056
             S**2   =   0.0000
 ***** Axes restored to original set *****
 -------------------------------------------------------------------
 Center     Atomic                   Forces (Hartrees/Bohr)
 Number     Number              X              Y              Z
 -------------------------------------------------------------------
    1          7           0.002364375    0.000000000   -0.000081132
    2          1          -0.000232782    0.000000000    0.000314379
    3          6          -0.000002638    0.000000000    0.000908323
    4          1           0.000262301    0.000000000    0.000052142
    5          6          -0.001517959    0.000000000   -0.001486309
    6          1           0.000450199    0.000000000   -0.000035889
    7          1          -0.000204648    0.000000000    0.000015189
    8          6          -0.002253019    0.000000000    0.000734085
    9          7           0.001134170    0.000000000   -0.000420789
 -------------------------------------------------------------------
 Cartesian Forces:  Max     0.002364375 RMS     0.000827406

 GradGradGradGradGradGradGradGradGradGradGradGradGradGradGradGradGradGrad
 Berny optimization.
 Internal  Forces:  Max     0.001352661 RMS     0.000425722
 Search for a local minimum.
 Step number   5 out of a maximum of  48
 All quantities printed in internal units (Hartrees-Bohrs-Radians)
 Update second derivatives using information from points  1  2  3  4  5

 Trust test= 1.25D+00 RLast= 2.66D-02 DXMaxT set to 4.24D-01
     Eigenvalues ---    0.03204   0.03262   0.03287   0.03304   0.03350
     Eigenvalues ---    0.03404   0.14344   0.15964   0.16008   0.16027
     Eigenvalues ---    0.21191   0.28627   0.44215   0.47644   0.49506
     Eigenvalues ---    0.49670   0.57097   0.59678   0.64822   0.67461
     Eigenvalues ---    0.766641000.000001000.000001000.000001000.00000
     Eigenvalues --- 1000.000001000.000001000.000001000.000001000.00000
     Eigenvalues --- 1000.000001000.000001000.000001000.000001000.00000
     Eigenvalues --- 1000.000001000.000001000.00000
 RFO step:  Lambda=-4.08240324D-06.
 Quartic linear search produced a step of  0.32292.
 Iteration  1 RMS(Cart)=  0.00109396 RMS(Int)=  0.00000245
 Iteration  2 RMS(Cart)=  0.00000129 RMS(Int)=  0.00000217
 Iteration  3 RMS(Cart)=  0.00000000 RMS(Int)=  0.00000217
 Variable       Old X    -DE/DX   Delta X   Delta X   Delta X     New X
                                 (Linear)    (Quad)   (Total)
    R1        2.63553   0.00108   0.00330   0.00071   0.00401   2.63954
    R2        2.51531  -0.00135  -0.00207  -0.00090  -0.00297   2.51234
    R3        1.90411  -0.00036  -0.00073  -0.00018  -0.00091   1.90320
    R4        2.03514  -0.00024  -0.00092   0.00017  -0.00075   2.03439
    R5        2.60486  -0.00085  -0.00304   0.00013  -0.00291   2.60194
    R6        2.62906  -0.00009   0.00263  -0.00081   0.00182   2.63088
    R7        2.03604  -0.00034  -0.00126   0.00021  -0.00105   2.03499
    R8        2.03538  -0.00021  -0.00092   0.00039  -0.00053   2.03485
    R9        2.61041  -0.00069   0.00066  -0.00155  -0.00089   2.60952
    A1        1.84716  -0.00074  -0.00220  -0.00012  -0.00232   1.84484
    A2        2.30699   0.00011   0.00112  -0.00027   0.00085   2.30784
    A3        2.13679  -0.00011  -0.00173   0.00018  -0.00156   2.13524
    A4        1.83940  -0.00001   0.00062   0.00009   0.00071   1.84011
    A5        1.92611   0.00010   0.00109  -0.00070   0.00038   1.92650
    A6        2.11593  -0.00035  -0.00196  -0.00080  -0.00276   2.11317
    A7        2.24114   0.00025   0.00088   0.00150   0.00238   2.24352
    A8        2.19846  -0.00047  -0.00124  -0.00015  -0.00139   2.19707
    A9        1.93410   0.00096   0.00287   0.00046   0.00333   1.93744
   A10        2.15062  -0.00049  -0.00163  -0.00031  -0.00194   2.14868
   A11        2.19965   0.00001   0.00023  -0.00030  -0.00007   2.19958
   A12        2.20553   0.00030   0.00214   0.00003   0.00217   2.20771
   A13        1.87800  -0.00032  -0.00238   0.00027  -0.00210   1.87590
    D1        0.00000   0.00000   0.00000   0.00000   0.00000   0.00000
    D2        3.14159   0.00000   0.00000   0.00000   0.00000   3.14159
    D3        3.14159   0.00000   0.00000   0.00000   0.00000   3.14159
    D4        0.00000   0.00000   0.00000   0.00000   0.00000   0.00000
    D5        3.14159   0.00000   0.00000   0.00000   0.00000   3.14159
    D6        0.00000   0.00000   0.00000   0.00000   0.00000   0.00000
    D7        0.00000   0.00000   0.00000   0.00000   0.00000   0.00000
    D8        3.14159   0.00000   0.00000   0.00000   0.00000   3.14159
    D9        0.00000   0.00000   0.00000   0.00000   0.00000   0.00000
   D10        3.14159   0.00000   0.00000   0.00000   0.00000   3.14159
   D11        3.14159   0.00000   0.00000   0.00000   0.00000   3.14159
   D12        0.00000   0.00000   0.00000   0.00000   0.00000   0.00000
   D13        3.14159   0.00000   0.00000   0.00000   0.00000   3.14159
   D14        0.00000   0.00000   0.00000   0.00000   0.00000   0.00000
   D15        0.00000   0.00000   0.00000   0.00000   0.00000   0.00000
   D16        3.14159   0.00000   0.00000   0.00000   0.00000   3.14159
         Item               Value     Threshold  Converged?
 Maximum Force            0.001353     0.000450     NO 
 RMS     Force            0.000426     0.000300     NO 
 Maximum Displacement     0.003416     0.001800     NO 
 RMS     Displacement     0.001094     0.001200     YES
 Predicted change in Energy=-1.095654D-05
 GradGradGradGradGradGradGradGradGradGradGradGradGradGradGradGradGradGrad

                          Input orientation:                          
 ---------------------------------------------------------------------
 Center     Atomic     Atomic              Coordinates (Angstroms)
 Number     Number      Type              X           Y           Z
 ---------------------------------------------------------------------
    1          7             0        0.501708    0.000000    1.135821
    2          1             0        0.487679    0.000000   -2.064119
    3          6             0       -1.030754    0.000000   -0.548785
    4          1             0       -1.912258    0.000000   -1.166775
    5          6             0       -0.858263    0.000000    0.817256
    6          1             0       -1.609812    0.000000    1.588503
    7          1             0        2.212689    0.000000   -0.159448
    8          6             0        1.143912    0.000000   -0.028258
    9          7             0        0.254289    0.000000   -1.084407
 ---------------------------------------------------------------------
                    Distance matrix (angstroms):
                    1          2          3          4          5
     1  N    0.000000
     2  H    3.199971   0.000000
     3  C    2.277353   2.145199   0.000000
     4  H    3.336043   2.562211   1.076551   0.000000
     5  C    1.396784   3.180234   1.376889   2.246617   0.000000
     6  H    2.159500   4.212021   2.214342   2.771828   1.076869
     7  H    2.145968   2.569714   3.266727   4.246163   3.222530
     8  C    1.329475   2.139012   2.236094   3.261349   2.173384
     9  N    2.233972   1.007128   1.392202   2.168112   2.203202
                    6          7          8          9
     6  H    0.000000
     7  H    4.203195   0.000000
     8  C    3.193260   1.076799   0.000000
     9  N    3.258730   2.165844   1.380899   0.000000
 Stoichiometry    C3H4N2
 Framework group  CS[SG(C3H4N2)]
 Deg. of freedom   15
 Full point group                 CS      NOp   2
 Largest Abelian subgroup         CS      NOp   2
 Largest concise Abelian subgroup C1      NOp   1
                         Standard orientation:                         
 ---------------------------------------------------------------------
 Center     Atomic     Atomic              Coordinates (Angstroms)
 Number     Number      Type              X           Y           Z
 ---------------------------------------------------------------------
    1          7             0       -0.747795   -0.991289    0.000000
    2          1             0       -0.003544    2.120929    0.000000
    3          6             0        1.128811    0.298939    0.000000
    4          1             0        2.128128    0.699345    0.000000
    5          6             0        0.648989   -0.991640    0.000000
    6          1             0        1.204601   -1.914106    0.000000
    7          1             0       -2.117856    0.660410    0.000000
    8          6             0       -1.107260    0.288668    0.000000
    9          7             0        0.000000    1.113808    0.000000
 ---------------------------------------------------------------------
 Rotational constants (GHZ):      9.5228852      9.2779506      4.6994112
 Isotopes: N-14,H-1,C-12,H-1,C-12,H-1,H-1,C-12,N-14
 Standard basis: 6-31G (6D, 7F)
 There are    43 symmetry adapted basis functions of A'  symmetry.
 There are    10 symmetry adapted basis functions of A"  symmetry.
 Crude estimate of integral set expansion from redundant integrals=1.000.
 Integral buffers will be    131072 words long.
 Raffenetti 2 integral format.
 Two-electron integral symmetry is turned on.
    53 basis functions      126 primitive gaussians
    18 alpha electrons       18 beta electrons
       nuclear repulsion energy       161.7670266562 Hartrees.
 One-electron integrals computed using PRISM.
 NBasis=    53 RedAO= T  NBF=    43    10
 NBsUse=    53 1.00D-04 NBFU=    43    10
 Initial guess read from the read-write file:
 Initial guess orbital symmetries:
       Occupied  (A') (A') (A') (A') (A') (A') (A') (A') (A') (A')
                 (A') (A') (A') (A") (A') (A") (A') (A")
       Virtual   (A") (A") (A') (A') (A') (A') (A') (A') (A') (A')
                 (A') (A") (A') (A') (A") (A') (A") (A') (A') (A')
                 (A") (A') (A") (A') (A') (A') (A') (A') (A') (A')
                 (A') (A') (A') (A') (A')
 Requested convergence on RMS density matrix=1.00D-08 within  64 cycles.
 Requested convergence on MAX density matrix=1.00D-06.
 Keep R1 and R2 integrals in memory in canonical form, NReq=     2863944.
 SCF Done:  E(RB+HF-LYP) =  -226.141638662     A.U. after    9 cycles
             Convg  =    0.3996D-08             -V/T =  2.0056
             S**2   =   0.0000
 ***** Axes restored to original set *****
 -------------------------------------------------------------------
 Center     Atomic                   Forces (Hartrees/Bohr)
 Number     Number              X              Y              Z
 -------------------------------------------------------------------
    1          7           0.000436970    0.000000000    0.000043690
    2          1          -0.000014418    0.000000000   -0.000018684
    3          6           0.000344397    0.000000000   -0.000260135
    4          1          -0.000057495    0.000000000   -0.000018495
    5          6          -0.000395471    0.000000000   -0.000053186
    6          1           0.000018981    0.000000000    0.000080399
    7          1           0.000097229    0.000000000   -0.000010046
    8          6          -0.000472760    0.000000000   -0.000262799
    9          7           0.000042567    0.000000000    0.000499256
 -------------------------------------------------------------------
 Cartesian Forces:  Max     0.000499256 RMS     0.000202079

 GradGradGradGradGradGradGradGradGradGradGradGradGradGradGradGradGradGrad
 Berny optimization.
 Internal  Forces:  Max     0.000372734 RMS     0.000105157
 Search for a local minimum.
 Step number   6 out of a maximum of  48
 All quantities printed in internal units (Hartrees-Bohrs-Radians)
 Update second derivatives using information from points  1  2  3  4  5
                                                        6
 Trust test= 1.08D+00 RLast= 9.42D-03 DXMaxT set to 4.24D-01
     Eigenvalues ---    0.03204   0.03262   0.03287   0.03304   0.03350
     Eigenvalues ---    0.03404   0.13954   0.15837   0.16000   0.16033
     Eigenvalues ---    0.21337   0.28807   0.43562   0.47046   0.49489
     Eigenvalues ---    0.49675   0.56717   0.59256   0.63254   0.67502
     Eigenvalues ---    0.762481000.000001000.000001000.000001000.00000
     Eigenvalues --- 1000.000001000.000001000.000001000.000001000.00000
     Eigenvalues --- 1000.000001000.000001000.000001000.000001000.00000
     Eigenvalues --- 1000.000001000.000001000.00000
 RFO step:  Lambda=-6.80203606D-07.
 Quartic linear search produced a step of  0.07783.
 Iteration  1 RMS(Cart)=  0.00020511 RMS(Int)=  0.00000007
 Iteration  2 RMS(Cart)=  0.00000004 RMS(Int)=  0.00000006
 Variable       Old X    -DE/DX   Delta X   Delta X   Delta X     New X
                                 (Linear)    (Quad)   (Total)
    R1        2.63954   0.00030   0.00031   0.00037   0.00068   2.64022
    R2        2.51234  -0.00009  -0.00023  -0.00004  -0.00027   2.51208
    R3        1.90320   0.00001  -0.00007   0.00004  -0.00003   1.90317
    R4        2.03439   0.00006  -0.00006   0.00013   0.00007   2.03446
    R5        2.60194   0.00008  -0.00023   0.00028   0.00005   2.60199
    R6        2.63088  -0.00026   0.00014  -0.00044  -0.00029   2.63059
    R7        2.03499   0.00004  -0.00008   0.00011   0.00003   2.03502
    R8        2.03485   0.00010  -0.00004   0.00020   0.00016   2.03502
    R9        2.60952  -0.00037  -0.00007  -0.00058  -0.00065   2.60887
    A1        1.84484  -0.00012  -0.00018  -0.00010  -0.00028   1.84456
    A2        2.30784  -0.00001   0.00007  -0.00012  -0.00006   2.30778
    A3        2.13524   0.00002  -0.00012   0.00018   0.00006   2.13530
    A4        1.84011  -0.00001   0.00006  -0.00006   0.00000   1.84011
    A5        1.92650  -0.00012   0.00003  -0.00023  -0.00020   1.92630
    A6        2.11317  -0.00001  -0.00022  -0.00022  -0.00044   2.11273
    A7        2.24352   0.00013   0.00019   0.00045   0.00063   2.24416
    A8        2.19707  -0.00006  -0.00011  -0.00007  -0.00018   2.19689
    A9        1.93744   0.00011   0.00026   0.00006   0.00032   1.93776
   A10        2.14868  -0.00005  -0.00015   0.00001  -0.00014   2.14854
   A11        2.19958  -0.00009  -0.00001  -0.00021  -0.00022   2.19936
   A12        2.20771  -0.00005   0.00017  -0.00010   0.00007   2.20777
   A13        1.87590   0.00014  -0.00016   0.00032   0.00015   1.87606
    D1        0.00000   0.00000   0.00000   0.00000   0.00000   0.00000
    D2        3.14159   0.00000   0.00000   0.00000   0.00000   3.14159
    D3        3.14159   0.00000   0.00000   0.00000   0.00000   3.14159
    D4        0.00000   0.00000   0.00000   0.00000   0.00000   0.00000
    D5        3.14159   0.00000   0.00000   0.00000   0.00000   3.14159
    D6        0.00000   0.00000   0.00000   0.00000   0.00000   0.00000
    D7        0.00000   0.00000   0.00000   0.00000   0.00000   0.00000
    D8        3.14159   0.00000   0.00000   0.00000   0.00000   3.14159
    D9        0.00000   0.00000   0.00000   0.00000   0.00000   0.00000
   D10        3.14159   0.00000   0.00000   0.00000   0.00000   3.14159
   D11        3.14159   0.00000   0.00000   0.00000   0.00000   3.14159
   D12        0.00000   0.00000   0.00000   0.00000   0.00000   0.00000
   D13        3.14159   0.00000   0.00000   0.00000   0.00000   3.14159
   D14        0.00000   0.00000   0.00000   0.00000   0.00000   0.00000
   D15        0.00000   0.00000   0.00000   0.00000   0.00000   0.00000
   D16        3.14159   0.00000   0.00000   0.00000   0.00000   3.14159
         Item               Value     Threshold  Converged?
 Maximum Force            0.000373     0.000450     YES
 RMS     Force            0.000105     0.000300     YES
 Maximum Displacement     0.000514     0.001800     YES
 RMS     Displacement     0.000205     0.001200     YES
 Predicted change in Energy=-4.017850D-07
 Optimization completed.
    -- Stationary point found.
                         ----------------------------
                         !   Optimized Parameters   !
                         ! (Angstroms and Degrees)  !
 ------------------------                            -------------------------
 ! Name  Definition              Value          Derivative Info.             !
 -----------------------------------------------------------------------------
 ! R1    R(1,5)                  1.3968         -DE/DX =    0.0003           !
 ! R2    R(1,8)                  1.3295         -DE/DX =   -0.0001           !
 ! R3    R(2,9)                  1.0071         -DE/DX =    0.               !
 ! R4    R(3,4)                  1.0766         -DE/DX =    0.0001           !
 ! R5    R(3,5)                  1.3769         -DE/DX =    0.0001           !
 ! R6    R(3,9)                  1.3922         -DE/DX =   -0.0003           !
 ! R7    R(5,6)                  1.0769         -DE/DX =    0.               !
 ! R8    R(7,8)                  1.0768         -DE/DX =    0.0001           !
 ! R9    R(8,9)                  1.3809         -DE/DX =   -0.0004           !
 ! A1    A(5,1,8)              105.7013         -DE/DX =   -0.0001           !
 ! A2    A(4,3,5)              132.2295         -DE/DX =    0.               !
 ! A3    A(4,3,9)              122.3401         -DE/DX =    0.               !
 ! A4    A(5,3,9)              105.4303         -DE/DX =    0.               !
 ! A5    A(1,5,3)              110.3801         -DE/DX =   -0.0001           !
 ! A6    A(1,5,6)              121.0755         -DE/DX =    0.               !
 ! A7    A(3,5,6)              128.5444         -DE/DX =    0.0001           !
 ! A8    A(1,8,7)              125.8827         -DE/DX =   -0.0001           !
 ! A9    A(1,8,9)              111.0069         -DE/DX =    0.0001           !
 ! A10   A(7,8,9)              123.1104         -DE/DX =   -0.0001           !
 ! A11   A(2,9,3)              126.0265         -DE/DX =   -0.0001           !
 ! A12   A(2,9,8)              126.4922         -DE/DX =   -0.0001           !
 ! A13   A(3,9,8)              107.4813         -DE/DX =    0.0001           !
 ! D1    D(8,1,5,3)              0.             -DE/DX =    0.               !
 ! D2    D(8,1,5,6)            180.             -DE/DX =    0.               !
 ! D3    D(5,1,8,7)            180.             -DE/DX =    0.               !
 ! D4    D(5,1,8,9)              0.             -DE/DX =    0.               !
 ! D5    D(4,3,5,1)            180.             -DE/DX =    0.               !
 ! D6    D(4,3,5,6)              0.             -DE/DX =    0.               !
 ! D7    D(9,3,5,1)              0.             -DE/DX =    0.               !
 ! D8    D(9,3,5,6)            180.             -DE/DX =    0.               !
 ! D9    D(4,3,9,2)              0.             -DE/DX =    0.               !
 ! D10   D(4,3,9,8)            180.             -DE/DX =    0.               !
 ! D11   D(5,3,9,2)            180.             -DE/DX =    0.               !
 ! D12   D(5,3,9,8)              0.             -DE/DX =    0.               !
 ! D13   D(1,8,9,2)            180.             -DE/DX =    0.               !
 ! D14   D(1,8,9,3)              0.             -DE/DX =    0.               !
 ! D15   D(7,8,9,2)              0.             -DE/DX =    0.               !
 ! D16   D(7,8,9,3)            180.             -DE/DX =    0.               !
 -----------------------------------------------------------------------------
 GradGradGradGradGradGradGradGradGradGradGradGradGradGradGradGradGradGrad

                          Input orientation:                          
 ---------------------------------------------------------------------
 Center     Atomic     Atomic              Coordinates (Angstroms)
 Number     Number      Type              X           Y           Z
 ---------------------------------------------------------------------
    1          7             0        0.501718    0.000000    1.135840
    2          1             0        0.487689    0.000000   -2.064101
    3          6             0       -1.030744    0.000000   -0.548767
    4          1             0       -1.912248    0.000000   -1.166757
    5          6             0       -0.858253    0.000000    0.817275
    6          1             0       -1.609803    0.000000    1.588521
    7          1             0        2.212699    0.000000   -0.159430
    8          6             0        1.143922    0.000000   -0.028239
    9          7             0        0.254299    0.000000   -1.084389
 ---------------------------------------------------------------------
                    Distance matrix (angstroms):
[...]
                    19                     20                     21
                    A'                     A'                     A'
 Frequencies --  3314.9826              3330.2196              3683.4169
 Red. masses --     1.0970                 1.1084                 1.0818
 Frc consts  --     7.1028                 7.2424                 8.6475
 IR Inten    --     1.9338                 2.0098                42.8921
 Raman Activ --     0.0000                 0.0000                 0.0000
 Depolar     --     0.0000                 0.0000                 0.0000
 Atom AN      X      Y      Z        X      Y      Z        X      Y      Z
   1   7     0.00   0.00   0.00     0.00   0.00   0.00     0.00   0.00   0.00
   2   1    -0.01   0.02   0.00     0.00  -0.03   0.00    -0.01   1.00   0.00
   3   6    -0.02  -0.01   0.00    -0.07  -0.03   0.00     0.00   0.00   0.00
   4   1     0.25   0.10   0.00     0.73   0.30   0.00     0.02   0.00   0.00
   5   6     0.00   0.00   0.00    -0.02   0.05   0.00     0.00   0.00   0.00
   6   1     0.02  -0.04   0.00     0.28  -0.48   0.00     0.00   0.00   0.00
   7   1     0.90  -0.33   0.00    -0.23   0.08   0.00    -0.02   0.00   0.00
   8   6    -0.08   0.03   0.00     0.02  -0.01   0.00     0.00   0.00   0.00
   9   7     0.00   0.00   0.00     0.00   0.00   0.00     0.00  -0.08   0.00

 -------------------
 - Thermochemistry -
 -------------------
 Temperature   298.150 Kelvin.  Pressure   1.00000 Atm.
 Atom  1 has atomic number  7 and mass  14.00307
 Atom  2 has atomic number  1 and mass   1.00783
 Atom  3 has atomic number  6 and mass  12.00000
 Atom  4 has atomic number  1 and mass   1.00783
 Atom  5 has atomic number  6 and mass  12.00000
 Atom  6 has atomic number  1 and mass   1.00783
 Atom  7 has atomic number  1 and mass   1.00783
 Atom  8 has atomic number  6 and mass  12.00000
 Atom  9 has atomic number  7 and mass  14.00307
 Molecular mass:    68.03745 amu.
 Principal axes and moments of inertia in atomic units:
                           1         2         3
     EIGENVALUES --   189.51622 194.51938 384.03559
           X            0.49518   0.86879   0.00000
           Y            0.86879  -0.49518   0.00000
           Z            0.00000   0.00000   1.00000
 THIS MOLECULE IS AN ASYMMETRIC TOP.
 ROTATIONAL SYMMETRY NUMBER  1.
 ROTATIONAL TEMPERATURES (KELVIN)      0.45702     0.44527     0.22553
 ROTATIONAL CONSTANTS (GHZ)            9.52289     9.27795     4.69941
 Zero-point vibrational energy     188948.1 (Joules/Mol)
                                   45.15967 (Kcal/Mol)
 VIBRATIONAL TEMPERATURES:    913.26   948.57   982.74  1093.38  1179.58
          (KELVIN)           1287.44  1324.51  1376.42  1542.25  1599.47
                             1635.66  1683.86  1858.37  1958.55  2054.14
                             2148.89  2247.96  4754.65  4769.49  4791.42
                             5299.58
 
 Zero-point correction=                           0.071967 (Hartree/Particle)
 Thermal correction to Energy=                    0.075631
 Thermal correction to Enthalpy=                  0.076575
 Thermal correction to Gibbs Free Energy=         0.045717
 Sum of electronic and zero-point Energies=           -226.069672
 Sum of electronic and thermal Energies=              -226.066008
 Sum of electronic and thermal Enthalpies=            -226.065064
 Sum of electronic and thermal Free Energies=         -226.095921
 
                     E (Thermal)             CV                S
                      KCAL/MOL        CAL/MOL-KELVIN    CAL/MOL-KELVIN
 TOTAL                   47.459             12.992             64.945
 ELECTRONIC               0.000              0.000              0.000
 TRANSLATIONAL            0.889              2.981             38.570
 ROTATIONAL               0.889              2.981             24.163
 VIBRATIONAL             45.682              7.031              2.212
                       Q            LOG10(Q)             LN(Q)
 TOTAL BOT       0.936812D-21        -21.028348        -48.419560
 TOTAL V=0       0.118503D+13         12.073730         27.800790
 VIB (BOT)       0.997080D-33        -33.001270        -75.988232
 VIB (V=0)       0.126127D+01          0.100808          0.232118
 ELECTRONIC      0.100000D+01          0.000000          0.000000
 TRANSLATIONAL   0.220588D+08          7.343582         16.909224
 ROTATIONAL      0.425931D+05          4.629340         10.659449
 ***** Axes restored to original set *****
 -------------------------------------------------------------------
 Center     Atomic                   Forces (Hartrees/Bohr)
 Number     Number              X              Y              Z
 -------------------------------------------------------------------
    1          7           0.000436916    0.000000000    0.000043722
    2          1          -0.000014410    0.000000000   -0.000018691
    3          6           0.000344402    0.000000000   -0.000260082
    4          1          -0.000057485    0.000000000   -0.000018494
    5          6          -0.000395478    0.000000000   -0.000053213
    6          1           0.000018998    0.000000000    0.000080387
    7          1           0.000097247    0.000000000   -0.000010047
    8          6          -0.000472724    0.000000000   -0.000262826
    9          7           0.000042534    0.000000000    0.000499243
 -------------------------------------------------------------------
 Cartesian Forces:  Max     0.000499243 RMS     0.000202071

 GradGradGradGradGradGradGradGradGradGradGradGradGradGradGradGradGradGrad
 Berny optimization.
 Internal  Forces:  Max     0.000372718 RMS     0.000105151
 Search for a local minimum.
 Step number   1 out of a maximum of  48
 All quantities printed in internal units (Hartrees-Bohrs-Radians)
 Second derivative matrix not updated -- analytic derivatives used.
     Eigenvalues ---    0.00768   0.01208   0.02057   0.02781   0.06215
     Eigenvalues ---    0.06403   0.10134   0.10918   0.11327   0.11889
     Eigenvalues ---    0.23321   0.24466   0.32757   0.38080   0.38607
     Eigenvalues ---    0.38634   0.40042   0.43902   0.47938   0.48796
     Eigenvalues ---    0.561381000.000001000.000001000.000001000.00000
     Eigenvalues --- 1000.000001000.000001000.000001000.000001000.00000
     Eigenvalues --- 1000.000001000.000001000.000001000.000001000.00000
     Eigenvalues --- 1000.000001000.000001000.00000
 Angle between quadratic step and forces=  23.47 degrees.
 Linear search not attempted -- first point.
 Iteration  1 RMS(Cart)=  0.00031409 RMS(Int)=  0.00000009
 Iteration  2 RMS(Cart)=  0.00000009 RMS(Int)=  0.00000001
 Variable       Old X    -DE/DX   Delta X   Delta X   Delta X     New X
                                 (Linear)    (Quad)   (Total)
    R1        2.63954   0.00030   0.00000   0.00116   0.00116   2.64070
    R2        2.51234  -0.00009   0.00000  -0.00011  -0.00011   2.51223
    R3        1.90320   0.00001   0.00000   0.00004   0.00004   1.90324
    R4        2.03439   0.00006   0.00000   0.00015   0.00015   2.03454
    R5        2.60194   0.00008   0.00000   0.00019   0.00019   2.60213
    R6        2.63088  -0.00026   0.00000  -0.00067  -0.00067   2.63021
    R7        2.03499   0.00004   0.00000   0.00008   0.00008   2.03506
    R8        2.03485   0.00010   0.00000   0.00028   0.00028   2.03513
    R9        2.60952  -0.00037   0.00000  -0.00110  -0.00110   2.60842
    A1        1.84484  -0.00012   0.00000  -0.00043  -0.00043   1.84441
    A2        2.30784  -0.00001   0.00000  -0.00026  -0.00026   2.30758
    A3        2.13524   0.00002   0.00000   0.00020   0.00020   2.13544
    A4        1.84011  -0.00001   0.00000   0.00006   0.00006   1.84016
    A5        1.92650  -0.00012   0.00000  -0.00040  -0.00040   1.92610
    A6        2.11317  -0.00001   0.00000  -0.00057  -0.00057   2.11260
    A7        2.24352   0.00013   0.00000   0.00097   0.00097   2.24449
    A8        2.19707  -0.00006   0.00000  -0.00033  -0.00033   2.19673
    A9        1.93744   0.00011   0.00000   0.00037   0.00037   1.93781
   A10        2.14868  -0.00005   0.00000  -0.00004  -0.00004   2.14864
   A11        2.19958  -0.00009   0.00000  -0.00035  -0.00035   2.19923
   A12        2.20771  -0.00005   0.00000  -0.00005  -0.00005   2.20766
   A13        1.87590   0.00014   0.00000   0.00039   0.00039   1.87630
    D1        0.00000   0.00000   0.00000   0.00000   0.00000   0.00000
    D2        3.14159   0.00000   0.00000   0.00000   0.00000   3.14159
    D3        3.14159   0.00000   0.00000   0.00000   0.00000   3.14159
    D4        0.00000   0.00000   0.00000   0.00000   0.00000   0.00000
    D5        3.14159   0.00000   0.00000   0.00000   0.00000   3.14159
    D6        0.00000   0.00000   0.00000   0.00000   0.00000   0.00000
    D7        0.00000   0.00000   0.00000   0.00000   0.00000   0.00000
    D8        3.14159   0.00000   0.00000   0.00000   0.00000   3.14159
    D9        0.00000   0.00000   0.00000   0.00000   0.00000   0.00000
   D10        3.14159   0.00000   0.00000   0.00000   0.00000   3.14159
   D11        3.14159   0.00000   0.00000   0.00000   0.00000   3.14159
   D12        0.00000   0.00000   0.00000   0.00000   0.00000   0.00000
   D13        3.14159   0.00000   0.00000   0.00000   0.00000   3.14159
   D14        0.00000   0.00000   0.00000   0.00000   0.00000   0.00000
   D15        0.00000   0.00000   0.00000   0.00000   0.00000   0.00000
   D16        3.14159   0.00000   0.00000   0.00000   0.00000   3.14159
         Item               Value     Threshold  Converged?
 Maximum Force            0.000373     0.000450     YES
 RMS     Force            0.000105     0.000300     YES
 Maximum Displacement     0.000768     0.001800     YES
 RMS     Displacement     0.000314     0.001200     YES
 Predicted change in Energy=-6.907116D-07
 Optimization completed.
    -- Stationary point found.
                         ----------------------------
                         !   Optimized Parameters   !
                         ! (Angstroms and Degrees)  !
 ------------------------                            -------------------------
 ! Name  Definition              Value          Derivative Info.             !
 -----------------------------------------------------------------------------
 ! R1    R(1,5)                  1.3968         -DE/DX =    0.0003           !
 ! R2    R(1,8)                  1.3295         -DE/DX =   -0.0001           !
 ! R3    R(2,9)                  1.0071         -DE/DX =    0.               !
 ! R4    R(3,4)                  1.0766         -DE/DX =    0.0001           !
 ! R5    R(3,5)                  1.3769         -DE/DX =    0.0001           !
 ! R6    R(3,9)                  1.3922         -DE/DX =   -0.0003           !
 ! R7    R(5,6)                  1.0769         -DE/DX =    0.               !
 ! R8    R(7,8)                  1.0768         -DE/DX =    0.0001           !
 ! R9    R(8,9)                  1.3809         -DE/DX =   -0.0004           !
 ! A1    A(5,1,8)              105.7013         -DE/DX =   -0.0001           !
 ! A2    A(4,3,5)              132.2295         -DE/DX =    0.               !
 ! A3    A(4,3,9)              122.3401         -DE/DX =    0.               !
 ! A4    A(5,3,9)              105.4303         -DE/DX =    0.               !
 ! A5    A(1,5,3)              110.3801         -DE/DX =   -0.0001           !
 ! A6    A(1,5,6)              121.0755         -DE/DX =    0.               !
 ! A7    A(3,5,6)              128.5444         -DE/DX =    0.0001           !
 ! A8    A(1,8,7)              125.8827         -DE/DX =   -0.0001           !
 ! A9    A(1,8,9)              111.0069         -DE/DX =    0.0001           !
 ! A10   A(7,8,9)              123.1104         -DE/DX =   -0.0001           !
 ! A11   A(2,9,3)              126.0265         -DE/DX =   -0.0001           !
 ! A12   A(2,9,8)              126.4922         -DE/DX =   -0.0001           !
 ! A13   A(3,9,8)              107.4813         -DE/DX =    0.0001           !
 ! D1    D(8,1,5,3)              0.             -DE/DX =    0.               !
 ! D2    D(8,1,5,6)            180.             -DE/DX =    0.               !
 ! D3    D(5,1,8,7)            180.             -DE/DX =    0.               !
 ! D4    D(5,1,8,9)              0.             -DE/DX =    0.               !
 ! D5    D(4,3,5,1)            180.             -DE/DX =    0.               !
 ! D6    D(4,3,5,6)              0.             -DE/DX =    0.               !
 ! D7    D(9,3,5,1)              0.             -DE/DX =    0.               !
 ! D8    D(9,3,5,6)            180.             -DE/DX =    0.               !
 ! D9    D(4,3,9,2)              0.             -DE/DX =    0.               !
 ! D10   D(4,3,9,8)            180.             -DE/DX =    0.               !
 ! D11   D(5,3,9,2)            180.             -DE/DX =    0.               !
 ! D12   D(5,3,9,8)              0.             -DE/DX =    0.               !
 ! D13   D(1,8,9,2)            180.             -DE/DX =    0.               !
 ! D14   D(1,8,9,3)              0.             -DE/DX =    0.               !
 ! D15   D(7,8,9,2)              0.             -DE/DX =    0.               !
 ! D16   D(7,8,9,3)            180.             -DE/DX =    0.               !
 -----------------------------------------------------------------------------
 GradGradGradGradGradGradGradGradGradGradGradGradGradGradGradGradGradGrad

 1\1\ NATIONAL INSTITUTE OF STANDARDS AND TECHNOLOGY-NEVA\Freq\RB3LYP\6
 -31G\C3H4N2\RDJ3\06-Apr-2000\0\\#N GEOM=ALLCHECK GUESS=TCHECK RB3LYP/6
 -31G FREQ\\1H imidazole C3H4N2 casno=288324\\0,1\N,0.5017180415,0.,1.1
 358395053\H,0.487689238,0.,-2.0641010046\C,-1.0307438453,0.,-0.5487668
 196\H,-1.9122482809,0.,-1.1667565115\C,-0.8582532692,0.,0.8172748591\H
 ,-1.6098026047,0.,1.5885212676\H,2.2126988734,0.,-0.1594296019\C,1.143
 9215064,0.,-0.0282393755\N,0.2542985902,0.,-1.0843889529\\Version=SGI6
 4-G98RevA.7\State=1-A'\HF=-226.1416387\RMSD=3.797e-09\RMSF=2.021e-04\D
 ipole=-0.1706136,0.,-1.5536893\DipoleDeriv=-0.3673903,-0.0001782,0.049
 3542,-0.0008572,-0.3133513,0.0003747,0.0312043,0.0001011,-0.509331,0.1
 995069,-0.0000278,-0.0023209,-0.0000084,0.3941439,0.0000172,0.0007989,
 0.0001128,0.1682938,-0.0070442,0.0001217,-0.2298114,0.0001185,-0.09535
 82,-0.0001228,-0.0368646,0.0001153,0.2077568,0.0215653,-0.0001033,-0.0
 419813,0.0000178,0.1885568,-0.0000017,-0.0713681,-0.0000703,0.0409474,
 0.1663998,-0.0000483,-0.1071764,0.0004976,-0.1276884,-0.0002381,-0.109
 6149,0.0000654,0.081662,0.0036258,0.0001332,0.0709619,-0.0001175,0.154
 2042,0.0000803,0.0749731,-0.000123,0.0343569,-0.0165376,0.0000318,0.02
 55956,0.0000086,0.1649907,0.0000295,0.038144,-0.0000003,0.0752013,0.13
 28317,0.0000246,0.0864998,0.0006032,0.0038896,-0.0002348,-0.0122337,-0
 .0001317,0.5092439,-0.1329567,0.0000462,0.1488784,-0.0002624,-0.369387
 1,0.0000957,0.0849608,-0.0000694,-0.6081305\Polar=47.6561195,0.0020376
 ,15.8014512,-0.8879772,-0.0008483,45.0366495\PG=CS [SG(C3H4N2)]\NImag=
 0\\0.46480645,-0.00005341,0.10447957,-0.06111115,0.00002214,0.53917239
 ,-0.00346438,-0.00000530,-0.00770146,0.08544977,0.00000039,0.00636654,
 -0.00000241,0.00000005,0.01505131,-0.00292003,0.00001599,-0.00254756,-
 0.09534164,-0.00000138,0.45914726,-0.03671786,0.00001330,-0.01892994,0
 .00579831,0.00000020,-0.00560875,0.74422437,0.00000813,0.01729689,-0.0
 0000222,0.00000042,-0.00479346,-0.00000118,-0.00000122,0.11893795,-0.0
 8547262,0.00004486,-0.02623762,0.03093778,0.00000086,-0.00098247,0.175
 82793,-0.00000764,0.74695076,0.00166822,-0.00000843,0.00166456,0.00013
 054,-0.00000068,0.00031359,-0.26521191,0.00000267,-0.14460460,0.278041
 50,0.00000188,0.00709004,-0.00000117,0.00000048,-0.00124225,-0.0000021
 4,-0.00000174,-0.02379007,-0.00000116,0.00000098,0.01976870,-0.0033198
 9,-0.00000716,-0.00449902,-0.00097338,-0.00000062,0.00019354,-0.155370
 05,0.00000223,-0.16734437,0.15639861,0.00000068,0.16091327,-0.22740606
 ,-0.00000516,-0.01862677,-0.00830539,-0.00000049,-0.00181102,-0.103971
 88,0.00000004,-0.02144257,0.00571504,0.00000036,-0.02293967,0.64626222
 ,0.00002723,-0.07118986,-0.00000895,0.00000204,0.00304812,-0.00000364,
 -0.00000388,-0.06914357,-0.00002475,0.00000309,-0.00052503,0.00000296,
 0.00000292,0.13828958,-0.04246450,-0.00000902,-0.10173933,0.00325482,0
 .00000164,0.00110295,-0.03325341,0.00000074,-0.38940856,0.00335182,0.0
 0000012,0.00158784,-0.17638913,0.00000368,0.80124196,-0.01889688,0.000
 03158,0.02066213,0.00074879,0.00000162,0.00011609,0.00913594,-0.000005
 23,-0.00768073,-0.00016375,-0.00000106,0.00081810,-0.20043757,-0.00001
 766,0.15445750,0.21454263,-0.00000689,-0.00500501,0.00000301,-0.000000
 23,0.00163850,0.00000042,-0.00000011,0.00038162,0.00000619,-0.00000070
 ,-0.00235303,-0.00000063,-0.00000006,-0.03089462,-0.00000172,0.0000036
 3,0.02408640,-0.00925636,-0.00002925,0.01137021,0.00116852,-0.00000126
 ,0.00008879,0.02162157,0.00000451,-0.00771874,-0.00058853,0.00000088,-
 0.00026331,0.15726438,0.00001650,-0.22629570,-0.16427140,-0.00000347,0
 .22638715,-0.00695297,0.00000983,0.00161804,-0.00053048,-0.00000087,-0
 .00062588,0.00158316,0.00000022,-0.00243114,-0.00028014,-0.00000004,0.
 00028885,0.00163122,-0.00000648,0.00159404,-0.00037567,0.00000169,-0.0
 0010267,0.38134524,0.00000126,-0.00527393,-0.00000269,-0.00000026,-0.0
 0119932,0.00000022,0.00000246,0.00279696,-0.00000010,-0.00000352,0.001
 60951,-0.00000234,-0.00000163,0.00729691,0.00000531,0.00000273,0.00098
 407,-0.00000215,-0.00000018,0.02097917,0.02929186,-0.00000122,-0.00050
 791,0.00056697,0.,0.00019938,-0.00110990,0.00000014,-0.00573361,-0.000
 92893,-0.00000007,0.00099584,0.00288998,0.00000102,-0.00397766,0.00133
 169,-0.00000035,0.00063469,-0.03803232,-0.00000005,0.06234490,-0.16529
 266,0.00000836,0.10749753,0.01713777,-0.00000086,0.01569641,-0.0954897
 8,-0.00000255,-0.00016655,-0.00232785,-0.00000005,0.00467217,-0.094548
 75,-0.00000317,0.02148865,-0.00524739,0.00000185,-0.00457306,-0.364785
 80,-0.00000267,0.03696059,0.90754611,0.00004071,-0.07667385,-0.0000185
 9,0.00000483,-0.00575559,-0.00001639,-0.00001421,0.01827833,-0.0000327
 0,0.00000902,0.00302937,0.00000700,0.00000490,0.01033992,0.00000519,-0
 .00002433,0.00544450,0.00002237,-0.00000655,-0.02532075,0.00000063,-0.
 00000651,0.13682932,0.14487173,-0.00001992,-0.30515842,-0.02018587,0.0
 0000274,-0.01080510,-0.04381098,0.00000096,-0.01140839,0.00375865,0.00
 000232,-0.00535682,0.06843873,0.00000431,-0.00915888,-0.00175629,-0.00
 000078,0.00074738,0.03238885,0.00000247,-0.06029661,-0.09560946,0.0000
 1988,0.59953399,-0.00774388,0.00000923,-0.02507294,-0.09696493,0.00000
 064,0.09018123,-0.25935036,-0.00000249,0.05503252,-0.01757165,-0.00000
 080,0.02042526,-0.01893886,-0.00000410,0.06796022,0.00069391,0.0000008
 1,-0.00126246,-0.01163456,0.00000181,-0.03096993,-0.19699167,-0.000007
 87,-0.08809534,0.60850200,-0.00001931,0.02290961,0.00001089,-0.0000020
 3,-0.01311385,0.00000810,0.00000520,-0.05996465,0.00001447,-0.00000244
 ,-0.00358723,-0.00000212,-0.00000088,0.01277855,-0.00000595,0.00000871
 ,0.00571757,-0.00000814,0.00000239,-0.00187262,-0.00000012,0.00000558,
 -0.06617124,-0.00001197,0.00000278,0.10330385,0.03038097,-0.00001641,-
 0.10985272,0.08827426,0.00000043,-0.44639678,0.06063354,0.00000246,-0.
 13811701,-0.01936516,0.00000053,0.01377302,0.01261608,0.00000888,-0.07
 335261,-0.00367708,-0.00000267,-0.00495047,0.00530221,-0.00000066,0.00
 634100,-0.08596626,0.00001260,-0.19809715,-0.08819856,-0.00000516,0.95
 065271\\-0.00043692,0.,-0.00004372,0.00001441,0.,0.00001869,-0.0003444
 0,0.,0.00026008,0.00005748,0.,0.00001849,0.00039548,0.,0.00005321,-0.0
 0001900,0.,-0.00008039,-0.00009725,0.,0.00001005,0.00047272,0.,0.00026
 283,-0.00004253,0.,-0.00049924\\\@


 LIFE CAN ONLY BE UNDERSTOOD BACKWARD, BUT MUST
 BE LIVED FORWARD. -- KIRKEGAARD
 Job cpu time:  0 days  0 hours  1 minutes 46.9 seconds.
 File lengths (MBytes):  RWF=   10 Int=    0 D2E=    0 Chk=    4 Scr=    1
 Normal termination of Gaussian 98.
