 Entering Gaussian System, Link 0=g09
 Initial command:
 /usr/local/gaussian/g09.d01.em64t.legacy.linda/g09/l1.exe "/tmp/rdj3/g09-5083/Gau-5139.inp" -scrdir="/tmp/rdj3/g09-5083/"
 Entering Link 1 = /usr/local/gaussian/g09.d01.em64t.legacy.linda/g09/l1.exe PID=      5140.
  
 Copyright (c) 1988,1990,1992,1993,1995,1998,2003,2009,2013,
            Gaussian, Inc.  All Rights Reserved.
  
 This is part of the Gaussian(R) 09 program.  It is based on
 the Gaussian(R) 03 system (copyright 2003, Gaussian, Inc.),
 the Gaussian(R) 98 system (copyright 1998, Gaussian, Inc.),
 the Gaussian(R) 94 system (copyright 1995, Gaussian, Inc.),
 the Gaussian 92(TM) system (copyright 1992, Gaussian, Inc.),
 the Gaussian 90(TM) system (copyright 1990, Gaussian, Inc.),
 the Gaussian 88(TM) system (copyright 1988, Gaussian, Inc.),
 the Gaussian 86(TM) system (copyright 1986, Carnegie Mellon
 University), and the Gaussian 82(TM) system (copyright 1983,
 Carnegie Mellon University). Gaussian is a federally registered
 trademark of Gaussian, Inc.
  
 This software contains proprietary and confidential information,
 including trade secrets, belonging to Gaussian, Inc.
  
 This software is provided under written license and may be
 used, copied, transmitted, or stored only in accord with that
 written license.
  
 The following legend is applicable only to US Government
 contracts under FAR:
  
                    RESTRICTED RIGHTS LEGEND
  
 Use, reproduction and disclosure by the US Government is
 subject to restrictions as set forth in subparagraphs (a)
 and (c) of the Commercial Computer Software - Restricted
 Rights clause in FAR 52.227-19.
  
 Gaussian, Inc.
 340 Quinnipiac St., Bldg. 40, Wallingford CT 06492
  
  
 ---------------------------------------------------------------
 Warning -- This program may not be used in any manner that
 competes with the business of Gaussian, Inc. or will provide
 assistance to any competitor of Gaussian, Inc.  The licensee
 of this program is prohibited from giving any competitor of
 Gaussian, Inc. access to this program.  By using this program,
 the user acknowledges that Gaussian, Inc. is engaged in the
 business of creating and licensing software in the field of
 computational chemistry and represents and warrants to the
 licensee that it is not a competitor of Gaussian, Inc. and that
 it will not use this program in any manner prohibited above.
 ---------------------------------------------------------------
  

 Cite this work as:
 Gaussian 09, Revision D.01,
 M. J. Frisch, G. W. Trucks, H. B. Schlegel, G. E. Scuseria, 
 M. A. Robb, J. R. Cheeseman, G. Scalmani, V. Barone, B. Mennucci, 
 G. A. Petersson, H. Nakatsuji, M. Caricato, X. Li, H. P. Hratchian, 
 A. F. Izmaylov, J. Bloino, G. Zheng, J. L. Sonnenberg, M. Hada, 
 M. Ehara, K. Toyota, R. Fukuda, J. Hasegawa, M. Ishida, T. Nakajima, 
 Y. Honda, O. Kitao, H. Nakai, T. Vreven, J. A. Montgomery, Jr., 
 J. E. Peralta, F. Ogliaro, M. Bearpark, J. J. Heyd, E. Brothers, 
 K. N. Kudin, V. N. Staroverov, T. Keith, R. Kobayashi, J. Normand, 
 K. Raghavachari, A. Rendell, J. C. Burant, S. S. Iyengar, J. Tomasi, 
 M. Cossi, N. Rega, J. M. Millam, M. Klene, J. E. Knox, J. B. Cross, 
 V. Bakken, C. Adamo, J. Jaramillo, R. Gomperts, R. E. Stratmann, 
 O. Yazyev, A. J. Austin, R. Cammi, C. Pomelli, J. W. Ochterski, 
 R. L. Martin, K. Morokuma, V. G. Zakrzewski, G. A. Voth, 
 P. Salvador, J. J. Dannenberg, S. Dapprich, A. D. Daniels, 
 O. Farkas, J. B. Foresman, J. V. Ortiz, J. Cioslowski, 
 and D. J. Fox, Gaussian, Inc., Wallingford CT, 2013.
 
 ******************************************
 Gaussian 09:  EM64L-G09RevD.01 24-Apr-2013
                16-Dec-2013 
 ******************************************
 %Nproc=8
 Will use up to    8 processors via shared memory.
 %mem=436000000
 -------------------------------
 #BLYP/6-311G* opt=z-matrix freq
 -------------------------------
 1/10=7,14=-1,18=40,26=3,38=1/1,3;
 2/12=2,17=6,18=5,29=3,40=1/2;
 3/5=4,6=6,7=1,11=2,16=1,25=1,30=1,71=1,74=402/1,2,3;
 4//1;
 5/5=2,38=5/2;
 6/7=2,8=2,9=2,10=2,28=1/1;
 7/29=1/1,2,3,16;
 1/10=7,14=-1,18=40,26=3/3(2);
 2/29=3/2;
 99//99;
 2/29=3/2;
 3/5=4,6=6,7=1,11=2,16=1,25=1,30=1,71=1,74=402/1,2,3;
 4/5=5,16=3,69=1/1;
 5/5=2,38=5/2;
 7//1,2,3,16;
 1/14=-1,18=40,26=3/3(-5);
 2/29=3/2;
 6/7=2,8=2,9=2,10=2,19=2,28=1/1;
 99/9=1/99;
 ------------------------------------------------------------------
 1H-tetrazole CH2N4 casno=288948 state=1 config=1 method=13 basis=7
 ------------------------------------------------------------------
 Symbolic Z-matrix:
 Charge =  0 Multiplicity = 1
 X
 X                    1     1. 
 C                    1     1.       2     90. 
 N                    1    rn1      2     90.      3    an1      0
 N                    1    rn2      2     90.      3    an2      0
 N                    1    rn3      2     90.      3    an3      0
 N                    1    rn4      2     90.      3    an4      0
 H                    3    rch      4    ach      5     180.     0
 H                    4    rnh      5    anh      6     180.     0
       Variables:
  rn1                   1.3716                   
  rn2                   1.4858                   
  rn3                   1.1594                   
  rn4                   0.8468                   
  rch                   1.0847                   
  rnh                   1.0167                   
  an1                  67.8215                   
  an2                 125.1437                   
  an3                 182.6403                   
  an4                 268.7726                   
  ach                 124.5983                   
  anh                 120.3164                   
 

 GradGradGradGradGradGradGradGradGradGradGradGradGradGradGradGradGradGrad
 Berny optimization.
 Initialization pass.
                       ----------------------------
                       !    Initial Parameters    !
                       ! (Angstroms and Degrees)  !
 ----------------------                            ----------------------
 !      Name          Value   Derivative information (Atomic Units)     !
 ------------------------------------------------------------------------
 !       rn1         1.3716   estimate D2E/DX2                          !
 !       rn2         1.4858   estimate D2E/DX2                          !
 !       rn3         1.1594   estimate D2E/DX2                          !
 !       rn4         0.8468   estimate D2E/DX2                          !
 !       rch         1.0847   estimate D2E/DX2                          !
 !       rnh         1.0167   estimate D2E/DX2                          !
 !       an1        67.8215   estimate D2E/DX2                          !
 !       an2       125.1437   estimate D2E/DX2                          !
 !       an3       182.6403   estimate D2E/DX2                          !
 !       an4       268.7726   estimate D2E/DX2                          !
 !       ach       124.5983   estimate D2E/DX2                          !
 !       anh       120.3164   estimate D2E/DX2                          !
 ------------------------------------------------------------------------
 Trust Radius=3.00D-01 FncErr=1.00D-07 GrdErr=1.00D-06
 Number of steps in this run=     22 maximum allowed number of steps=    100.
 GradGradGradGradGradGradGradGradGradGradGradGradGradGradGradGradGradGrad

 ---------------------------------------------------------------------------------------------------
                            Z-MATRIX (ANGSTROMS AND DEGREES)
   CD    Cent   Atom    N1       Length/X        N2       Alpha/Y        N3        Beta/Z          J
 ---------------------------------------------------------------------------------------------------
      1         X 
      2         X        1   1.000000(     1)
      3      1  C        1   1.000000(     2)      2   90.000(     9)
      4      2  N        1   1.371600(     3)      2   90.000(    10)      3   67.822(    16)      0
      5      3  N        1   1.485800(     4)      2   90.000(    11)      3  125.144(    17)      0
      6      4  N        1   1.159400(     5)      2   90.000(    12)      3  182.640(    18)      0
      7      5  N        1   0.846800(     6)      2   90.000(    13)      3  268.773(    19)      0
      8      6  H        3   1.084700(     7)      4  124.598(    14)      5  180.000(    20)      0
      9      7  H        4   1.016700(     8)      5  120.316(    15)      6  180.000(    21)      0
 ---------------------------------------------------------------------------------------------------
                         Z-Matrix orientation:                         
 ---------------------------------------------------------------------
 Center     Atomic      Atomic             Coordinates (Angstroms)
 Number     Number       Type             X           Y           Z
 ---------------------------------------------------------------------
      1         -1           0        0.000000    0.000000    0.000000
      2         -1           0        0.000000    0.000000    1.000000
      3          6           0        1.000000    0.000000    0.000000
      4          7           0        0.517770   -1.270118    0.000000
      5          7           0       -0.855270   -1.214955    0.000000
      6          7           0       -1.158169    0.053408    0.000000
      7          7           0       -0.018139    0.846606    0.000000
      8          1           0        2.053354    0.258882    0.000000
      9          1           0        0.995328   -2.167680    0.000000
 ---------------------------------------------------------------------
                    Distance matrix (angstroms):
                    1          2          3          4          5
     1  X    0.000000
     2  X    1.000000   0.000000
     3  C    1.000000   1.414214   0.000000
     4  N    1.371600   1.697435   1.358583   0.000000
     5  N    1.485800   1.790978   2.217688   1.374147   0.000000
     6  N    1.159400   1.531081   2.158830   2.135532   1.304030
     7  N    0.846800   1.310370   1.324140   2.183511   2.225044
     8  H    2.069609   2.298539   1.084700   2.166993   3.260719
     9  H    2.385271   2.586410   2.167685   1.016700   2.081441
                    6          7          8          9
     6  N    0.000000
     7  N    1.388824   0.000000
     8  H    3.218089   2.153254   0.000000
     9  H    3.093668   3.180100   2.647192   0.000000
 Stoichiometry    CH2N4
 Framework group  CS[SG(CH2N4)]
 Deg. of freedom    11
 Full point group                 CS      NOp   2
 Largest Abelian subgroup         CS      NOp   2
 Largest concise Abelian subgroup C1      NOp   1
                         Standard orientation:                         
 ---------------------------------------------------------------------
 Center     Atomic      Atomic             Coordinates (Angstroms)
 Number     Number       Type             X           Y           Z
 ---------------------------------------------------------------------
      1          6           0        1.077320    0.240238    0.000000
      2          7           0        0.000000    1.067962    0.000000
      3          7           0       -1.139561    0.300055    0.000000
      4          7           0       -0.731348   -0.938434    0.000000
      5          7           0        0.655371   -1.014874    0.000000
      6          1           0        2.109713    0.573015    0.000000
      7          1           0       -0.064869    2.082591    0.000000
 ---------------------------------------------------------------------
 Rotational constants (GHZ):     10.2875318     10.0666029      5.0879342
 Standard basis: 6-311G(d) (5D, 7F)
 There are    76 symmetry adapted cartesian basis functions of A'  symmetry.
 There are    25 symmetry adapted cartesian basis functions of A"  symmetry.
 There are    71 symmetry adapted basis functions of A'  symmetry.
 There are    25 symmetry adapted basis functions of A"  symmetry.
    96 basis functions,   170 primitive gaussians,   101 cartesian basis functions
    18 alpha electrons       18 beta electrons
       nuclear repulsion energy       164.6498818738 Hartrees.
 NAtoms=    7 NActive=    7 NUniq=    7 SFac= 1.00D+00 NAtFMM=   60 NAOKFM=F Big=F
 Integral buffers will be    131072 words long.
 Raffenetti 2 integral format.
 Two-electron integral symmetry is turned on.
 One-electron integrals computed using PRISM.
 NBasis=    96 RedAO= T EigKep=  5.13D-03  NBF=    71    25
 NBsUse=    96 1.00D-06 EigRej= -1.00D+00 NBFU=    71    25
 ExpMin= 1.03D-01 ExpMax= 6.29D+03 ExpMxC= 9.49D+02 IAcc=1 IRadAn=         1 AccDes= 0.00D+00
 Harris functional with IExCor=  402 and IRadAn=       1 diagonalized for initial guess.
 HarFok:  IExCor=  402 AccDes= 0.00D+00 IRadAn=         1 IDoV= 1 UseB2=F ITyADJ=14
 ICtDFT=  3500011 ScaDFX=  1.000000  1.000000  1.000000  1.000000
 FoFCou: FMM=F IPFlag=           0 FMFlag=      100000 FMFlg1=           0
         NFxFlg=           0 DoJE=T BraDBF=F KetDBF=T FulRan=T
         wScrn=  0.000000 ICntrl=     500 IOpCl=  0 I1Cent=   200000004 NGrid=           0
         NMat0=    1 NMatS0=      1 NMatT0=    0 NMatD0=    1 NMtDS0=    0 NMtDT0=    0
 Petite list used in FoFCou.
 Initial guess orbital symmetries:
       Occupied  (A') (A') (A') (A') (A') (A') (A') (A') (A') (A')
                 (A') (A') (A") (A') (A') (A") (A') (A")
       Virtual   (A") (A") (A') (A') (A') (A') (A') (A') (A') (A')
                 (A") (A') (A') (A') (A') (A') (A") (A') (A") (A')
                 (A') (A") (A") (A') (A') (A') (A') (A') (A') (A')
                 (A") (A') (A") (A') (A") (A") (A') (A") (A') (A')
                 (A') (A') (A') (A") (A') (A') (A") (A') (A") (A')
                 (A") (A') (A') (A") (A") (A') (A') (A') (A') (A')
                 (A') (A") (A") (A') (A") (A') (A') (A") (A') (A')
                 (A') (A') (A') (A') (A') (A') (A') (A')
 The electronic state of the initial guess is 1-A'.
 Keep J ints in memory in symmetry-blocked form, NReq=16630616.
 Requested convergence on RMS density matrix=1.00D-08 within 128 cycles.
 Requested convergence on MAX density matrix=1.00D-06.
 Requested convergence on             energy=1.00D-06.
 No special actions if energy rises.
 Integral accuracy reduced to 1.0D-05 until final iterations.
 Initial convergence to 1.0D-05 achieved.  Increase integral accuracy.
 SCF Done:  E(RB-LYP) =  -258.263309214     A.U. after   15 cycles
            NFock= 15  Conv=0.72D-08     -V/T= 2.0016

 **********************************************************************

            Population analysis using the SCF density.

 **********************************************************************

 Orbital symmetries:
       Occupied  (A') (A') (A') (A') (A') (A') (A') (A') (A') (A')
                 (A') (A') (A") (A') (A") (A") (A') (A')
       Virtual   (A") (A") (A') (A') (A') (A') (A') (A') (A') (A')
                 (A") (A') (A') (A') (A') (A") (A') (A") (A') (A')
                 (A') (A") (A") (A') (A') (A') (A') (A') (A') (A')
                 (A") (A') (A") (A') (A") (A") (A') (A") (A') (A')
                 (A') (A') (A') (A") (A') (A') (A") (A') (A") (A")
                 (A') (A') (A') (A") (A") (A') (A') (A') (A') (A')
                 (A') (A") (A") (A') (A") (A') (A') (A") (A') (A')
                 (A') (A') (A') (A') (A') (A') (A') (A')
 The electronic state is 1-A'.
 Alpha  occ. eigenvalues --  -14.10983 -14.07497 -14.05771 -14.03057  -9.99643
 Alpha  occ. eigenvalues --   -1.03552  -0.85557  -0.80982  -0.61292  -0.59826
 Alpha  occ. eigenvalues --   -0.53723  -0.44744  -0.43692  -0.32600  -0.29121
 Alpha  occ. eigenvalues --   -0.27574  -0.25706  -0.24530
 Alpha virt. eigenvalues --   -0.06011  -0.02709  -0.00725   0.03625   0.11071
 Alpha virt. eigenvalues --    0.14501   0.18741   0.22115   0.27346   0.32741
 Alpha virt. eigenvalues --    0.35205   0.39215   0.44848   0.47576   0.51606
 Alpha virt. eigenvalues --    0.52629   0.55835   0.56201   0.57033   0.60019
 Alpha virt. eigenvalues --    0.62156   0.64562   0.68621   0.69472   0.77412
 Alpha virt. eigenvalues --    0.81345   0.88314   0.91189   0.96565   1.12570
 Alpha virt. eigenvalues --    1.14398   1.17079   1.19343   1.32858   1.46301
 Alpha virt. eigenvalues --    1.58854   1.61405   1.65238   1.67156   1.75600
 Alpha virt. eigenvalues --    1.78926   1.92699   2.09761   2.12344   2.13910
 Alpha virt. eigenvalues --    2.20492   2.23464   2.31678   2.36146   2.48946
 Alpha virt. eigenvalues --    2.49983   2.54127   2.61378   2.64710   2.65850
 Alpha virt. eigenvalues --    2.70198   2.90575   2.99737   3.08393   3.17091
 Alpha virt. eigenvalues --    3.33161   3.40763   3.51838   3.63194   3.69381
 Alpha virt. eigenvalues --    3.70314   3.73266   3.78667   4.22000   4.38586
 Alpha virt. eigenvalues --    4.45577   4.66627   5.48291  23.40008  34.83165
 Alpha virt. eigenvalues --   34.99980  35.09178  35.13358
          Condensed to atoms (all electrons):
               1          2          3          4          5          6
     1  C    4.963156   0.352101  -0.109093  -0.128867   0.476245   0.367889
     2  N    0.352101   6.714430   0.204308  -0.063690  -0.071010  -0.027326
     3  N   -0.109093   0.204308   6.717751   0.295013  -0.082079   0.004260
     4  N   -0.128867  -0.063690   0.295013   6.672508   0.301403   0.003614
     5  N    0.476245  -0.071010  -0.082079   0.301403   6.586741  -0.015513
     6  H    0.367889  -0.027326   0.004260   0.003614  -0.015513   0.433453
     7  H   -0.029821   0.282539  -0.017626   0.007389   0.009099  -0.000126
               7
     1  C   -0.029821
     2  N    0.282539
     3  N   -0.017626
     4  N    0.007389
     5  N    0.009099
     6  H   -0.000126
     7  H    0.394541
 Mulliken charges:
               1
     1  C    0.108390
     2  N   -0.391352
     3  N   -0.012534
     4  N   -0.087370
     5  N   -0.204887
     6  H    0.233749
     7  H    0.354005
 Sum of Mulliken charges =   0.00000
 Mulliken charges with hydrogens summed into heavy atoms:
               1
     1  C    0.342139
     2  N   -0.037348
     3  N   -0.012534
     4  N   -0.087370
     5  N   -0.204887
 Electronic spatial extent (au):  <R**2>=            256.2718
 Charge=              0.0000 electrons
 Dipole moment (field-independent basis, Debye):
    X=              2.3975    Y=              4.6680    Z=              0.0000  Tot=              5.2477
 Quadrupole moment (field-independent basis, Debye-Ang):
   XX=            -29.0796   YY=            -26.5207   ZZ=            -28.4725
   XY=              1.7979   XZ=              0.0000   YZ=              0.0000
 Traceless Quadrupole moment (field-independent basis, Debye-Ang):
   XX=             -1.0554   YY=              1.5036   ZZ=             -0.4482
   XY=              1.7979   XZ=              0.0000   YZ=              0.0000
 Octapole moment (field-independent basis, Debye-Ang**2):
  XXX=             11.3150  YYY=             22.1324  ZZZ=              0.0000  XYY=             -0.7211
  XXY=              4.4845  XXZ=              0.0000  XZZ=             -0.8786  YZZ=              0.3401
  YYZ=              0.0000  XYZ=              0.0000
 Hexadecapole moment (field-independent basis, Debye-Ang**3):
 XXXX=           -148.1298 YYYY=           -125.2250 ZZZZ=            -25.8228 XXXY=              6.8212
 XXXZ=              0.0000 YYYX=             -0.5863 YYYZ=              0.0000 ZZZX=              0.0000
 ZZZY=              0.0000 XXYY=            -55.3491 XXZZ=            -31.4455 YYZZ=            -29.5573
 XXYZ=              0.0000 YYXZ=              0.0000 ZZXY=             -0.1815
 N-N= 1.646498818738D+02 E-N=-9.334220336647D+02  KE= 2.578379359840D+02
 Symmetry A'   KE= 2.481518126497D+02
 Symmetry A"   KE= 9.686123334326D+00
 Calling FoFJK, ICntrl=      2527 FMM=F ISym2X=1 I1Cent= 0 IOpClX= 0 NMat=1 NMatS=1 NMatT=0.
 ***** Axes restored to original set *****
 -------------------------------------------------------------------
 Center     Atomic                   Forces (Hartrees/Bohr)
 Number     Number              X              Y              Z
 -------------------------------------------------------------------
      1        6          -0.000043669    0.000033549    0.000000000
      2        7           0.000039540   -0.000058835    0.000000000
      3        7          -0.000011651    0.000095127    0.000000000
      4        7           0.000035558   -0.000049899    0.000000000
      5        7          -0.000016921   -0.000025662    0.000000000
      6        1          -0.000000540    0.000005702    0.000000000
      7        1          -0.000002317    0.000000017    0.000000000
 -------------------------------------------------------------------
 Cartesian Forces:  Max     0.000095127 RMS     0.000032352
 -----------------------------------------------------------------------------------------------
                       Internal Coordinate Forces (Hartree/Bohr or radian)
  Cent   Atom   N1       Length/X         N2         Alpha/Y        N3         Beta/Z          J
 -----------------------------------------------------------------------------------------------
         X 
         X        1   0.000000(     1)
      1  C        1  -0.000048(     2)      2   0.000000(     9)
      2  N        1   0.000073(     3)      2   0.000000(    10)      3  -0.000039(    16)     0
      3  N        1  -0.000072(     4)      2   0.000000(    11)      3   0.000183(    17)     0
      4  N        1  -0.000038(     5)      2   0.000000(    12)      3  -0.000106(    18)     0
      5  N        1  -0.000025(     6)      2   0.000000(    13)      3  -0.000028(    19)     0
      6  H        3   0.000001(     7)      4   0.000012(    14)      5   0.000000(    20)     0
      7  H        4  -0.000001(     8)      5  -0.000004(    15)      6   0.000000(    21)     0
 -----------------------------------------------------------------------------------------------
 Internal  Forces:  Max     0.000182792 RMS     0.000054327

 GradGradGradGradGradGradGradGradGradGradGradGradGradGradGradGradGradGrad
 Berny optimization.
 Search for a local minimum.
 Step number   1 out of a maximum of   22
 All quantities printed in internal units (Hartrees-Bohrs-Radians)
 Second derivative matrix not updated -- first step.
 The second derivative matrix:
                          rn1       rn2       rn3       rn4       rch
           rn1          0.58637
           rn2         -0.02393   0.60153
           rn3          0.03417   0.01255   0.49810
           rn4          0.03284   0.02414   0.12354   0.56575
           rch          0.00000   0.00000   0.00000   0.00000   0.35432
           rnh          0.00000   0.00000   0.00000   0.00000   0.00000
           an1          0.07132  -0.66387   0.04032  -0.09139   0.00000
           an2          0.62399  -0.27263  -0.51867   0.05981   0.00000
           an3         -0.02157   0.92751  -0.03843  -0.48613   0.00000
           an4          0.04564  -0.02567   0.55043  -0.09423   0.00000
           ach          0.04248   0.00000   0.00000   0.04828   0.00000
           anh         -0.09855   0.05177   0.00000   0.00000   0.00000
                          rnh       an1       an2       an3       an4
           rnh          0.44869
           an1          0.00000   4.76421
           an2          0.00000  -2.88829   6.01207
           an3          0.00000  -0.02545  -2.99737   3.94167
           an4          0.00000  -0.12700  -0.06359  -0.82267   1.83565
           ach          0.00000  -0.11820   0.00000   0.00000   0.06709
           anh          0.00000   0.05202  -0.09382   0.00000   0.00000
                          ach       anh
           ach          0.32000
           anh          0.00000   0.32000
 ITU=  0
     Eigenvalues ---    0.00000   0.12952   0.25591   0.32533   0.35432
     Eigenvalues ---    0.39470   0.44869   0.65889   1.06045   2.31451
     Eigenvalues ---    4.80507   9.50098
 RFO could not converge Lambda in  999 iterations.
 Linear search not attempted -- first point.
 Steepest descent instead of Quadratic search.
 Variable       Old X    -DE/DX   Delta X   Delta X   Delta X     New X
                                 (Linear)    (Quad)   (Total)
   rn1        2.59195   0.00007   0.00000   0.00004   0.00004   2.59198
   rn2        2.80776  -0.00007   0.00000  -0.00004  -0.00004   2.80772
   rn3        2.19095  -0.00004   0.00000  -0.00002  -0.00002   2.19093
   rn4        1.60022  -0.00003   0.00000  -0.00001  -0.00001   1.60021
   rch        2.04979   0.00000   0.00000   0.00000   0.00000   2.04979
   rnh        1.92128   0.00000   0.00000   0.00000   0.00000   1.92128
   an1        1.18371  -0.00004   0.00000  -0.00002  -0.00002   1.18369
   an2        2.18417   0.00018   0.00000   0.00009   0.00009   2.18426
   an3        3.18767  -0.00011   0.00000  -0.00005  -0.00005   3.18762
   an4        4.69097  -0.00003   0.00000  -0.00001  -0.00001   4.69095
   ach        2.17465   0.00001   0.00000   0.00001   0.00001   2.17466
   anh        2.09992   0.00000   0.00000   0.00000   0.00000   2.09992
         Item               Value     Threshold  Converged?
 Maximum Force            0.000183     0.000450     YES
 RMS     Force            0.000070     0.000300     YES
 Maximum Displacement     0.000091     0.001800     YES
 RMS     Displacement     0.000035     0.001200     YES
 Predicted change in Energy=-2.669797D-08
 GradGradGradGradGradGradGradGradGradGradGradGradGradGradGradGradGradGrad

 ---------------------------------------------------------------------------------------------------
                            Z-MATRIX (ANGSTROMS AND DEGREES)
   CD    Cent   Atom    N1       Length/X        N2       Alpha/Y        N3        Beta/Z          J
 ---------------------------------------------------------------------------------------------------
      1         X 
      2         X        1   1.000000(     1)
      3      1  C        1   1.000000(     2)      2   90.000(     9)
      4      2  N        1   1.371619(     3)      2   90.000(    10)      3   67.820(    16)      0
      5      3  N        1   1.485781(     4)      2   90.000(    11)      3  125.149(    17)      0
      6      4  N        1   1.159390(     5)      2   90.000(    12)      3  182.637(    18)      0
      7      5  N        1   0.846793(     6)      2   90.000(    13)      3  268.772(    19)      0
      8      6  H        3   1.084700(     7)      4  124.599(    14)      5  180.000(    20)      0
      9      7  H        4   1.016700(     8)      5  120.316(    15)      6  180.000(    21)      0
 ---------------------------------------------------------------------------------------------------
                         Z-Matrix orientation:                         
 ---------------------------------------------------------------------
 Center     Atomic      Atomic             Coordinates (Angstroms)
 Number     Number       Type             X           Y           Z
 ---------------------------------------------------------------------
      1         -1           0        0.000000    0.000000    0.000000
      2         -1           0        0.000000    0.000000    1.000000
      3          6           0        1.000000    0.000000    0.000000
      4          7           0        0.517802   -1.270126    0.000000
      5          7           0       -0.855370   -1.214861    0.000000
      6          7           0       -1.158162    0.053347    0.000000
      7          7           0       -0.018151    0.846599    0.000000
      8          1           0        2.053346    0.258913    0.000000
      9          1           0        0.995295   -2.167722    0.000000
 ---------------------------------------------------------------------
                    Distance matrix (angstroms):
                    1          2          3          4          5
     1  X    0.000000
     2  X    1.000000   0.000000
     3  C    1.000000   1.414214   0.000000
     4  N    1.371619   1.697451   1.358579   0.000000
     5  N    1.485781   1.790962   2.217720   1.374283   0.000000
     6  N    1.159390   1.531073   2.158821   2.135518   1.303854
     7  N    0.846793   1.310366   1.324145   2.183522   2.224984
     8  H    2.069606   2.298536   1.084700   2.166993   3.260773
     9  H    2.385295   2.586432   2.167727   1.016700   2.081563
                    6          7          8          9
     6  N    0.000000
     7  N    1.388839   0.000000
     8  H    3.218081   2.153247   0.000000
     9  H    3.093626   3.180126   2.647269   0.000000
 Stoichiometry    CH2N4
 Framework group  CS[SG(CH2N4)]
 Deg. of freedom    11
 Full point group                 CS      NOp   2
 Largest Abelian subgroup         CS      NOp   2
 Largest concise Abelian subgroup C1      NOp   1
                         Standard orientation:                         
 ---------------------------------------------------------------------
 Center     Atomic      Atomic             Coordinates (Angstroms)
 Number     Number       Type             X           Y           Z
 ---------------------------------------------------------------------
      1          6           0        1.077324    0.240283    0.000000
      2          7           0        0.000000    1.067996    0.000000
      3          7           0       -1.139595    0.299897    0.000000
      4          7           0       -0.731332   -0.938391    0.000000
      5          7           0        0.655401   -1.014843    0.000000
      6          1           0        2.109716    0.573063    0.000000
      7          1           0       -0.064974    2.082618    0.000000
 ---------------------------------------------------------------------
 Rotational constants (GHZ):     10.2875267     10.0667000      5.0879577
 Standard basis: 6-311G(d) (5D, 7F)
 There are    76 symmetry adapted cartesian basis functions of A'  symmetry.
 There are    25 symmetry adapted cartesian basis functions of A"  symmetry.
 There are    71 symmetry adapted basis functions of A'  symmetry.
 There are    25 symmetry adapted basis functions of A"  symmetry.
    96 basis functions,   170 primitive gaussians,   101 cartesian basis functions
    18 alpha electrons       18 beta electrons
       nuclear repulsion energy       164.6505650283 Hartrees.
 NAtoms=    7 NActive=    7 NUniq=    7 SFac= 1.00D+00 NAtFMM=   60 NAOKFM=F Big=F
 Integral buffers will be    131072 words long.
 Raffenetti 2 integral format.
 Two-electron integral symmetry is turned on.
 One-electron integrals computed using PRISM.
 NBasis=    96 RedAO= T EigKep=  5.13D-03  NBF=    71    25
 NBsUse=    96 1.00D-06 EigRej= -1.00D+00 NBFU=    71    25
 Initial guess from the checkpoint file:  "/tmp/rdj3/g09-5083/Gau-5140.chk"
 B after Tr=     0.000000    0.000000    0.000000
         Rot=    1.000000    0.000000    0.000000   -0.000020 Ang=   0.00 deg.
 Initial guess orbital symmetries:
       Occupied  (A') (A') (A') (A') (A') (A') (A') (A') (A') (A')
                 (A') (A') (A") (A') (A") (A") (A') (A')
       Virtual   (A') (A') (A') (A') (A') (A') (A') (A') (A') (A')
                 (A') (A') (A') (A') (A') (A') (A') (A') (A') (A')
                 (A') (A') (A') (A') (A') (A') (A') (A') (A') (A')
                 (A') (A') (A') (A') (A') (A') (A') (A') (A') (A')
                 (A') (A') (A') (A') (A') (A') (A') (A') (A') (A')
                 (A') (A') (A') (A') (A') (A') (A") (A") (A") (A")
                 (A") (A") (A") (A") (A") (A") (A") (A") (A") (A")
                 (A") (A") (A") (A") (A") (A") (A") (A")
 Keep J ints in memory in symmetry-blocked form, NReq=16630616.
 Requested convergence on RMS density matrix=1.00D-08 within 128 cycles.
 Requested convergence on MAX density matrix=1.00D-06.
 Requested convergence on             energy=1.00D-06.
 No special actions if energy rises.
 SCF Done:  E(RB-LYP) =  -258.263309218     A.U. after    7 cycles
            NFock=  7  Conv=0.47D-08     -V/T= 2.0016
 Calling FoFJK, ICntrl=      2527 FMM=F ISym2X=1 I1Cent= 0 IOpClX= 0 NMat=1 NMatS=1 NMatT=0.
 ***** Axes restored to original set *****
 -------------------------------------------------------------------
 Center     Atomic                   Forces (Hartrees/Bohr)
 Number     Number              X              Y              Z
 -------------------------------------------------------------------
      1        6          -0.000055085    0.000024701    0.000000000
      2        7          -0.000001624   -0.000054022    0.000000000
      3        7           0.000061086   -0.000014732    0.000000000
      4        7          -0.000003623    0.000051054    0.000000000
      5        7           0.000001269   -0.000015746    0.000000000
      6        1          -0.000001243    0.000005939    0.000000000
      7        1          -0.000000779    0.000002805    0.000000000
 -------------------------------------------------------------------
 Cartesian Forces:  Max     0.000061086 RMS     0.000025287
 -----------------------------------------------------------------------------------------------
                       Internal Coordinate Forces (Hartree/Bohr or radian)
  Cent   Atom   N1       Length/X         N2         Alpha/Y        N3         Beta/Z          J
 -----------------------------------------------------------------------------------------------
         X 
         X        1   0.000000(     1)
      1  C        1  -0.000061(     2)      2   0.000000(     9)
      2  N        1   0.000049(     3)      2   0.000000(    10)      3   0.000046(    16)     0
      3  N        1  -0.000023(     4)      2   0.000000(    11)      3  -0.000165(    17)     0
      4  N        1   0.000006(     5)      2   0.000000(    12)      3   0.000111(    18)     0
      5  N        1  -0.000016(     6)      2   0.000000(    13)      3   0.000001(    19)     0
      6  H        3   0.000000(     7)      4   0.000012(    14)      5   0.000000(    20)     0
      7  H        4  -0.000003(     8)      5   0.000001(    15)      6   0.000000(    21)     0
 -----------------------------------------------------------------------------------------------
 Internal  Forces:  Max     0.000164760 RMS     0.000048203

 GradGradGradGradGradGradGradGradGradGradGradGradGradGradGradGradGradGrad
 Berny optimization.
 Search for a local minimum.
 Step number   2 out of a maximum of   22
 All quantities printed in internal units (Hartrees-Bohrs-Radians)
 Update second derivatives using D2CorN and points    2
 DE= -3.21D-09 DEPred=-2.67D-08 R= 1.20D-01
 Trust test= 1.20D-01 RLast= 1.22D-04 DXMaxT set to 3.00D-01
 The second derivative matrix:
                          rn1       rn2       rn3       rn4       rch
           rn1          0.58637
           rn2         -0.02393   0.60153
           rn3          0.03417   0.01255   0.49810
           rn4          0.03284   0.02414   0.12354   0.56575
           rch          0.00000   0.00000   0.00000   0.00000   0.35432
           rnh          0.00000   0.00000   0.00000   0.00000   0.00000
           an1          0.07132  -0.66387   0.04032  -0.09139   0.00000
           an2          0.62399  -0.27263  -0.51867   0.05981   0.00000
           an3         -0.02157   0.92751  -0.03843  -0.48613   0.00000
           an4          0.04564  -0.02567   0.55043  -0.09423   0.00000
           ach          0.04248   0.00000   0.00000   0.04828   0.00000
           anh         -0.09855   0.05177   0.00000   0.00000   0.00000
                          rnh       an1       an2       an3       an4
           rnh          0.44869
           an1          0.00000   4.76421
           an2          0.00000  -2.88829   6.01207
           an3          0.00000  -0.02545  -2.99737   3.94167
           an4          0.00000  -0.12700  -0.06359  -0.82267   1.83565
           ach          0.00000  -0.11820   0.00000   0.00000   0.06709
           anh          0.00000   0.05202  -0.09382   0.00000   0.00000
                          ach       anh
           ach          0.32000
           anh          0.00000   0.32000
 ITU=  0  0
     Eigenvalues ---    0.00000   0.12952   0.25591   0.32533   0.35432
     Eigenvalues ---    0.39470   0.44869   0.65889   1.06045   2.31451
     Eigenvalues ---    4.80507   9.50098
 RFO could not converge Lambda in  999 iterations.
 Quartic linear search produced a step of -0.45552.
 Variable       Old X    -DE/DX   Delta X   Delta X   Delta X     New X
                                 (Linear)    (Quad)   (Total)
   rn1        2.59198   0.00005  -0.00002   0.00000  -0.00002   2.59197
   rn2        2.80772  -0.00002   0.00002   0.00000   0.00002   2.80774
   rn3        2.19093   0.00001   0.00001   0.00000   0.00001   2.19094
   rn4        1.60021  -0.00002   0.00001   0.00000   0.00001   1.60021
   rch        2.04979   0.00000   0.00000   0.00000   0.00000   2.04979
   rnh        1.92128   0.00000   0.00000   0.00000   0.00000   1.92128
   an1        1.18369   0.00005   0.00001   0.00000   0.00001   1.18370
   an2        2.18426  -0.00016  -0.00004   0.00000  -0.00004   2.18422
   an3        3.18762   0.00011   0.00002   0.00000   0.00002   3.18765
   an4        4.69095   0.00000   0.00001   0.00000   0.00001   4.69096
   ach        2.17466   0.00001   0.00000   0.00000   0.00000   2.17465
   anh        2.09992   0.00000   0.00000   0.00000   0.00000   2.09992
         Item               Value     Threshold  Converged?
 Maximum Force            0.000165     0.000450     YES
 RMS     Force            0.000061     0.000300     YES
 Maximum Displacement     0.000042     0.001800     YES
 RMS     Displacement     0.000016     0.001200     YES
 Predicted change in Energy=-3.038395D-09
 Optimization completed.
    -- Stationary point found.
                       ----------------------------
                       !   Optimized Parameters   !
                       ! (Angstroms and Degrees)  !
 ----------------------                            ----------------------
 !      Name          Value   Derivative information (Atomic Units)     !
 ------------------------------------------------------------------------
 !       rn1         1.3716   -DE/DX =    0.0                           !
 !       rn2         1.4858   -DE/DX =    0.0                           !
 !       rn3         1.1594   -DE/DX =    0.0                           !
 !       rn4         0.8468   -DE/DX =    0.0                           !
 !       rch         1.0847   -DE/DX =    0.0                           !
 !       rnh         1.0167   -DE/DX =    0.0                           !
 !       an1        67.8204   -DE/DX =    0.0                           !
 !       an2       125.1489   -DE/DX =   -0.0002                        !
 !       an3       182.6373   -DE/DX =    0.0001                        !
 !       an4       268.7718   -DE/DX =    0.0                           !
 !       ach       124.5986   -DE/DX =    0.0                           !
 !       anh       120.3163   -DE/DX =    0.0                           !
 ------------------------------------------------------------------------
 GradGradGradGradGradGradGradGradGradGradGradGradGradGradGradGradGradGrad

 ---------------------------------------------------------------------------------------------------
                            Z-MATRIX (ANGSTROMS AND DEGREES)
   CD    Cent   Atom    N1       Length/X        N2       Alpha/Y        N3        Beta/Z          J
 ---------------------------------------------------------------------------------------------------
      1         X 
      2         X        1   1.000000(     1)
      3      1  C        1   1.000000(     2)      2   90.000(     9)
      4      2  N        1   1.371619(     3)      2   90.000(    10)      3   67.820(    16)      0
      5      3  N        1   1.485781(     4)      2   90.000(    11)      3  125.149(    17)      0
      6      4  N        1   1.159390(     5)      2   90.000(    12)      3  182.637(    18)      0
      7      5  N        1   0.846793(     6)      2   90.000(    13)      3  268.772(    19)      0
      8      6  H        3   1.084700(     7)      4  124.599(    14)      5  180.000(    20)      0
      9      7  H        4   1.016700(     8)      5  120.316(    15)      6  180.000(    21)      0
 ---------------------------------------------------------------------------------------------------
                         Z-Matrix orientation:                         
 ---------------------------------------------------------------------
 Center     Atomic      Atomic             Coordinates (Angstroms)
 Number     Number       Type             X           Y           Z
 ---------------------------------------------------------------------
      1         -1           0        0.000000    0.000000    0.000000
      2         -1           0        0.000000    0.000000    1.000000
      3          6           0        1.000000    0.000000    0.000000
      4          7           0        0.517802   -1.270126    0.000000
      5          7           0       -0.855370   -1.214861    0.000000
      6          7           0       -1.158162    0.053347    0.000000
      7          7           0       -0.018151    0.846599    0.000000
      8          1           0        2.053346    0.258913    0.000000
      9          1           0        0.995295   -2.167722    0.000000
 ---------------------------------------------------------------------
                    Distance matrix (angstroms):
                    1          2          3          4          5
     1  X    0.000000
     2  X    1.000000   0.000000
     3  C    1.000000   1.414214   0.000000
     4  N    1.371619   1.697451   1.358579   0.000000
     5  N    1.485781   1.790962   2.217720   1.374283   0.000000
     6  N    1.159390   1.531073   2.158821   2.135518   1.303854
     7  N    0.846793   1.310366   1.324145   2.183522   2.224984
     8  H    2.069606   2.298536   1.084700   2.166993   3.260773
     9  H    2.385295   2.586432   2.167727   1.016700   2.081563
                    6          7          8          9
     6  N    0.000000
     7  N    1.388839   0.000000
     8  H    3.218081   2.153247   0.000000
     9  H    3.093626   3.180126   2.647269   0.000000
 Stoichiometry    CH2N4
 Framework group  CS[SG(CH2N4)]
 Deg. of freedom    11
 Full point group                 CS      NOp   2
 Largest Abelian subgroup         CS      NOp   2
 Largest concise Abelian subgroup C1      NOp   1
                         Standard orientation:                         
 ---------------------------------------------------------------------
 Center     Atomic      Atomic             Coordinates (Angstroms)
 Number     Number       Type             X           Y           Z
 ---------------------------------------------------------------------
      1          6           0        1.077324    0.240283    0.000000
      2          7           0        0.000000    1.067996    0.000000
      3          7           0       -1.139595    0.299897    0.000000
      4          7           0       -0.731332   -0.938391    0.000000
      5          7           0        0.655401   -1.014843    0.000000
      6          1           0        2.109716    0.573063    0.000000
      7          1           0       -0.064974    2.082618    0.000000
 ---------------------------------------------------------------------
 Rotational constants (GHZ):     10.2875267     10.0667000      5.0879577

 **********************************************************************

            Population analysis using the SCF density.

 **********************************************************************

 Orbital symmetries:
       Occupied  (A') (A') (A') (A') (A') (A') (A') (A') (A') (A')
                 (A') (A') (A") (A') (A") (A") (A') (A')
       Virtual   (A") (A") (A') (A') (A') (A') (A') (A') (A') (A')
                 (A") (A') (A') (A') (A') (A") (A') (A") (A') (A')
                 (A') (A") (A") (A') (A') (A') (A') (A') (A') (A')
                 (A") (A') (A") (A') (A") (A") (A') (A") (A') (A')
                 (A') (A') (A') (A") (A') (A') (A") (A') (A") (A")
                 (A') (A') (A') (A") (A") (A') (A') (A') (A') (A')
                 (A') (A") (A") (A') (A") (A') (A') (A") (A') (A')
                 (A') (A') (A') (A') (A') (A') (A') (A')
 The electronic state is 1-A'.
 Alpha  occ. eigenvalues --  -14.10981 -14.07498 -14.05771 -14.03056  -9.99644
 Alpha  occ. eigenvalues --   -1.03552  -0.85555  -0.80985  -0.61291  -0.59824
 Alpha  occ. eigenvalues --   -0.53724  -0.44744  -0.43691  -0.32602  -0.29121
 Alpha  occ. eigenvalues --   -0.27575  -0.25704  -0.24530
 Alpha virt. eigenvalues --   -0.06010  -0.02708  -0.00724   0.03624   0.11064
 Alpha virt. eigenvalues --    0.14501   0.18744   0.22121   0.27347   0.32741
 Alpha virt. eigenvalues --    0.35205   0.39216   0.44848   0.47579   0.51604
 Alpha virt. eigenvalues --    0.52629   0.55837   0.56200   0.57033   0.60019
 Alpha virt. eigenvalues --    0.62155   0.64562   0.68622   0.69472   0.77412
 Alpha virt. eigenvalues --    0.81346   0.88311   0.91192   0.96567   1.12571
 Alpha virt. eigenvalues --    1.14399   1.17081   1.19344   1.32857   1.46300
 Alpha virt. eigenvalues --    1.58855   1.61405   1.65240   1.67153   1.75604
 Alpha virt. eigenvalues --    1.78927   1.92687   2.09762   2.12346   2.13930
 Alpha virt. eigenvalues --    2.20484   2.23467   2.31678   2.36135   2.48951
 Alpha virt. eigenvalues --    2.49984   2.54131   2.61380   2.64714   2.65853
 Alpha virt. eigenvalues --    2.70194   2.90582   2.99743   3.08393   3.17091
 Alpha virt. eigenvalues --    3.33162   3.40763   3.51840   3.63199   3.69380
 Alpha virt. eigenvalues --    3.70311   3.73269   3.78670   4.22001   4.38588
 Alpha virt. eigenvalues --    4.45573   4.66626   5.48290  23.40008  34.83162
 Alpha virt. eigenvalues --   34.99971  35.09191  35.13380
          Condensed to atoms (all electrons):
               1          2          3          4          5          6
     1  C    4.963046   0.352125  -0.109074  -0.128850   0.476251   0.367898
     2  N    0.352125   6.714588   0.204261  -0.063703  -0.071044  -0.027328
     3  N   -0.109074   0.204261   6.717672   0.295069  -0.082079   0.004259
     4  N   -0.128850  -0.063703   0.295069   6.672426   0.301392   0.003614
     5  N    0.476251  -0.071044  -0.082079   0.301392   6.586807  -0.015516
     6  H    0.367898  -0.027328   0.004259   0.003614  -0.015516   0.433446
     7  H   -0.029810   0.282523  -0.017614   0.007389   0.009101  -0.000127
               7
     1  C   -0.029810
     2  N    0.282523
     3  N   -0.017614
     4  N    0.007389
     5  N    0.009101
     6  H   -0.000127
     7  H    0.394541
 Mulliken charges:
               1
     1  C    0.108414
     2  N   -0.391423
     3  N   -0.012494
     4  N   -0.087336
     5  N   -0.204911
     6  H    0.233754
     7  H    0.353997
 Sum of Mulliken charges =   0.00000
 Mulliken charges with hydrogens summed into heavy atoms:
               1
     1  C    0.342168
     2  N   -0.037426
     3  N   -0.012494
     4  N   -0.087336
     5  N   -0.204911
 Electronic spatial extent (au):  <R**2>=            256.2708
 Charge=              0.0000 electrons
 Dipole moment (field-independent basis, Debye):
    X=              2.3971    Y=              4.6678    Z=              0.0000  Tot=              5.2473
 Quadrupole moment (field-independent basis, Debye-Ang):
   XX=            -29.0790   YY=            -26.5209   ZZ=            -28.4724
   XY=              1.7979   XZ=              0.0000   YZ=              0.0000
 Traceless Quadrupole moment (field-independent basis, Debye-Ang):
   XX=             -1.0549   YY=              1.5032   ZZ=             -0.4483
   XY=              1.7979   XZ=              0.0000   YZ=              0.0000
 Octapole moment (field-independent basis, Debye-Ang**2):
  XXX=             11.3146  YYY=             22.1316  ZZZ=              0.0000  XYY=             -0.7226
  XXY=              4.4851  XXZ=              0.0000  XZZ=             -0.8789  YZZ=              0.3396
  YYZ=              0.0000  XYZ=              0.0000
 Hexadecapole moment (field-independent basis, Debye-Ang**3):
 XXXX=           -148.1307 YYYY=           -125.2212 ZZZZ=            -25.8225 XXXY=              6.8199
 XXXZ=              0.0000 YYYX=             -0.5899 YYYZ=              0.0000 ZZZX=              0.0000
 ZZZY=              0.0000 XXYY=            -55.3477 XXZZ=            -31.4454 YYZZ=            -29.5569
 XXYZ=              0.0000 YYXZ=              0.0000 ZZXY=             -0.1820
 N-N= 1.646505650283D+02 E-N=-9.334235688761D+02  KE= 2.578380863543D+02
 Symmetry A'   KE= 2.481519084087D+02
 Symmetry A"   KE= 9.686177945606D+00
 1\1\GINC-N748\POpt\RBLYP\6-311G(d)\C1H2N4\RDJ3\16-Dec-2013\1\\#BLYP/6-
 311G* opt=z-matrix freq\\1H-tetrazole CH2N4 casno=288948 state=1 confi
 g=1 method=13 basis=7\\0,1\X\X,1,1.\C,1,1.,2,90.\N,1,rn1,2,90.,3,an1,0
 \N,1,rn2,2,90.,3,an2,0\N,1,rn3,2,90.,3,an3,0\N,1,rn4,2,90.,3,an4,0\H,3
 ,rch,4,ach,5,180.,0\H,4,rnh,5,anh,6,180.,0\\rn1=1.37161931\rn2=1.48578
 086\rn3=1.15938999\rn4=0.84679331\rch=1.08470022\rnh=1.01669971\an1=67
 .82038976\an2=125.1489366\an3=182.63727418\an4=268.77179929\ach=124.59
 863276\anh=120.31628787\\Version=EM64L-G09RevD.01\State=1-A'\HF=-258.2
 633092\RMSD=4.653e-09\RMSF=2.529e-05\Dipole=1.7669374,-1.0676688,0.\Qu
 adrupole=0.9348551,-0.6015556,-0.3332996,-1.4494724,0.,0.\PG=CS [SG(C1
 H2N4)]\\@


 BULLDOZER: SOMEONE WHO SLEEPS THROUGH SPEECHES.
 Job cpu time:       0 days  0 hours  0 minutes 44.1 seconds.
 File lengths (MBytes):  RWF=      6 Int=      0 D2E=      0 Chk=      2 Scr=      1
 Normal termination of Gaussian 09 at Mon Dec 16 13:53:12 2013.
 Link1:  Proceeding to internal job step number  2.
 --------------------------------------------------------------------
 #N Geom=AllCheck Guess=TCheck SCRF=Check GenChk RBLYP/6-311G(d) Freq
 --------------------------------------------------------------------
 1/10=4,29=7,30=1,38=1,40=1/1,3;
 2/12=2,40=1/2;
 3/5=4,6=6,7=1,11=2,14=-4,16=1,25=1,30=1,70=2,71=2,74=402,116=1,140=1/1,2,3;
 4/5=101/1;
 5/5=2,98=1/2;
 8/6=4,10=90,11=11/1;
 11/6=1,8=1,9=11,15=111,16=1/1,2,10;
 10/6=1/2;
 6/7=2,8=2,9=2,10=2,18=1,28=1/1;
 7/8=1,10=1,25=1/1,2,3,16;
 1/10=4,30=1/3;
 99//99;
 Structure from the checkpoint file:  "/tmp/rdj3/g09-5083/Gau-5140.chk"
 ------------------------------------------------------------------
 1H-tetrazole CH2N4 casno=288948 state=1 config=1 method=13 basis=7
 ------------------------------------------------------------------
 Charge =  0 Multiplicity = 1
 Z-Matrix found in file.
 X
 X,1,1.
 C,1,1.,2,90.
 N,1,rn1,2,90.,3,an1,0
 N,1,rn2,2,90.,3,an2,0
 N,1,rn3,2,90.,3,an3,0
 N,1,rn4,2,90.,3,an4,0
 H,3,rch,4,ach,5,180.,0
 H,4,rnh,5,anh,6,180.,0
      Variables:
 rn1=1.37161931
 rn2=1.48578086
 rn3=1.15938999
 rn4=0.84679331
 rch=1.08470022
 rnh=1.01669971
 an1=67.82038976
 an2=125.1489366
 an3=182.63727418
 an4=268.77179929
 ach=124.59863276
 anh=120.31628787
 Recover connectivity data from disk.

 GradGradGradGradGradGradGradGradGradGradGradGradGradGradGradGradGradGrad
 Berny optimization.
 Initialization pass.
                       ----------------------------
                       !    Initial Parameters    !
                       ! (Angstroms and Degrees)  !
 ----------------------                            ----------------------
 !      Name          Value   Derivative information (Atomic Units)     !
 ------------------------------------------------------------------------
 !       rn1         1.3716   calculate D2E/DX2 analytically            !
 !       rn2         1.4858   calculate D2E/DX2 analytically            !
 !       rn3         1.1594   calculate D2E/DX2 analytically            !
 !       rn4         0.8468   calculate D2E/DX2 analytically            !
 !       rch         1.0847   calculate D2E/DX2 analytically            !
 !       rnh         1.0167   calculate D2E/DX2 analytically            !
 !       an1        67.8204   calculate D2E/DX2 analytically            !
 !       an2       125.1489   calculate D2E/DX2 analytically            !
 !       an3       182.6373   calculate D2E/DX2 analytically            !
 !       an4       268.7718   calculate D2E/DX2 analytically            !
 !       ach       124.5986   calculate D2E/DX2 analytically            !
 !       anh       120.3163   calculate D2E/DX2 analytically            !
 ------------------------------------------------------------------------
 Trust Radius=3.00D-01 FncErr=1.00D-07 GrdErr=1.00D-07
 Number of steps in this run=      2 maximum allowed number of steps=      2.
 GradGradGradGradGradGradGradGradGradGradGradGradGradGradGradGradGradGrad

                          Input orientation:                          
 ---------------------------------------------------------------------
 Center     Atomic      Atomic             Coordinates (Angstroms)
 Number     Number       Type             X           Y           Z
 ---------------------------------------------------------------------
      1          6           0        1.000000    0.000000    0.000000
      2          7           0        0.517802   -1.270126    0.000000
      3          7           0       -0.855370   -1.214861    0.000000
      4          7           0       -1.158162    0.053347    0.000000
      5          7           0       -0.018151    0.846599    0.000000
      6          1           0        2.053346    0.258913    0.000000
      7          1           0        0.995295   -2.167722    0.000000
 ---------------------------------------------------------------------
                    Distance matrix (angstroms):
                    1          2          3          4          5
     1  C    0.000000
     2  N    1.358579   0.000000
     3  N    2.217720   1.374283   0.000000
     4  N    2.158821   2.135518   1.303854   0.000000
     5  N    1.324145   2.183522   2.224984   1.388839   0.000000
     6  H    1.084700   2.166993   3.260773   3.218081   2.153247
     7  H    2.167727   1.016700   2.081563   3.093626   3.180126
                    6          7
     6  H    0.000000
     7  H    2.647269   0.000000
 Stoichiometry    CH2N4
 Framework group  CS[SG(CH2N4)]
 Deg. of freedom    11
 Full point group                 CS      NOp   2
 Largest Abelian subgroup         CS      NOp   2
 Largest concise Abelian subgroup C1      NOp   1
                         Standard orientation:                         
 ---------------------------------------------------------------------
 Center     Atomic      Atomic             Coordinates (Angstroms)
 Number     Number       Type             X           Y           Z
 ---------------------------------------------------------------------
      1          6           0        1.077324    0.240283    0.000000
      2          7           0        0.000000    1.067996    0.000000
      3          7           0       -1.139595    0.299897    0.000000
      4          7           0       -0.731332   -0.938391    0.000000
      5          7           0        0.655401   -1.014843    0.000000
      6          1           0        2.109716    0.573063    0.000000
      7          1           0       -0.064974    2.082618    0.000000
 ---------------------------------------------------------------------
 Rotational constants (GHZ):     10.2875267     10.0667000      5.0879577
 Standard basis: 6-311G(d) (5D, 7F)
 There are    76 symmetry adapted cartesian basis functions of A'  symmetry.
 There are    25 symmetry adapted cartesian basis functions of A"  symmetry.
 There are    71 symmetry adapted basis functions of A'  symmetry.
 There are    25 symmetry adapted basis functions of A"  symmetry.
    96 basis functions,   170 primitive gaussians,   101 cartesian basis functions
    18 alpha electrons       18 beta electrons
       nuclear repulsion energy       164.6505650283 Hartrees.
 NAtoms=    7 NActive=    7 NUniq=    7 SFac= 1.00D+00 NAtFMM=   60 NAOKFM=F Big=F
 Integral buffers will be    131072 words long.
 Raffenetti 2 integral format.
 Two-electron integral symmetry is turned on.
 One-electron integrals computed using PRISM.
 NBasis=    96 RedAO= T EigKep=  5.13D-03  NBF=    71    25
 NBsUse=    96 1.00D-06 EigRej= -1.00D+00 NBFU=    71    25
 Initial guess from the checkpoint file:  "/tmp/rdj3/g09-5083/Gau-5140.chk"
 B after Tr=     0.000000    0.000000    0.000000
         Rot=    1.000000    0.000000    0.000000    0.000000 Ang=   0.00 deg.
 Initial guess orbital symmetries:
       Occupied  (A') (A') (A') (A') (A') (A') (A') (A') (A') (A')
                 (A') (A') (A") (A') (A") (A") (A') (A')
       Virtual   (A") (A") (A') (A') (A') (A') (A') (A') (A') (A')
                 (A") (A') (A') (A') (A') (A") (A') (A") (A') (A')
                 (A') (A") (A") (A') (A') (A') (A') (A') (A') (A')
                 (A") (A') (A") (A') (A") (A") (A') (A") (A') (A')
                 (A') (A') (A') (A") (A') (A') (A") (A') (A") (A")
                 (A') (A') (A') (A") (A") (A') (A') (A') (A') (A')
                 (A') (A") (A") (A') (A") (A') (A') (A") (A') (A')
                 (A') (A') (A') (A') (A') (A') (A') (A')
 Keep J ints in memory in symmetry-blocked form, NReq=16630616.
 Requested convergence on RMS density matrix=1.00D-08 within 128 cycles.
 Requested convergence on MAX density matrix=1.00D-06.
 Requested convergence on             energy=1.00D-06.
 No special actions if energy rises.
 SCF Done:  E(RB-LYP) =  -258.263309218     A.U. after    1 cycles
            NFock=  1  Conv=0.58D-08     -V/T= 2.0016
 Range of M.O.s used for correlation:     1    96
 NBasis=    96 NAE=    18 NBE=    18 NFC=     0 NFV=     0
 NROrb=     96 NOA=    18 NOB=    18 NVA=    78 NVB=    78
 Symmetrizing basis deriv contribution to polar:
 IMax=3 JMax=2 DiffMx= 0.00D+00
 G2DrvN: will do     8 centers at a time, making    1 passes.
 Calling FoFCou, ICntrl=  3507 FMM=F I1Cent=   0 AccDes= 0.00D+00.
 End of G2Drv F.D. properties file   721 does not exist.
 End of G2Drv F.D. properties file   722 does not exist.
 End of G2Drv F.D. properties file   788 does not exist.
          IDoAtm=1111111
          Differentiating once with respect to electric field.
                with respect to dipole field.
          Differentiating once with respect to nuclear coordinates.
 Keep J ints in memory in symmetry-blocked form, NReq=16582522.
          There are    24 degrees of freedom in the 1st order CPHF.  IDoFFX=6 NUNeed=     3.
     21 vectors produced by pass  0 Test12= 5.85D-15 4.17D-09 XBig12= 7.35D+01 5.46D+00.
 AX will form    21 AO Fock derivatives at one time.
     21 vectors produced by pass  1 Test12= 5.85D-15 4.17D-09 XBig12= 4.13D+01 1.68D+00.
     21 vectors produced by pass  2 Test12= 5.85D-15 4.17D-09 XBig12= 3.57D-01 1.88D-01.
     21 vectors produced by pass  3 Test12= 5.85D-15 4.17D-09 XBig12= 1.01D-03 7.35D-03.
     21 vectors produced by pass  4 Test12= 5.85D-15 4.17D-09 XBig12= 1.38D-06 1.56D-04.
      9 vectors produced by pass  5 Test12= 5.85D-15 4.17D-09 XBig12= 3.63D-10 3.04D-06.
      2 vectors produced by pass  6 Test12= 5.85D-15 4.17D-09 XBig12= 1.21D-13 5.86D-08.
 InvSVY:  IOpt=1 It=  1 EMax= 7.11D-15
 Solved reduced A of dimension   116 with    24 vectors.
 Isotropic polarizability for W=    0.000000       32.92 Bohr**3.
 End of Minotr F.D. properties file   721 does not exist.
 End of Minotr F.D. properties file   722 does not exist.
 End of Minotr F.D. properties file   788 does not exist.

 **********************************************************************

            Population analysis using the SCF density.

 **********************************************************************

 Orbital symmetries:
       Occupied  (A') (A') (A') (A') (A') (A') (A') (A') (A') (A')
                 (A') (A') (A") (A') (A") (A") (A') (A')
       Virtual   (A") (A") (A') (A') (A') (A') (A') (A') (A') (A')
                 (A") (A') (A') (A') (A') (A") (A') (A") (A') (A')
                 (A') (A") (A") (A') (A') (A') (A') (A') (A') (A')
                 (A") (A') (A") (A') (A") (A") (A') (A") (A') (A')
                 (A') (A') (A') (A") (A') (A') (A") (A') (A") (A")
                 (A') (A') (A') (A") (A") (A') (A') (A') (A') (A')
                 (A') (A") (A") (A') (A") (A') (A') (A") (A') (A')
                 (A') (A') (A') (A') (A') (A') (A') (A')
 The electronic state is 1-A'.
 Alpha  occ. eigenvalues --  -14.10981 -14.07498 -14.05771 -14.03056  -9.99644
 Alpha  occ. eigenvalues --   -1.03552  -0.85555  -0.80985  -0.61291  -0.59824
 Alpha  occ. eigenvalues --   -0.53724  -0.44744  -0.43691  -0.32602  -0.29121
 Alpha  occ. eigenvalues --   -0.27575  -0.25704  -0.24530
 Alpha virt. eigenvalues --   -0.06010  -0.02708  -0.00724   0.03624   0.11064
 Alpha virt. eigenvalues --    0.14501   0.18744   0.22121   0.27347   0.32741
 Alpha virt. eigenvalues --    0.35205   0.39216   0.44848   0.47579   0.51604
 Alpha virt. eigenvalues --    0.52629   0.55837   0.56200   0.57033   0.60019
 Alpha virt. eigenvalues --    0.62155   0.64562   0.68622   0.69472   0.77412
 Alpha virt. eigenvalues --    0.81346   0.88311   0.91192   0.96567   1.12571
 Alpha virt. eigenvalues --    1.14399   1.17081   1.19344   1.32857   1.46300
 Alpha virt. eigenvalues --    1.58855   1.61405   1.65240   1.67153   1.75604
 Alpha virt. eigenvalues --    1.78927   1.92687   2.09762   2.12346   2.13930
 Alpha virt. eigenvalues --    2.20484   2.23467   2.31678   2.36135   2.48951
 Alpha virt. eigenvalues --    2.49984   2.54131   2.61380   2.64714   2.65853
 Alpha virt. eigenvalues --    2.70194   2.90582   2.99743   3.08393   3.17091
 Alpha virt. eigenvalues --    3.33162   3.40763   3.51840   3.63199   3.69380
 Alpha virt. eigenvalues --    3.70311   3.73269   3.78670   4.22001   4.38588
 Alpha virt. eigenvalues --    4.45573   4.66626   5.48290  23.40008  34.83162
 Alpha virt. eigenvalues --   34.99971  35.09191  35.13380
          Condensed to atoms (all electrons):
               1          2          3          4          5          6
     1  C    4.963045   0.352126  -0.109074  -0.128850   0.476251   0.367898
     2  N    0.352126   6.714587   0.204262  -0.063703  -0.071044  -0.027328
     3  N   -0.109074   0.204262   6.717673   0.295069  -0.082079   0.004259
     4  N   -0.128850  -0.063703   0.295069   6.672426   0.301392   0.003614
     5  N    0.476251  -0.071044  -0.082079   0.301392   6.586808  -0.015516
     6  H    0.367898  -0.027328   0.004259   0.003614  -0.015516   0.433446
     7  H   -0.029810   0.282523  -0.017614   0.007389   0.009101  -0.000127
               7
     1  C   -0.029810
     2  N    0.282523
     3  N   -0.017614
     4  N    0.007389
     5  N    0.009101
     6  H   -0.000127
     7  H    0.394541
 Mulliken charges:
               1
     1  C    0.108414
     2  N   -0.391422
     3  N   -0.012495
     4  N   -0.087336
     5  N   -0.204912
     6  H    0.233754
     7  H    0.353997
 Sum of Mulliken charges =   0.00000
 Mulliken charges with hydrogens summed into heavy atoms:
               1
     1  C    0.342168
     2  N   -0.037425
     3  N   -0.012495
     4  N   -0.087336
     5  N   -0.204912
 APT charges:
               1
     1  C    0.234022
     2  N   -0.210951
     3  N   -0.036180
     4  N   -0.044265
     5  N   -0.283786
     6  H    0.101384
     7  H    0.239777
 Sum of APT charges =   0.00000
 APT charges with hydrogens summed into heavy atoms:
               1
     1  C    0.335405
     2  N    0.028826
     3  N   -0.036180
     4  N   -0.044265
     5  N   -0.283786
 Electronic spatial extent (au):  <R**2>=            256.2708
 Charge=              0.0000 electrons
 Dipole moment (field-independent basis, Debye):
    X=              2.3971    Y=              4.6678    Z=              0.0000  Tot=              5.2473
 Quadrupole moment (field-independent basis, Debye-Ang):
   XX=            -29.0790   YY=            -26.5209   ZZ=            -28.4724
   XY=              1.7979   XZ=              0.0000   YZ=              0.0000
 Traceless Quadrupole moment (field-independent basis, Debye-Ang):
   XX=             -1.0549   YY=              1.5032   ZZ=             -0.4483
   XY=              1.7979   XZ=              0.0000   YZ=              0.0000
 Octapole moment (field-independent basis, Debye-Ang**2):
  XXX=             11.3146  YYY=             22.1316  ZZZ=              0.0000  XYY=             -0.7226
  XXY=              4.4851  XXZ=              0.0000  XZZ=             -0.8789  YZZ=              0.3396
  YYZ=              0.0000  XYZ=              0.0000
 Hexadecapole moment (field-independent basis, Debye-Ang**3):
 XXXX=           -148.1307 YYYY=           -125.2211 ZZZZ=            -25.8225 XXXY=              6.8199
 XXXZ=              0.0000 YYYX=             -0.5899 YYYZ=              0.0000 ZZZX=              0.0000
 ZZZY=              0.0000 XXYY=            -55.3477 XXZZ=            -31.4454 YYZZ=            -29.5569
 XXYZ=              0.0000 YYXZ=              0.0000 ZZXY=             -0.1819
 N-N= 1.646505650283D+02 E-N=-9.334235732712D+02  KE= 2.578380880372D+02
 Symmetry A'   KE= 2.481519096488D+02
 Symmetry A"   KE= 9.686178388368D+00
  Exact polarizability:  40.669   1.105  40.427   0.000   0.000  17.672
 Approx polarizability:  86.930   0.362  93.928   0.000   0.000  30.560
 Calling FoFJK, ICntrl=    100527 FMM=F ISym2X=1 I1Cent= 0 IOpClX= 0 NMat=1 NMatS=1 NMatT=0.
 Full mass-weighted force constant matrix:
 Low frequencies ---   -5.7023   -0.0006   -0.0005    0.0005    4.9698    9.8554
 Low frequencies ---  547.7088  667.3780  705.6746
 Diagonal vibrational polarizability:
        1.2409982       1.2137422       9.5515416
 Harmonic frequencies (cm**-1), IR intensities (KM/Mole), Raman scattering
 activities (A**4/AMU), depolarization ratios for plane and unpolarized
 incident light, reduced masses (AMU), force constants (mDyne/A),
 and normal coordinates:
                      1                      2                      3
                     A"                     A"                     A"
 Frequencies --    547.7087               667.3779               705.6745
 Red. masses --      1.8168                 1.9293                 8.2464
 Frc consts  --      0.3211                 0.5063                 2.4195
 IR Inten    --     84.5353                 9.4964                 7.6607
  Atom  AN      X      Y      Z        X      Y      Z        X      Y      Z
     1   6     0.00   0.00  -0.09     0.00   0.00   0.17     0.00   0.00  -0.12
     2   7     0.00   0.00   0.22     0.00   0.00  -0.10     0.00   0.00  -0.11
     3   7     0.00   0.00  -0.09     0.00   0.00   0.10     0.00   0.00   0.42
     4   7     0.00   0.00   0.01     0.00   0.00   0.03     0.00   0.00  -0.49
     5   7     0.00   0.00   0.03     0.00   0.00  -0.16     0.00   0.00   0.34
     6   1     0.00   0.00  -0.19     0.00   0.00   0.54     0.00   0.00  -0.03
     7   1     0.00   0.00  -0.95     0.00   0.00  -0.80     0.00   0.00  -0.66
                      4                      5                      6
                     A"                     A'                     A'
 Frequencies --    803.3440               873.4474               926.3099
 Red. masses --      1.3512                 7.7207                 5.2930
 Frc consts  --      0.5138                 3.4704                 2.6758
 IR Inten    --     23.5069                 8.5691                14.0392
  Atom  AN      X      Y      Z        X      Y      Z        X      Y      Z
     1   6     0.00   0.00   0.17    -0.04   0.11   0.00    -0.04   0.02   0.00
     2   7     0.00   0.00  -0.03     0.12   0.10   0.00     0.25   0.28   0.00
     3   7     0.00   0.00   0.01     0.09  -0.12   0.00    -0.29  -0.28   0.00
     4   7     0.00   0.00  -0.02     0.35  -0.18   0.00    -0.09   0.01   0.00
     5   7     0.00   0.00  -0.03    -0.53   0.15   0.00     0.11  -0.02   0.00
     6   1     0.00   0.00  -0.98     0.20  -0.66   0.00     0.13  -0.47   0.00
     7   1     0.00   0.00  -0.11    -0.08   0.08   0.00     0.58   0.32   0.00
                      7                      8                      9
                     A'                     A'                     A'
 Frequencies --    970.2358              1009.5076              1099.7199
 Red. masses --      6.0588                 3.5415                 2.0643
 Frc consts  --      3.3604                 2.1265                 1.4709
 IR Inten    --      2.3886                19.2652                19.1121
  Atom  AN      X      Y      Z        X      Y      Z        X      Y      Z
     1   6     0.36   0.10   0.00    -0.07  -0.04   0.00     0.11  -0.12   0.00
     2   7     0.08  -0.17   0.00    -0.07   0.25   0.00    -0.13   0.01   0.00
     3   7     0.00  -0.13   0.00     0.28  -0.05   0.00    -0.11   0.02   0.00
     4   7    -0.33  -0.07   0.00    -0.15  -0.09   0.00     0.11   0.12   0.00
     5   7    -0.06   0.31   0.00     0.05  -0.06   0.00     0.04   0.01   0.00
     6   1     0.48  -0.19   0.00     0.05  -0.46   0.00     0.33  -0.80   0.00
     7   1    -0.53  -0.22   0.00    -0.74   0.22   0.00    -0.40   0.00   0.00
                     10                     11                     12
                     A'                     A'                     A'
 Frequencies --   1191.6695              1207.8684              1388.0342
 Red. masses --      4.2364                 3.1863                 3.0461
 Frc consts  --      3.5445                 2.7389                 3.4577
 IR Inten    --     15.0965                 0.5728                 7.7036
  Atom  AN      X      Y      Z        X      Y      Z        X      Y      Z
     1   6     0.00   0.00   0.00     0.25   0.05   0.00    -0.14   0.28   0.00
     2   7    -0.06   0.04   0.00     0.01   0.14   0.00     0.15  -0.13   0.00
     3   7    -0.09   0.28   0.00    -0.14   0.08   0.00    -0.04   0.08   0.00
     4   7    -0.02  -0.37   0.00     0.02  -0.11   0.00    -0.01   0.01   0.00
     5   7     0.11   0.09   0.00    -0.08  -0.22   0.00     0.06  -0.14   0.00
     6   1     0.20  -0.59   0.00     0.09   0.67   0.00     0.13  -0.60   0.00
     7   1     0.60   0.09   0.00    -0.59   0.12   0.00    -0.64  -0.21   0.00
                     13                     14                     15
                     A'                     A'                     A'
 Frequencies --   1441.2504              3195.1045              3536.6143
 Red. masses --      2.6078                 1.0989                 1.0828
 Frc consts  --      3.1915                 6.6096                 7.9796
 IR Inten    --     16.2461                 0.1099                44.0781
  Atom  AN      X      Y      Z        X      Y      Z        X      Y      Z
     1   6    -0.12  -0.22   0.00     0.09   0.03   0.00     0.00   0.00   0.00
     2   7     0.17   0.00   0.00     0.00   0.00   0.00    -0.01   0.08   0.00
     3   7    -0.09   0.07   0.00     0.00   0.00   0.00     0.00   0.00   0.00
     4   7     0.05  -0.05   0.00     0.00   0.00   0.00     0.00   0.00   0.00
     5   7     0.05   0.15   0.00     0.00   0.00   0.00     0.00   0.00   0.00
     6   1    -0.31   0.29   0.00    -0.95  -0.30   0.00    -0.02   0.00   0.00
     7   1    -0.83  -0.07   0.00     0.01   0.02   0.00     0.07  -0.99   0.00

 -------------------
 - Thermochemistry -
 -------------------
 Temperature   298.150 Kelvin.  Pressure   1.00000 Atm.
 Atom     1 has atomic number  6 and mass  12.00000
 Atom     2 has atomic number  7 and mass  14.00307
 Atom     3 has atomic number  7 and mass  14.00307
 Atom     4 has atomic number  7 and mass  14.00307
 Atom     5 has atomic number  7 and mass  14.00307
 Atom     6 has atomic number  1 and mass   1.00783
 Atom     7 has atomic number  1 and mass   1.00783
 Molecular mass:    70.02795 amu.
 Principal axes and moments of inertia in atomic units:
                           1         2         3
     Eigenvalues --   175.43004 179.27833 354.70837
           X            0.92553   0.37867   0.00000
           Y           -0.37867   0.92553   0.00000
           Z            0.00000   0.00000   1.00000
 This molecule is an asymmetric top.
 Rotational symmetry number  1.
 Rotational temperatures (Kelvin)      0.49372     0.48312     0.24418
 Rotational constants (GHZ):          10.28753    10.06670     5.08796
 Zero-point vibrational energy     117017.9 (Joules/Mol)
                                   27.96795 (Kcal/Mol)
 Warning -- explicit consideration of   1 degrees of freedom as
           vibrations may cause significant error
 Vibrational temperatures:    788.03   960.21  1015.31  1155.83  1256.69
          (Kelvin)           1332.75  1395.95  1452.45  1582.25  1714.54
                             1737.85  1997.07  2073.64  4597.04  5088.39
 
 Zero-point correction=                           0.044570 (Hartree/Particle)
 Thermal correction to Energy=                    0.048166
 Thermal correction to Enthalpy=                  0.049110
 Thermal correction to Gibbs Free Energy=         0.018398
 Sum of electronic and zero-point Energies=           -258.218739
 Sum of electronic and thermal Energies=              -258.215143
 Sum of electronic and thermal Enthalpies=            -258.214199
 Sum of electronic and thermal Free Energies=         -258.244911
 
                     E (Thermal)             CV                S
                      KCal/Mol        Cal/Mol-Kelvin    Cal/Mol-Kelvin
 Total                   30.224             12.136             64.638
 Electronic               0.000              0.000              0.000
 Translational            0.889              2.981             38.656
 Rotational               0.889              2.981             23.927
 Vibrational             28.447              6.174              2.056
 Vibration     1          0.903              1.145              0.549
                       Q            Log10(Q)             Ln(Q)
 Total Bot       0.344709D-08         -8.462547        -19.485735
 Total V=0       0.109164D+13         12.038080         27.718703
 Vib (Bot)       0.395815D-20        -20.402507        -46.978509
 Vib (Bot)    1  0.287155D+00         -0.541883         -1.247732
 Vib (V=0)       0.125349D+01          0.098119          0.225928
 Vib (V=0)    1  0.107659D+01          0.032051          0.073800
 Electronic      0.100000D+01          0.000000          0.000000
 Translational   0.230336D+08          7.362362         16.952466
 Rotational      0.378092D+05          4.577598         10.540309
 ***** Axes restored to original set *****
 -------------------------------------------------------------------
 Center     Atomic                   Forces (Hartrees/Bohr)
 Number     Number              X              Y              Z
 -------------------------------------------------------------------
      1        6          -0.000055034    0.000024474    0.000000000
      2        7          -0.000001556   -0.000053979    0.000000000
      3        7           0.000061223   -0.000014790    0.000000000
      4        7          -0.000003748    0.000051164    0.000000000
      5        7           0.000001221   -0.000015669    0.000000000
      6        1          -0.000001284    0.000005941    0.000000000
      7        1          -0.000000822    0.000002860    0.000000000
 -------------------------------------------------------------------
 Cartesian Forces:  Max     0.000061223 RMS     0.000025294
 -----------------------------------------------------------------------------------------------
                       Internal Coordinate Forces (Hartree/Bohr or radian)
  Cent   Atom   N1       Length/X         N2         Alpha/Y        N3         Beta/Z          J
 -----------------------------------------------------------------------------------------------
         X 
         X        1   0.000000(     1)
      1  C        1  -0.000061(     2)      2   0.000000(     9)
      2  N        1   0.000049(     3)      2   0.000000(    10)      3   0.000046(    16)     0
      3  N        1  -0.000023(     4)      2   0.000000(    11)      3  -0.000165(    17)     0
      4  N        1   0.000006(     5)      2   0.000000(    12)      3   0.000112(    18)     0
      5  N        1  -0.000016(     6)      2   0.000000(    13)      3   0.000001(    19)     0
      6  H        3   0.000000(     7)      4   0.000012(    14)      5   0.000000(    20)     0
      7  H        4  -0.000003(     8)      5   0.000001(    15)      6   0.000000(    21)     0
 -----------------------------------------------------------------------------------------------
 Internal  Forces:  Max     0.000165156 RMS     0.000048283

 GradGradGradGradGradGradGradGradGradGradGradGradGradGradGradGradGradGrad
 Berny optimization.
 Search for a local minimum.
 Step number   1 out of a maximum of    2
 All quantities printed in internal units (Hartrees-Bohrs-Radians)
 Second derivative matrix not updated -- analytic derivatives used.
 The second derivative matrix:
                          rn1       rn2       rn3       rn4       rch
           rn1          0.53287
           rn2         -0.06218   0.51389
           rn3          0.05849  -0.03763   0.46101
           rn4          0.09746   0.07528  -0.01599   0.49423
           rch         -0.00213  -0.00185   0.00056  -0.00269   0.35815
           rnh          0.01250  -0.00749  -0.00026   0.00014   0.00041
           an1          0.12405  -0.28491  -0.22038   0.13402   0.01374
           an2          0.18152  -0.11358  -0.30947  -0.15814   0.00468
           an3          0.22298   0.41319   0.22520  -0.19107  -0.00179
           an4         -0.10643   0.13768   0.19855  -0.16386  -0.01427
           ach          0.03368   0.01172  -0.01303   0.02611   0.00251
           anh         -0.04908   0.01667   0.02567  -0.02063  -0.00136
                          rnh       an1       an2       an3       an4
           rnh          0.44415
           an1         -0.01259   2.39877
           an2          0.01262  -0.87632   2.64914
           an3          0.00335  -0.39853  -1.27875   1.91403
           an4         -0.00442  -0.23188  -0.18647  -0.12587   0.95541
           ach          0.00068   0.00246  -0.02304  -0.00860   0.07334
           anh         -0.00157  -0.02438  -0.02049   0.01488  -0.00498
                          ach       anh
           ach          0.20135
           anh          0.00040   0.20374
 ITU=  0
     Eigenvalues ---    0.00006   0.14875   0.19947   0.25645   0.35817
     Eigenvalues ---    0.44329   0.56510   0.59106   0.69790   1.24112
     Eigenvalues ---    2.79233   3.83304
 Angle between quadratic step and forces=  85.47 degrees.
 Linear search not attempted -- first point.
 Variable       Old X    -DE/DX   Delta X   Delta X   Delta X     New X
                                 (Linear)    (Quad)   (Total)
   rn1        2.59198   0.00005   0.00000   0.11335   0.11335   2.70533
   rn2        2.80772  -0.00002   0.00000   0.09981   0.09981   2.90753
   rn3        2.19093   0.00001   0.00000  -0.00583  -0.00583   2.18510
   rn4        1.60021  -0.00002   0.00000  -0.12228  -0.12228   1.47793
   rch        2.04979   0.00000   0.00000   0.00001   0.00001   2.04980
   rnh        1.92128   0.00000   0.00000  -0.00001  -0.00001   1.92127
   an1        1.18369   0.00005   0.00000  -0.04688  -0.04688   1.13680
   an2        2.18426  -0.00017   0.00000  -0.08978  -0.08978   2.09448
   an3        3.18762   0.00011   0.00000  -0.12031  -0.12031   3.06731
   an4        4.69095   0.00000   0.00000  -0.06627  -0.06627   4.62468
   ach        2.17466   0.00001   0.00000   0.00007   0.00007   2.17473
   anh        2.09992   0.00000   0.00000   0.00002   0.00002   2.09994
         Item               Value     Threshold  Converged?
 Maximum Force            0.000165     0.000450     YES
 RMS     Force            0.000061     0.000300     YES
 Maximum Displacement     0.122277     0.001800     NO 
 RMS     Displacement     0.074678     0.001200     NO 
 Predicted change in Energy=-2.175519D-06
 GradGradGradGradGradGradGradGradGradGradGradGradGradGradGradGradGradGrad

 1\1\GINC-N748\Freq\RBLYP\6-311G(d)\C1H2N4\RDJ3\16-Dec-2013\1\\#N Geom=
 AllCheck Guess=TCheck SCRF=Check GenChk RBLYP/6-311G(d) Freq\\1H-tetra
 zole CH2N4 casno=288948 state=1 config=1 method=13 basis=7\\0,1\X\X,1,
 1.\C,1,1.,2,90.\N,1,rn1,2,90.,3,an1,0\N,1,rn2,2,90.,3,an2,0\N,1,rn3,2,
 90.,3,an3,0\N,1,rn4,2,90.,3,an4,0\H,3,rch,4,ach,5,180.,0\H,4,rnh,5,anh
 ,6,180.,0\\rn1=1.37161931\rn2=1.48578086\rn3=1.15938999\rn4=0.84679331
 \rch=1.08470022\rnh=1.01669971\an1=67.82038976\an2=125.1489366\an3=182
 .63727418\an4=268.77179929\ach=124.59863276\anh=120.31628787\\Version=
 EM64L-G09RevD.01\State=1-A'\HF=-258.2633092\RMSD=5.786e-09\RMSF=2.529e
 -05\ZeroPoint=0.0445698\Thermal=0.0481658\Dipole=1.7669398,-1.06767,0.
 \DipoleDeriv=0.1963681,0.0362313,0.,-0.1028768,0.4333609,0.,0.,0.,0.07
 23361,-0.2636783,0.2606671,0.,0.1939352,-0.2140883,0.,0.,0.,-0.1550876
 ,0.2143944,-0.3289416,0.,-0.3028049,-0.2329284,0.,0.,0.,-0.0900054,-0.
 0121389,0.1522258,0.,0.2381444,0.0273791,0.,0.,0.,-0.148035,-0.3348529
 ,-0.1094696,0.,-0.0253161,-0.3235279,0.,0.,0.,-0.1929772,0.0197815,-0.
 0073134,0.,-0.0100474,0.1139329,0.,0.,0.,0.1704363,0.1801262,-0.003399
 7,0.,0.0089655,0.1958717,0.,0.,0.,0.3433329\Polar=41.5897014,-0.387611
 ,39.5057193,0.,0.,17.6716876\PG=CS [SG(C1H2N4)]\NImag=0\\0.86800472,0.
 05480222,0.54887138,0.,0.,0.12416546,-0.13791205,-0.04443138,0.,0.5109
 8137,-0.07685147,-0.25928599,0.,-0.15191166,0.88621538,0.,0.,-0.053981
 92,0.,0.,0.08053718,-0.07524832,-0.09385908,0.,-0.15641398,-0.04365901
 ,0.,0.35682825,-0.00486625,-0.03157935,0.,-0.01698256,-0.10334893,0.,0
 .06960864,0.50948860,0.,0.,0.01885080,0.,0.,-0.06072286,0.,0.,0.103821
 94,-0.11405422,0.04928185,0.,-0.08874252,0.03692880,0.,-0.10923493,0.0
 1030622,0.,0.45142345,-0.04231664,0.02689812,0.,0.10508650,-0.07299531
 ,0.,0.06660082,-0.27202671,0.,-0.10523885,0.40832140,0.,0.,0.01741197,
 0.,0.,0.02358106,0.,0.,-0.08818713,0.,0.,0.11329293,-0.23262136,0.1147
 5818,0.,0.01297459,0.09052431,0.,-0.01569371,-0.09323514,0.,-0.1258272
 3,-0.02826384,0.,0.37756316,0.11958012,-0.21325254,0.,-0.01058457,-0.0
 9113896,0.,0.00205827,-0.10393880,0.,0.00926968,-0.08847858,0.,-0.1049
 0136,0.48978968,0.,0.,-0.07169590,0.,0.,0.01923439,0.,0.,0.03229529,0.
 ,0.,-0.08197315,0.,0.,0.10028191,-0.32439657,-0.07161252,0.,0.00122739
 ,0.00188162,0.,-0.00030601,0.00353725,0.,-0.00207840,-0.00023919,0.,-0
 .01387190,-0.00595053,0.,0.33990699,-0.06746007,-0.06811092,0.,-0.0308
 4549,-0.00122693,0.,-0.00009108,-0.00623951,0.,0.00593499,-0.00232990,
 0.,0.01932970,0.01214564,0.,0.07299570,0.06616623,0.,0.,-0.02520364,0.
 ,0.,-0.00317760,0.,0.,0.00546035,0.,0.,0.00847164,0.,0.,-0.00529904,0.
 ,0.,0.02036931,0.01622778,-0.00893926,0.,-0.14211480,0.14308740,0.,0.0
 0006871,0.03163183,0.,-0.01148615,0.00437121,0.,-0.00252355,-0.0094716
 2,0.,-0.00048150,0.00013625,0.,0.14030952,0.01711209,-0.00354072,0.,0.
 14966916,-0.35821926,0.,-0.00065855,0.00764470,0.,-0.00648269,0.000610
 98,0.,0.00178814,-0.00512644,0.,-0.00061235,-0.00040461,0.,-0.16081580
 ,0.35903535,0.,0.,-0.00954676,0.,0.,-0.00547025,0.,0.,-0.01151840,0.,0
 .,0.00740267,0.,0.,0.00715649,0.,0.,-0.00062103,0.,0.,0.01259728\\0.00
 005503,-0.00002447,0.,0.00000156,0.00005398,0.,-0.00006122,0.00001479,
 0.,0.00000375,-0.00005116,0.,-0.00000122,0.00001567,0.,0.00000128,-0.0
 0000594,0.,0.00000082,-0.00000286,0.\\\@


 ... IT IS NO ONE DREAME THAT
     CAN PLEASE THESE ALL ...

                -- BEN JONSON
 Job cpu time:       0 days  0 hours  1 minutes 24.6 seconds.
 File lengths (MBytes):  RWF=     12 Int=      0 D2E=      0 Chk=      2 Scr=      1
 Normal termination of Gaussian 09 at Mon Dec 16 13:53:23 2013.
