 Entering Gaussian System, Link 0=g09
 Initial command:
 /usr/local/gaussian/g09.d01.em64t.legacy.linda/g09/l1.exe "/tmp/rdj3/g09-9462/Gau-13003.inp" -scrdir="/tmp/rdj3/g09-9462/"
 Entering Link 1 = /usr/local/gaussian/g09.d01.em64t.legacy.linda/g09/l1.exe PID=     13004.
  
 Copyright (c) 1988,1990,1992,1993,1995,1998,2003,2009,2013,
            Gaussian, Inc.  All Rights Reserved.
  
 This is part of the Gaussian(R) 09 program.  It is based on
 the Gaussian(R) 03 system (copyright 2003, Gaussian, Inc.),
 the Gaussian(R) 98 system (copyright 1998, Gaussian, Inc.),
 the Gaussian(R) 94 system (copyright 1995, Gaussian, Inc.),
 the Gaussian 92(TM) system (copyright 1992, Gaussian, Inc.),
 the Gaussian 90(TM) system (copyright 1990, Gaussian, Inc.),
 the Gaussian 88(TM) system (copyright 1988, Gaussian, Inc.),
 the Gaussian 86(TM) system (copyright 1986, Carnegie Mellon
 University), and the Gaussian 82(TM) system (copyright 1983,
 Carnegie Mellon University). Gaussian is a federally registered
 trademark of Gaussian, Inc.
  
 This software contains proprietary and confidential information,
 including trade secrets, belonging to Gaussian, Inc.
  
 This software is provided under written license and may be
 used, copied, transmitted, or stored only in accord with that
 written license.
  
 The following legend is applicable only to US Government
 contracts under FAR:
  
                    RESTRICTED RIGHTS LEGEND
  
 Use, reproduction and disclosure by the US Government is
 subject to restrictions as set forth in subparagraphs (a)
 and (c) of the Commercial Computer Software - Restricted
 Rights clause in FAR 52.227-19.
  
 Gaussian, Inc.
 340 Quinnipiac St., Bldg. 40, Wallingford CT 06492
  
  
 ---------------------------------------------------------------
 Warning -- This program may not be used in any manner that
 competes with the business of Gaussian, Inc. or will provide
 assistance to any competitor of Gaussian, Inc.  The licensee
 of this program is prohibited from giving any competitor of
 Gaussian, Inc. access to this program.  By using this program,
 the user acknowledges that Gaussian, Inc. is engaged in the
 business of creating and licensing software in the field of
 computational chemistry and represents and warrants to the
 licensee that it is not a competitor of Gaussian, Inc. and that
 it will not use this program in any manner prohibited above.
 ---------------------------------------------------------------
  

 Cite this work as:
 Gaussian 09, Revision D.01,
 M. J. Frisch, G. W. Trucks, H. B. Schlegel, G. E. Scuseria, 
 M. A. Robb, J. R. Cheeseman, G. Scalmani, V. Barone, B. Mennucci, 
 G. A. Petersson, H. Nakatsuji, M. Caricato, X. Li, H. P. Hratchian, 
 A. F. Izmaylov, J. Bloino, G. Zheng, J. L. Sonnenberg, M. Hada, 
 M. Ehara, K. Toyota, R. Fukuda, J. Hasegawa, M. Ishida, T. Nakajima, 
 Y. Honda, O. Kitao, H. Nakai, T. Vreven, J. A. Montgomery, Jr., 
 J. E. Peralta, F. Ogliaro, M. Bearpark, J. J. Heyd, E. Brothers, 
 K. N. Kudin, V. N. Staroverov, T. Keith, R. Kobayashi, J. Normand, 
 K. Raghavachari, A. Rendell, J. C. Burant, S. S. Iyengar, J. Tomasi, 
 M. Cossi, N. Rega, J. M. Millam, M. Klene, J. E. Knox, J. B. Cross, 
 V. Bakken, C. Adamo, J. Jaramillo, R. Gomperts, R. E. Stratmann, 
 O. Yazyev, A. J. Austin, R. Cammi, C. Pomelli, J. W. Ochterski, 
 R. L. Martin, K. Morokuma, V. G. Zakrzewski, G. A. Voth, 
 P. Salvador, J. J. Dannenberg, S. Dapprich, A. D. Daniels, 
 O. Farkas, J. B. Foresman, J. V. Ortiz, J. Cioslowski, 
 and D. J. Fox, Gaussian, Inc., Wallingford CT, 2013.
 
 ******************************************
 Gaussian 09:  EM64L-G09RevD.01 24-Apr-2013
                16-Dec-2013 
 ******************************************
 %Nproc=8
 Will use up to    8 processors via shared memory.
 %mem=436000000
 ----------------------------
 #BLYP/TZVP opt=z-matrix freq
 ----------------------------
 1/10=7,14=-1,18=40,26=3,38=1/1,3;
 2/12=2,17=6,18=5,29=3,40=1/2;
 3/5=19,7=101,11=2,16=1,25=1,30=1,71=1,74=402/1,2,3;
 4//1;
 5/5=2,38=5/2;
 6/7=2,8=2,9=2,10=2,28=1/1;
 7/29=1/1,2,3,16;
 1/10=7,14=-1,18=40,26=3/3(2);
 2/29=3/2;
 99//99;
 2/29=3/2;
 3/5=19,7=101,11=2,16=1,25=1,30=1,71=1,74=402/1,2,3;
 4/5=5,16=3,69=1/1;
 5/5=2,38=5/2;
 7//1,2,3,16;
 1/14=-1,18=40,26=3/3(-5);
 2/29=3/2;
 6/7=2,8=2,9=2,10=2,19=2,28=1/1;
 99/9=1/99;
 -------------------------------------------------------------------
 1H-tetrazole CH2N4 casno=288948 state=1 config=1 method=13 basis=32
 -------------------------------------------------------------------
 Symbolic Z-matrix:
 Charge =  0 Multiplicity = 1
 X
 X                    1     1. 
 C                    1     1.       2     90. 
 N                    1    rn1      2     90.      3    an1      0
 N                    1    rn2      2     90.      3    an2      0
 N                    1    rn3      2     90.      3    an3      0
 N                    1    rn4      2     90.      3    an4      0
 H                    3    rch      4    ach      5     180.     0
 H                    4    rnh      5    anh      6     180.     0
       Variables:
  rn1                   1.3716                   
  rn2                   1.4858                   
  rn3                   1.1594                   
  rn4                   0.8468                   
  rch                   1.0847                   
  rnh                   1.0167                   
  an1                  67.8215                   
  an2                 125.1437                   
  an3                 182.6403                   
  an4                 268.7726                   
  ach                 124.5983                   
  anh                 120.3164                   
 

 GradGradGradGradGradGradGradGradGradGradGradGradGradGradGradGradGradGrad
 Berny optimization.
 Initialization pass.
                       ----------------------------
                       !    Initial Parameters    !
                       ! (Angstroms and Degrees)  !
 ----------------------                            ----------------------
 !      Name          Value   Derivative information (Atomic Units)     !
 ------------------------------------------------------------------------
 !       rn1         1.3716   estimate D2E/DX2                          !
 !       rn2         1.4858   estimate D2E/DX2                          !
 !       rn3         1.1594   estimate D2E/DX2                          !
 !       rn4         0.8468   estimate D2E/DX2                          !
 !       rch         1.0847   estimate D2E/DX2                          !
 !       rnh         1.0167   estimate D2E/DX2                          !
 !       an1        67.8215   estimate D2E/DX2                          !
 !       an2       125.1437   estimate D2E/DX2                          !
 !       an3       182.6403   estimate D2E/DX2                          !
 !       an4       268.7726   estimate D2E/DX2                          !
 !       ach       124.5983   estimate D2E/DX2                          !
 !       anh       120.3164   estimate D2E/DX2                          !
 ------------------------------------------------------------------------
 Trust Radius=3.00D-01 FncErr=1.00D-07 GrdErr=1.00D-06
 Number of steps in this run=     22 maximum allowed number of steps=    100.
 GradGradGradGradGradGradGradGradGradGradGradGradGradGradGradGradGradGrad

 ---------------------------------------------------------------------------------------------------
                            Z-MATRIX (ANGSTROMS AND DEGREES)
   CD    Cent   Atom    N1       Length/X        N2       Alpha/Y        N3        Beta/Z          J
 ---------------------------------------------------------------------------------------------------
      1         X 
      2         X        1   1.000000(     1)
      3      1  C        1   1.000000(     2)      2   90.000(     9)
      4      2  N        1   1.371600(     3)      2   90.000(    10)      3   67.822(    16)      0
      5      3  N        1   1.485800(     4)      2   90.000(    11)      3  125.144(    17)      0
      6      4  N        1   1.159400(     5)      2   90.000(    12)      3  182.640(    18)      0
      7      5  N        1   0.846800(     6)      2   90.000(    13)      3  268.773(    19)      0
      8      6  H        3   1.084700(     7)      4  124.598(    14)      5  180.000(    20)      0
      9      7  H        4   1.016700(     8)      5  120.316(    15)      6  180.000(    21)      0
 ---------------------------------------------------------------------------------------------------
                         Z-Matrix orientation:                         
 ---------------------------------------------------------------------
 Center     Atomic      Atomic             Coordinates (Angstroms)
 Number     Number       Type             X           Y           Z
 ---------------------------------------------------------------------
      1         -1           0        0.000000    0.000000    0.000000
      2         -1           0        0.000000    0.000000    1.000000
      3          6           0        1.000000    0.000000    0.000000
      4          7           0        0.517770   -1.270118    0.000000
      5          7           0       -0.855270   -1.214955    0.000000
      6          7           0       -1.158169    0.053408    0.000000
      7          7           0       -0.018139    0.846606    0.000000
      8          1           0        2.053354    0.258882    0.000000
      9          1           0        0.995328   -2.167680    0.000000
 ---------------------------------------------------------------------
                    Distance matrix (angstroms):
                    1          2          3          4          5
     1  X    0.000000
     2  X    1.000000   0.000000
     3  C    1.000000   1.414214   0.000000
     4  N    1.371600   1.697435   1.358583   0.000000
     5  N    1.485800   1.790978   2.217688   1.374147   0.000000
     6  N    1.159400   1.531081   2.158830   2.135532   1.304030
     7  N    0.846800   1.310370   1.324140   2.183511   2.225044
     8  H    2.069609   2.298539   1.084700   2.166993   3.260719
     9  H    2.385271   2.586410   2.167685   1.016700   2.081441
                    6          7          8          9
     6  N    0.000000
     7  N    1.388824   0.000000
     8  H    3.218089   2.153254   0.000000
     9  H    3.093668   3.180100   2.647192   0.000000
 Stoichiometry    CH2N4
 Framework group  CS[SG(CH2N4)]
 Deg. of freedom    11
 Full point group                 CS      NOp   2
 Largest Abelian subgroup         CS      NOp   2
 Largest concise Abelian subgroup C1      NOp   1
                         Standard orientation:                         
 ---------------------------------------------------------------------
 Center     Atomic      Atomic             Coordinates (Angstroms)
 Number     Number       Type             X           Y           Z
 ---------------------------------------------------------------------
      1          6           0        1.077320    0.240238    0.000000
      2          7           0        0.000000    1.067962    0.000000
      3          7           0       -1.139561    0.300055    0.000000
      4          7           0       -0.731348   -0.938434    0.000000
      5          7           0        0.655371   -1.014874    0.000000
      6          1           0        2.109713    0.573015    0.000000
      7          1           0       -0.064869    2.082591    0.000000
 ---------------------------------------------------------------------
 Rotational constants (GHZ):     10.2875318     10.0666029      5.0879342
 Standard basis: TZVP (5D, 7F)
 There are    85 symmetry adapted cartesian basis functions of A'  symmetry.
 There are    27 symmetry adapted cartesian basis functions of A"  symmetry.
 There are    80 symmetry adapted basis functions of A'  symmetry.
 There are    27 symmetry adapted basis functions of A"  symmetry.
   107 basis functions,   191 primitive gaussians,   112 cartesian basis functions
    18 alpha electrons       18 beta electrons
       nuclear repulsion energy       164.6498818738 Hartrees.
 NAtoms=    7 NActive=    7 NUniq=    7 SFac= 1.00D+00 NAtFMM=   60 NAOKFM=F Big=F
 Integral buffers will be    131072 words long.
 Raffenetti 2 integral format.
 Two-electron integral symmetry is turned on.
 One-electron integrals computed using PRISM.
 NBasis=   107 RedAO= T EigKep=  9.85D-04  NBF=    80    27
 NBsUse=   107 1.00D-06 EigRej= -1.00D+00 NBFU=    80    27
 ExpMin= 9.52D-02 ExpMax= 1.97D+04 ExpMxC= 6.73D+02 IAcc=2 IRadAn=         4 AccDes= 0.00D+00
 Harris functional with IExCor=  402 and IRadAn=       4 diagonalized for initial guess.
 HarFok:  IExCor=  402 AccDes= 0.00D+00 IRadAn=         4 IDoV= 1 UseB2=F ITyADJ=14
 ICtDFT=  3500011 ScaDFX=  1.000000  1.000000  1.000000  1.000000
 FoFCou: FMM=F IPFlag=           0 FMFlag=      100000 FMFlg1=           0
         NFxFlg=           0 DoJE=T BraDBF=F KetDBF=T FulRan=T
         wScrn=  0.000000 ICntrl=     500 IOpCl=  0 I1Cent=   200000004 NGrid=           0
         NMat0=    1 NMatS0=      1 NMatT0=    0 NMatD0=    1 NMtDS0=    0 NMtDT0=    0
 Petite list used in FoFCou.
 Initial guess orbital symmetries:
       Occupied  (A') (A') (A') (A') (A') (A') (A') (A') (A') (A')
                 (A') (A') (A") (A') (A') (A") (A') (A")
       Virtual   (A") (A") (A') (A') (A') (A') (A') (A') (A") (A')
                 (A') (A') (A') (A") (A') (A') (A") (A') (A') (A')
                 (A") (A') (A") (A') (A') (A') (A') (A') (A') (A')
                 (A') (A") (A') (A') (A") (A') (A") (A") (A') (A')
                 (A") (A") (A') (A') (A") (A') (A') (A') (A') (A")
                 (A') (A') (A") (A') (A") (A") (A') (A') (A') (A")
                 (A') (A') (A') (A') (A') (A') (A') (A") (A") (A')
                 (A') (A') (A") (A") (A') (A") (A') (A') (A') (A')
                 (A') (A') (A') (A') (A') (A') (A') (A') (A')
 The electronic state of the initial guess is 1-A'.
 Keep J ints in memory in symmetry-blocked form, NReq=25647217.
 Requested convergence on RMS density matrix=1.00D-08 within 128 cycles.
 Requested convergence on MAX density matrix=1.00D-06.
 Requested convergence on             energy=1.00D-06.
 No special actions if energy rises.
 Integral accuracy reduced to 1.0D-05 until final iterations.
 Initial convergence to 1.0D-05 achieved.  Increase integral accuracy.
 SCF Done:  E(RB-LYP) =  -258.288486603     A.U. after   15 cycles
            NFock= 15  Conv=0.60D-08     -V/T= 2.0032

 **********************************************************************

            Population analysis using the SCF density.

 **********************************************************************

 Orbital symmetries:
       Occupied  (A') (A') (A') (A') (A') (A') (A') (A') (A') (A')
                 (A') (A') (A") (A') (A") (A") (A') (A')
       Virtual   (A") (A") (A') (A') (A') (A') (A') (A") (A') (A')
                 (A') (A') (A") (A') (A') (A") (A') (A') (A') (A')
                 (A") (A') (A") (A') (A') (A') (A') (A') (A') (A')
                 (A') (A") (A') (A') (A") (A') (A") (A") (A') (A')
                 (A") (A") (A') (A") (A') (A') (A') (A') (A") (A')
                 (A') (A") (A') (A') (A') (A") (A") (A') (A') (A")
                 (A') (A') (A') (A') (A') (A') (A') (A") (A") (A')
                 (A') (A') (A") (A") (A') (A") (A') (A') (A') (A')
                 (A') (A') (A') (A') (A') (A') (A') (A') (A')
 The electronic state is 1-A'.
 Alpha  occ. eigenvalues --  -14.12204 -14.08921 -14.07234 -14.04494 -10.00586
 Alpha  occ. eigenvalues --   -1.04365  -0.86244  -0.81727  -0.61823  -0.60542
 Alpha  occ. eigenvalues --   -0.54263  -0.45299  -0.44402  -0.33373  -0.29895
 Alpha  occ. eigenvalues --   -0.28330  -0.26526  -0.25358
 Alpha virt. eigenvalues --   -0.06921  -0.03662  -0.01564   0.03516   0.08776
 Alpha virt. eigenvalues --    0.09641   0.10516   0.17296   0.17946   0.21624
 Alpha virt. eigenvalues --    0.24976   0.27371   0.30516   0.31122   0.31906
 Alpha virt. eigenvalues --    0.32894   0.33705   0.35974   0.39447   0.40540
 Alpha virt. eigenvalues --    0.41704   0.42184   0.45015   0.47205   0.49567
 Alpha virt. eigenvalues --    0.52114   0.55703   0.59488   0.63579   0.63637
 Alpha virt. eigenvalues --    0.68820   1.13896   1.17182   1.20824   1.24211
 Alpha virt. eigenvalues --    1.29473   1.34815   1.44135   1.54391   1.61978
 Alpha virt. eigenvalues --    1.63044   1.68121   1.69116   1.73479   1.73629
 Alpha virt. eigenvalues --    1.77359   1.80384   1.85889   1.89806   1.89836
 Alpha virt. eigenvalues --    1.93158   1.96879   1.97482   2.02757   2.04382
 Alpha virt. eigenvalues --    2.04432   2.07096   2.07936   2.11975   2.15263
 Alpha virt. eigenvalues --    2.19033   2.23092   2.30327   2.33612   2.39605
 Alpha virt. eigenvalues --    2.45977   2.48628   2.49979   2.52999   2.57208
 Alpha virt. eigenvalues --    2.61959   2.65283   2.71964   2.75033   2.81460
 Alpha virt. eigenvalues --    2.82621   3.06099   3.21314   3.40576   3.49580
 Alpha virt. eigenvalues --    3.64093   3.84412   3.92394   4.19325  21.61475
 Alpha virt. eigenvalues --   30.97124  31.20373  31.28929  31.33257
          Condensed to atoms (all electrons):
               1          2          3          4          5          6
     1  C    5.137185   0.302090  -0.084494  -0.036724   0.405910   0.393924
     2  N    0.302090   6.647181   0.028176  -0.005972  -0.133998  -0.035339
     3  N   -0.084494   0.028176   7.005933   0.128143   0.005840   0.005813
     4  N   -0.036724  -0.005972   0.128143   6.872592   0.107576   0.005266
     5  N    0.405910  -0.133998   0.005840   0.107576   6.683772  -0.016528
     6  H    0.393924  -0.035339   0.005813   0.005266  -0.016528   0.511151
     7  H   -0.045603   0.312119  -0.025402   0.009011   0.012050  -0.000147
               7
     1  C   -0.045603
     2  N    0.312119
     3  N   -0.025402
     4  N    0.009011
     5  N    0.012050
     6  H   -0.000147
     7  H    0.478766
 Mulliken charges:
               1
     1  C   -0.072288
     2  N   -0.114255
     3  N   -0.064008
     4  N   -0.079893
     5  N   -0.064622
     6  H    0.135860
     7  H    0.259206
 Sum of Mulliken charges =   0.00000
 Mulliken charges with hydrogens summed into heavy atoms:
               1
     1  C    0.063572
     2  N    0.144950
     3  N   -0.064008
     4  N   -0.079893
     5  N   -0.064622
 Electronic spatial extent (au):  <R**2>=            257.4104
 Charge=              0.0000 electrons
 Dipole moment (field-independent basis, Debye):
    X=              2.4921    Y=              4.7663    Z=              0.0000  Tot=              5.3785
 Quadrupole moment (field-independent basis, Debye-Ang):
   XX=            -29.6687   YY=            -27.1238   ZZ=            -28.8119
   XY=              1.8721   XZ=              0.0000   YZ=              0.0000
 Traceless Quadrupole moment (field-independent basis, Debye-Ang):
   XX=             -1.1339   YY=              1.4110   ZZ=             -0.2771
   XY=              1.8721   XZ=              0.0000   YZ=              0.0000
 Octapole moment (field-independent basis, Debye-Ang**2):
  XXX=             12.0807  YYY=             23.0254  ZZZ=              0.0000  XYY=             -0.6457
  XXY=              4.8175  XXZ=              0.0000  XZZ=             -0.6636  YZZ=              0.6115
  YYZ=              0.0000  XYZ=              0.0000
 Hexadecapole moment (field-independent basis, Debye-Ang**3):
 XXXX=           -152.7685 YYYY=           -129.4723 ZZZZ=            -27.6744 XXXY=              7.3414
 XXXZ=              0.0000 YYYX=             -0.3934 YYYZ=              0.0000 ZZZX=              0.0000
 ZZZY=              0.0000 XXYY=            -57.2714 XXZZ=            -32.7046 YYZZ=            -30.8756
 XXYZ=              0.0000 YYXZ=              0.0000 ZZXY=             -0.0422
 N-N= 1.646498818738D+02 E-N=-9.327953793903D+02  KE= 2.574536843535D+02
 Symmetry A'   KE= 2.478154721471D+02
 Symmetry A"   KE= 9.638212206352D+00
 Calling FoFJK, ICntrl=      2527 FMM=F ISym2X=1 I1Cent= 0 IOpClX= 0 NMat=1 NMatS=1 NMatT=0.
 ***** Axes restored to original set *****
 -------------------------------------------------------------------
 Center     Atomic                   Forces (Hartrees/Bohr)
 Number     Number              X              Y              Z
 -------------------------------------------------------------------
      1        6           0.000709892   -0.000477375    0.000000000
      2        7           0.000451831    0.001183725    0.000000000
      3        7          -0.000082464    0.002130654    0.000000000
      4        7           0.000085446   -0.001028127    0.000000000
      5        7           0.000264248   -0.002065745    0.000000000
      6        1          -0.001369950   -0.000214630    0.000000000
      7        1          -0.000059002    0.000471498    0.000000000
 -------------------------------------------------------------------
 Cartesian Forces:  Max     0.002130654 RMS     0.000829049
 -----------------------------------------------------------------------------------------------
                       Internal Coordinate Forces (Hartree/Bohr or radian)
  Cent   Atom   N1       Length/X         N2         Alpha/Y        N3         Beta/Z          J
 -----------------------------------------------------------------------------------------------
         X 
         X        1   0.000000(     1)
      1  C        1  -0.000749(     2)      2   0.000000(     9)
      2  N        1  -0.001434(     3)      2   0.000000(    10)      3  -0.002876(    16)     0
      3  N        1  -0.001590(     4)      2   0.000000(    11)      3   0.003442(    17)     0
      4  N        1  -0.000133(     5)      2   0.000000(    12)      3  -0.002242(    18)     0
      5  N        1  -0.002071(     6)      2   0.000000(    13)      3   0.000352(    19)     0
      6  H        3  -0.001382(     7)      4   0.000243(    14)      5   0.000000(    20)     0
      7  H        4  -0.000444(     8)      5   0.000325(    15)      6   0.000000(    21)     0
 -----------------------------------------------------------------------------------------------
 Internal  Forces:  Max     0.003442116 RMS     0.001327209

 GradGradGradGradGradGradGradGradGradGradGradGradGradGradGradGradGradGrad
 Berny optimization.
 Search for a local minimum.
 Step number   1 out of a maximum of   22
 All quantities printed in internal units (Hartrees-Bohrs-Radians)
 Second derivative matrix not updated -- first step.
 The second derivative matrix:
                          rn1       rn2       rn3       rn4       rch
           rn1          0.58637
           rn2         -0.02393   0.60153
           rn3          0.03417   0.01255   0.49810
           rn4          0.03284   0.02414   0.12354   0.56575
           rch          0.00000   0.00000   0.00000   0.00000   0.35432
           rnh          0.00000   0.00000   0.00000   0.00000   0.00000
           an1          0.07132  -0.66387   0.04032  -0.09139   0.00000
           an2          0.62399  -0.27263  -0.51867   0.05981   0.00000
           an3         -0.02157   0.92751  -0.03843  -0.48613   0.00000
           an4          0.04564  -0.02567   0.55043  -0.09423   0.00000
           ach          0.04248   0.00000   0.00000   0.04828   0.00000
           anh         -0.09855   0.05177   0.00000   0.00000   0.00000
                          rnh       an1       an2       an3       an4
           rnh          0.44869
           an1          0.00000   4.76421
           an2          0.00000  -2.88829   6.01207
           an3          0.00000  -0.02545  -2.99737   3.94167
           an4          0.00000  -0.12700  -0.06359  -0.82267   1.83565
           ach          0.00000  -0.11820   0.00000   0.00000   0.06709
           anh          0.00000   0.05202  -0.09382   0.00000   0.00000
                          ach       anh
           ach          0.32000
           anh          0.00000   0.32000
 ITU=  0
     Eigenvalues ---    0.00000   0.12952   0.25591   0.32533   0.35432
     Eigenvalues ---    0.39470   0.44869   0.65889   1.06045   2.31451
     Eigenvalues ---    4.80507   9.50098
 RFO step:  Lambda=-3.92890450D-05 EMin= 1.38540348D-15
 Linear search not attempted -- first point.
 Maximum step size (   0.300) exceeded in Quadratic search.
    -- Step size scaled by   0.591
 Variable       Old X    -DE/DX   Delta X   Delta X   Delta X     New X
                                 (Linear)    (Quad)   (Total)
   rn1        2.59195  -0.00143   0.00000   0.12947   0.12947   2.72142
   rn2        2.80776  -0.00159   0.00000   0.11416   0.11416   2.92192
   rn3        2.19095  -0.00013   0.00000  -0.00466  -0.00466   2.18629
   rn4        1.60022  -0.00207   0.00000  -0.14450  -0.14450   1.45572
   rch        2.04979  -0.00138   0.00000  -0.00230  -0.00230   2.04748
   rnh        1.92128  -0.00044   0.00000  -0.00058  -0.00058   1.92070
   an1        1.18371  -0.00288   0.00000  -0.05477  -0.05477   1.12894
   an2        2.18417   0.00344   0.00000  -0.10368  -0.10368   2.08049
   an3        3.18767  -0.00224   0.00000  -0.13974  -0.13974   3.04793
   an4        4.69097   0.00035   0.00000  -0.07758  -0.07758   4.61339
   ach        2.17465   0.00024   0.00000   0.00110   0.00110   2.17575
   anh        2.09992   0.00033   0.00000   0.00051   0.00051   2.10043
         Item               Value     Threshold  Converged?
 Maximum Force            0.003442     0.000450     NO 
 RMS     Force            0.001742     0.000300     NO 
 Maximum Displacement     0.144500     0.001800     NO 
 RMS     Displacement     0.086603     0.001200     NO 
 Predicted change in Energy=-1.812651D-05
 GradGradGradGradGradGradGradGradGradGradGradGradGradGradGradGradGradGrad

 ---------------------------------------------------------------------------------------------------
                            Z-MATRIX (ANGSTROMS AND DEGREES)
   CD    Cent   Atom    N1       Length/X        N2       Alpha/Y        N3        Beta/Z          J
 ---------------------------------------------------------------------------------------------------
      1         X 
      2         X        1   1.000000(     1)
      3      1  C        1   1.000000(     2)      2   90.000(     9)
      4      2  N        1   1.440113(     3)      2   90.000(    10)      3   64.684(    16)      0
      5      3  N        1   1.546212(     4)      2   90.000(    11)      3  119.203(    17)      0
      6      4  N        1   1.156936(     5)      2   90.000(    12)      3  174.634(    18)      0
      7      5  N        1   0.770334(     6)      2   90.000(    13)      3  264.328(    19)      0
      8      6  H        3   1.083481(     7)      4  124.661(    14)      5  180.000(    20)      0
      9      7  H        4   1.016391(     8)      5  120.346(    15)      6  180.000(    21)      0
 ---------------------------------------------------------------------------------------------------
                         Z-Matrix orientation:                         
 ---------------------------------------------------------------------
 Center     Atomic      Atomic             Coordinates (Angstroms)
 Number     Number       Type             X           Y           Z
 ---------------------------------------------------------------------
      1         -1           0        0.000000    0.000000    0.000000
      2         -1           0        0.000000    0.000000    1.000000
      3          6           0        1.000000    0.000000    0.000000
      4          7           0        0.615817   -1.301804    0.000000
      5          7           0       -0.754413   -1.349679    0.000000
      6          7           0       -1.151865   -0.108201    0.000000
      7          7           0       -0.076139    0.766562    0.000000
      8          1           0        2.029164    0.338752    0.000000
      9          1           0        1.159630   -2.160476    0.000000
 ---------------------------------------------------------------------
                    Distance matrix (angstroms):
                    1          2          3          4          5
     1  X    0.000000
     2  X    1.000000   0.000000
     3  C    1.000000   1.414214   0.000000
     4  N    1.440113   1.753261   1.357310   0.000000
     5  N    1.546212   1.841405   2.213504   1.371066   0.000000
     6  N    1.156936   1.529216   2.154584   2.132930   1.303548
     7  N    0.770334   1.262305   1.321246   2.181041   2.222281
     8  H    2.057245   2.287413   1.083481   2.165403   3.255625
     9  H    2.452019   2.648093   2.166365   1.016391   2.078689
                    6          7          8          9
     6  N    0.000000
     7  N    1.386505   0.000000
     8  H    3.212275   2.148329   0.000000
     9  H    3.091091   3.177212   2.646172   0.000000
 Stoichiometry    CH2N4
 Framework group  CS[SG(CH2N4)]
 Deg. of freedom    11
 Full point group                 CS      NOp   2
 Largest Abelian subgroup         CS      NOp   2
 Largest concise Abelian subgroup C1      NOp   1
                         Standard orientation:                         
 ---------------------------------------------------------------------
 Center     Atomic      Atomic             Coordinates (Angstroms)
 Number     Number       Type             X           Y           Z
 ---------------------------------------------------------------------
      1          6           0        1.075253    0.238513    0.000000
      2          7           0        0.000000    1.066837    0.000000
      3          7           0       -1.137364    0.301183    0.000000
      4          7           0       -0.730292   -0.937174    0.000000
      5          7           0        0.654094   -1.013812    0.000000
      6          1           0        2.107272    0.568463    0.000000
      7          1           0       -0.063856    2.081220    0.000000
 ---------------------------------------------------------------------
 Rotational constants (GHZ):     10.3195526     10.0936143      5.1026665
 Standard basis: TZVP (5D, 7F)
 There are    85 symmetry adapted cartesian basis functions of A'  symmetry.
 There are    27 symmetry adapted cartesian basis functions of A"  symmetry.
 There are    80 symmetry adapted basis functions of A'  symmetry.
 There are    27 symmetry adapted basis functions of A"  symmetry.
   107 basis functions,   191 primitive gaussians,   112 cartesian basis functions
    18 alpha electrons       18 beta electrons
       nuclear repulsion energy       164.8838014287 Hartrees.
 NAtoms=    7 NActive=    7 NUniq=    7 SFac= 1.00D+00 NAtFMM=   60 NAOKFM=F Big=F
 Integral buffers will be    131072 words long.
 Raffenetti 2 integral format.
 Two-electron integral symmetry is turned on.
 One-electron integrals computed using PRISM.
 NBasis=   107 RedAO= T EigKep=  9.76D-04  NBF=    80    27
 NBsUse=   107 1.00D-06 EigRej= -1.00D+00 NBFU=    80    27
 Initial guess from the checkpoint file:  "/tmp/rdj3/g09-9462/Gau-13004.chk"
 B after Tr=     0.000000    0.000000    0.000000
         Rot=    1.000000    0.000000    0.000000    0.000330 Ang=   0.04 deg.
 Initial guess orbital symmetries:
       Occupied  (A') (A') (A') (A') (A') (A') (A') (A') (A') (A')
                 (A') (A') (A") (A') (A") (A") (A') (A')
       Virtual   (A') (A') (A') (A') (A') (A') (A') (A') (A') (A')
                 (A') (A') (A') (A') (A') (A') (A') (A') (A') (A')
                 (A') (A') (A') (A') (A') (A') (A') (A') (A') (A')
                 (A') (A') (A') (A') (A') (A') (A') (A') (A') (A')
                 (A') (A') (A') (A') (A') (A') (A') (A') (A') (A')
                 (A') (A') (A') (A') (A') (A') (A') (A') (A') (A')
                 (A') (A') (A') (A') (A') (A") (A") (A") (A") (A")
                 (A") (A") (A") (A") (A") (A") (A") (A") (A") (A")
                 (A") (A") (A") (A") (A") (A") (A") (A") (A")
 ExpMin= 9.52D-02 ExpMax= 1.97D+04 ExpMxC= 6.73D+02 IAcc=2 IRadAn=         4 AccDes= 0.00D+00
 Harris functional with IExCor=  402 and IRadAn=       4 diagonalized for initial guess.
 HarFok:  IExCor=  402 AccDes= 0.00D+00 IRadAn=         4 IDoV= 1 UseB2=F ITyADJ=14
 ICtDFT=  3500011 ScaDFX=  1.000000  1.000000  1.000000  1.000000
 FoFCou: FMM=F IPFlag=           0 FMFlag=      100000 FMFlg1=           0
         NFxFlg=           0 DoJE=T BraDBF=F KetDBF=T FulRan=T
         wScrn=  0.000000 ICntrl=     500 IOpCl=  0 I1Cent=   200000004 NGrid=           0
         NMat0=    1 NMatS0=      1 NMatT0=    0 NMatD0=    1 NMtDS0=    0 NMtDT0=    0
 Petite list used in FoFCou.
 Keep J ints in memory in symmetry-blocked form, NReq=25647217.
 Requested convergence on RMS density matrix=1.00D-08 within 128 cycles.
 Requested convergence on MAX density matrix=1.00D-06.
 Requested convergence on             energy=1.00D-06.
 No special actions if energy rises.
 Integral accuracy reduced to 1.0D-05 until final iterations.
 Initial convergence to 1.0D-05 achieved.  Increase integral accuracy.
 SCF Done:  E(RB-LYP) =  -258.288482342     A.U. after   11 cycles
            NFock= 11  Conv=0.78D-08     -V/T= 2.0031
 Calling FoFJK, ICntrl=      2527 FMM=F ISym2X=1 I1Cent= 0 IOpClX= 0 NMat=1 NMatS=1 NMatT=0.
 ***** Axes restored to original set *****
 -------------------------------------------------------------------
 Center     Atomic                   Forces (Hartrees/Bohr)
 Number     Number              X              Y              Z
 -------------------------------------------------------------------
      1        6           0.003375632   -0.000371342    0.000000000
      2        7           0.001391924    0.000335138    0.000000000
      3        7          -0.001850665    0.000987951    0.000000000
      4        7          -0.001664303   -0.000912512    0.000000000
      5        7          -0.000860866   -0.000065369    0.000000000
      6        1          -0.000453629   -0.000246491    0.000000000
      7        1           0.000061907    0.000272626    0.000000000
 -------------------------------------------------------------------
 Cartesian Forces:  Max     0.003375632 RMS     0.001039143
 -----------------------------------------------------------------------------------------------
                       Internal Coordinate Forces (Hartree/Bohr or radian)
  Cent   Atom   N1       Length/X         N2         Alpha/Y        N3         Beta/Z          J
 -----------------------------------------------------------------------------------------------
         X 
         X        1   0.000000(     1)
      1  C        1   0.002993(     2)      2   0.000000(     9)
      2  N        1  -0.000112(     3)      2   0.000000(    10)      3  -0.004292(    16)     0
      3  N        1   0.000166(     4)      2   0.000000(    11)      3   0.005906(    17)     0
      4  N        1   0.001742(     5)      2   0.000000(    12)      3  -0.001646(    18)     0
      5  N        1   0.000020(     6)      2   0.000000(    13)      3  -0.001256(    19)     0
      6  H        3  -0.000508(     7)      4  -0.000189(    14)      5   0.000000(    20)     0
      7  H        4  -0.000197(     8)      5   0.000381(    15)      6   0.000000(    21)     0
 -----------------------------------------------------------------------------------------------
 Internal  Forces:  Max     0.005906235 RMS     0.001827127

 GradGradGradGradGradGradGradGradGradGradGradGradGradGradGradGradGradGrad
 Berny optimization.
 Search for a local minimum.
 Step number   2 out of a maximum of   22
 All quantities printed in internal units (Hartrees-Bohrs-Radians)
 Update second derivatives using D2CorN and points    2    1
 DE=  4.26D-06 DEPred=-1.81D-05 R=-2.35D-01
 Trust test=-2.35D-01 RLast= 3.00D-01 DXMaxT set to 1.50D-01
 The second derivative matrix:
                          rn1       rn2       rn3       rn4       rch
           rn1          0.58569
           rn2         -0.02482   0.60050
           rn3          0.03289   0.01143   0.49819
           rn4          0.03259   0.02424   0.12500   0.56715
           rch         -0.00004  -0.00003   0.00002   0.00006   0.35433
           rnh          0.00001   0.00001   0.00001  -0.00001   0.00000
           an1          0.07371  -0.66165   0.04079  -0.09363  -0.00002
           an2          0.62102  -0.27502  -0.51752   0.06393   0.00009
           an3         -0.02068   0.92860  -0.03705  -0.48603   0.00004
           an4          0.04685  -0.02443   0.55117  -0.09497   0.00001
           ach          0.04268   0.00018  -0.00002   0.04804   0.00000
           anh         -0.09873   0.05161   0.00000   0.00020   0.00000
                          rnh       an1       an2       an3       an4
           rnh          0.44869
           an1         -0.00001   4.76231
           an2          0.00001  -2.88872   6.01726
           an3         -0.00001  -0.02809  -2.99429   3.94055
           an4         -0.00001  -0.12877  -0.06246  -0.82407   1.83444
           ach          0.00000  -0.11827  -0.00019  -0.00022   0.06697
           anh          0.00000   0.05211  -0.09370   0.00019   0.00011
                          ach       anh
           ach          0.32000
           anh          0.00000   0.32000
 ITU= -1  0
 Energy rises -- skip Quadratic search.
 Quartic linear search produced a step of -0.47902.
 Variable       Old X    -DE/DX   Delta X   Delta X   Delta X     New X
                                 (Linear)    (Quad)   (Total)
   rn1        2.72142  -0.00011  -0.06202   0.00000  -0.06202   2.65940
   rn2        2.92192   0.00017  -0.05469   0.00000  -0.05469   2.86723
   rn3        2.18629   0.00174   0.00223   0.00000   0.00223   2.18852
   rn4        1.45572   0.00002   0.06922   0.00000   0.06922   1.52494
   rch        2.04748  -0.00051   0.00110   0.00000   0.00110   2.04859
   rnh        1.92070  -0.00020   0.00028   0.00000   0.00028   1.92098
   an1        1.12894  -0.00429   0.02623   0.00000   0.02623   1.15518
   an2        2.08049   0.00591   0.04966   0.00000   0.04966   2.13015
   an3        3.04793  -0.00165   0.06694   0.00000   0.06694   3.11487
   an4        4.61339  -0.00126   0.03716   0.00000   0.03716   4.65055
   ach        2.17575  -0.00019  -0.00053   0.00000  -0.00053   2.17522
   anh        2.10043   0.00038  -0.00025   0.00000  -0.00025   2.10018
         Item               Value     Threshold  Converged?
 Maximum Force            0.005906     0.000450     NO 
 RMS     Force            0.002257     0.000300     NO 
 Maximum Displacement     0.069218     0.001800     NO 
 RMS     Displacement     0.041484     0.001200     NO 
 Predicted change in Energy=-1.311270D-05
 GradGradGradGradGradGradGradGradGradGradGradGradGradGradGradGradGradGrad

 ---------------------------------------------------------------------------------------------------
                            Z-MATRIX (ANGSTROMS AND DEGREES)
   CD    Cent   Atom    N1       Length/X        N2       Alpha/Y        N3        Beta/Z          J
 ---------------------------------------------------------------------------------------------------
      1         X 
      2         X        1   1.000000(     1)
      3      1  C        1   1.000000(     2)      2   90.000(     9)
      4      2  N        1   1.407294(     3)      2   90.000(    10)      3   66.187(    16)      0
      5      3  N        1   1.517274(     4)      2   90.000(    11)      3  122.049(    17)      0
      6      4  N        1   1.158116(     5)      2   90.000(    12)      3  178.469(    18)      0
      7      5  N        1   0.806962(     6)      2   90.000(    13)      3  266.457(    19)      0
      8      6  H        3   1.084065(     7)      4  124.631(    14)      5  180.000(    20)      0
      9      7  H        4   1.016539(     8)      5  120.332(    15)      6  180.000(    21)      0
 ---------------------------------------------------------------------------------------------------
                         Z-Matrix orientation:                         
 ---------------------------------------------------------------------
 Center     Atomic      Atomic             Coordinates (Angstroms)
 Number     Number       Type             X           Y           Z
 ---------------------------------------------------------------------
      1         -1           0        0.000000    0.000000    0.000000
      2         -1           0        0.000000    0.000000    1.000000
      3          6           0        1.000000    0.000000    0.000000
      4          7           0        0.568206   -1.287485    0.000000
      5          7           0       -0.805129   -1.286035    0.000000
      6          7           0       -1.157703   -0.030943    0.000000
      7          7           0       -0.049870    0.805420    0.000000
      8          1           0        2.041595    0.300460    0.000000
      9          1           0        1.080637   -2.165418    0.000000
 ---------------------------------------------------------------------
                    Distance matrix (angstroms):
                    1          2          3          4          5
     1  X    0.000000
     2  X    1.000000   0.000000
     3  C    1.000000   1.414214   0.000000
     4  N    1.407294   1.726406   1.357963   0.000000
     5  N    1.517274   1.817174   2.216389   1.373336   0.000000
     6  N    1.158116   1.530109   2.157925   2.134868   1.303673
     7  N    0.806962   1.284986   1.323226   2.182262   2.223646
     8  H    2.063586   2.293117   1.084065   2.166205   3.258958
     9  H    2.420085   2.618551   2.166919   1.016539   2.080728
                    6          7          8          9
     6  N    0.000000
     7  N    1.388091   0.000000
     8  H    3.216416   2.151560   0.000000
     9  H    3.092919   3.178667   2.646506   0.000000
 Stoichiometry    CH2N4
 Framework group  CS[SG(CH2N4)]
 Deg. of freedom    11
 Full point group                 CS      NOp   2
 Largest Abelian subgroup         CS      NOp   2
 Largest concise Abelian subgroup C1      NOp   1
                         Standard orientation:                         
 ---------------------------------------------------------------------
 Center     Atomic      Atomic             Coordinates (Angstroms)
 Number     Number       Type             X           Y           Z
 ---------------------------------------------------------------------
      1          6           0        1.076745    0.240064    0.000000
      2          7           0        0.000000    1.067521    0.000000
      3          7           0       -1.138834    0.299985    0.000000
      4          7           0       -0.731060   -0.938273    0.000000
      5          7           0        0.654956   -1.014138    0.000000
      6          1           0        2.108756    0.571950    0.000000
      7          1           0       -0.064660    2.082001    0.000000
 ---------------------------------------------------------------------
 Rotational constants (GHZ):     10.2962485     10.0781567      5.0930177
 Standard basis: TZVP (5D, 7F)
 There are    85 symmetry adapted cartesian basis functions of A'  symmetry.
 There are    27 symmetry adapted cartesian basis functions of A"  symmetry.
 There are    80 symmetry adapted basis functions of A'  symmetry.
 There are    27 symmetry adapted basis functions of A"  symmetry.
   107 basis functions,   191 primitive gaussians,   112 cartesian basis functions
    18 alpha electrons       18 beta electrons
       nuclear repulsion energy       164.7309416302 Hartrees.
 NAtoms=    7 NActive=    7 NUniq=    7 SFac= 1.00D+00 NAtFMM=   60 NAOKFM=F Big=F
 Integral buffers will be    131072 words long.
 Raffenetti 2 integral format.
 Two-electron integral symmetry is turned on.
 One-electron integrals computed using PRISM.
 NBasis=   107 RedAO= T EigKep=  9.82D-04  NBF=    80    27
 NBsUse=   107 1.00D-06 EigRej= -1.00D+00 NBFU=    80    27
 Lowest energy guess from the checkpoint file:  "/tmp/rdj3/g09-9462/Gau-13004.chk"
 B after Tr=     0.000000    0.000000    0.000000
         Rot=    1.000000    0.000000    0.000000    0.000017 Ang=   0.00 deg.
 B after Tr=     0.000000    0.000000    0.000000
         Rot=    1.000000    0.000000    0.000000   -0.000313 Ang=  -0.04 deg.
 Initial guess orbital symmetries:
       Occupied  (A') (A') (A") (A') (A') (A") (A') (A") (A') (A')
                 (A') (A') (A') (A') (A') (A') (A') (A')
       Virtual   (A') (A') (A") (A') (A') (A") (A') (A") (A') (A')
                 (A') (A') (A') (A') (A') (A') (A') (A') (A') (A')
                 (A') (A') (A') (A') (A') (A') (A') (A') (A') (A')
                 (A') (A') (A') (A') (A') (A') (A') (A') (A') (A')
                 (A') (A') (A') (A') (A') (A') (A') (A') (A') (A')
                 (A') (A') (A') (A') (A') (A') (A') (A') (A') (A')
                 (A') (A') (A') (A') (A') (A") (A") (A") (A") (A")
                 (A") (A") (A") (A") (A") (A") (A") (A") (A") (A")
                 (A") (A") (A") (A") (A") (A") (A") (A") (A")
 Keep J ints in memory in symmetry-blocked form, NReq=25647217.
 Requested convergence on RMS density matrix=1.00D-08 within 128 cycles.
 Requested convergence on MAX density matrix=1.00D-06.
 Requested convergence on             energy=1.00D-06.
 No special actions if energy rises.
 Integral accuracy reduced to 1.0D-05 until final iterations.
 An orbital has undefined symmetry, so N**3 symmetry is turned off.
 Initial convergence to 1.0D-05 achieved.  Increase integral accuracy.
 SCF Done:  E(RB-LYP) =  -258.288493066     A.U. after    9 cycles
            NFock=  9  Conv=0.89D-08     -V/T= 2.0032
 Calling FoFJK, ICntrl=      2527 FMM=F ISym2X=1 I1Cent= 0 IOpClX= 0 NMat=1 NMatS=1 NMatT=0.
 ***** Axes restored to original set *****
 -------------------------------------------------------------------
 Center     Atomic                   Forces (Hartrees/Bohr)
 Number     Number              X              Y              Z
 -------------------------------------------------------------------
      1        6           0.001246949   -0.000424682    0.000000000
      2        7           0.000620447    0.000775452    0.000000000
      3        7          -0.000660844    0.001518439    0.000000000
      4        7          -0.000196256   -0.000907064    0.000000000
      5        7          -0.000048300   -0.001104468    0.000000000
      6        1          -0.000926213   -0.000200296    0.000000000
      7        1          -0.000035783    0.000342618    0.000000000
 -------------------------------------------------------------------
 Cartesian Forces:  Max     0.001518439 RMS     0.000638600
 -----------------------------------------------------------------------------------------------
                       Internal Coordinate Forces (Hartree/Bohr or radian)
  Cent   Atom   N1       Length/X         N2         Alpha/Y        N3         Beta/Z          J
 -----------------------------------------------------------------------------------------------
         X 
         X        1   0.000000(     1)
      1  C        1   0.000272(     2)      2   0.000000(     9)
      2  N        1  -0.000848(     3)      2   0.000000(    10)      3  -0.002837(    16)     0
      3  N        1  -0.000847(     4)      2   0.000000(    11)      3   0.003757(    17)     0
      4  N        1   0.000220(     5)      2   0.000000(    12)      3  -0.001973(    18)     0
      5  N        1  -0.001099(     6)      2   0.000000(    13)      3  -0.000178(    19)     0
      6  H        3  -0.000945(     7)      4   0.000132(    14)      5   0.000000(    20)     0
      7  H        4  -0.000314(     8)      5   0.000272(    15)      6   0.000000(    21)     0
 -----------------------------------------------------------------------------------------------
 Internal  Forces:  Max     0.003756854 RMS     0.001193997

 GradGradGradGradGradGradGradGradGradGradGradGradGradGradGradGradGradGrad
 Berny optimization.
 Search for a local minimum.
 Step number   3 out of a maximum of   22
 All quantities printed in internal units (Hartrees-Bohrs-Radians)
 Update second derivatives using D2CorN and points    1    3
 The second derivative matrix:
                          rn1       rn2       rn3       rn4       rch
           rn1          0.58557
           rn2         -0.02496   0.60035
           rn3          0.03310   0.01163   0.49818
           rn4          0.03255   0.02424   0.12477   0.56740
           rch         -0.00003  -0.00002   0.00002   0.00005   0.35433
           rnh          0.00002   0.00002   0.00000  -0.00001   0.00000
           an1          0.07379  -0.66156   0.04069  -0.09365  -0.00003
           an2          0.62082  -0.27517  -0.51769   0.06430   0.00009
           an3         -0.02026   0.92900  -0.03730  -0.48631   0.00002
           an4          0.04699  -0.02429   0.55104  -0.09502   0.00000
           ach          0.04263   0.00013  -0.00001   0.04810   0.00000
           anh         -0.09871   0.05163   0.00000   0.00017   0.00000
                          rnh       an1       an2       an3       an4
           rnh          0.44869
           an1         -0.00002   4.76226
           an2          0.00000  -2.88866   6.01766
           an3         -0.00002  -0.02830  -2.99430   3.93978
           an4         -0.00001  -0.12885  -0.06239  -0.82439   1.83433
           ach          0.00000  -0.11824  -0.00015  -0.00016   0.06701
           anh          0.00000   0.05210  -0.09372   0.00017   0.00010
                          ach       anh
           ach          0.32000
           anh          0.00000   0.32000
 ITU=  0 -1  0
     Eigenvalues ---    0.00012   0.12952   0.25589   0.32534   0.35433
     Eigenvalues ---    0.39471   0.44869   0.65894   1.06044   2.31451
     Eigenvalues ---    4.80507   9.50097
 RFO step:  Lambda=-1.26924679D-05 EMin= 1.15016944D-04
 Quartic linear search produced a step of  0.67905.
 Variable       Old X    -DE/DX   Delta X   Delta X   Delta X     New X
                                 (Linear)    (Quad)   (Total)
   rn1        2.65940  -0.00085   0.04580  -0.02057   0.02524   2.68464
   rn2        2.86723  -0.00085   0.04039  -0.01605   0.02434   2.89157
   rn3        2.18852   0.00022  -0.00165   0.00568   0.00403   2.19255
   rn4        1.52494  -0.00110  -0.05112   0.01731  -0.03381   1.49113
   rch        2.04859  -0.00095  -0.00082  -0.00184  -0.00266   2.04593
   rnh        1.92098  -0.00031  -0.00021  -0.00050  -0.00071   1.92027
   an1        1.15518  -0.00284  -0.01938   0.00777  -0.01161   1.14357
   an2        2.13015   0.00376  -0.03668   0.01581  -0.02087   2.10929
   an3        3.11487  -0.00197  -0.04944   0.01936  -0.03008   3.08479
   an4        4.65055  -0.00018  -0.02745   0.00895  -0.01850   4.63205
   ach        2.17522   0.00013   0.00039   0.00133   0.00172   2.17694
   anh        2.10018   0.00027   0.00018   0.00033   0.00051   2.10069
         Item               Value     Threshold  Converged?
 Maximum Force            0.003757     0.000450     NO 
 RMS     Force            0.001578     0.000300     NO 
 Maximum Displacement     0.033811     0.001800     NO 
 RMS     Displacement     0.018745     0.001200     NO 
 Predicted change in Energy=-8.221882D-06
 GradGradGradGradGradGradGradGradGradGradGradGradGradGradGradGradGradGrad

 ---------------------------------------------------------------------------------------------------
                            Z-MATRIX (ANGSTROMS AND DEGREES)
   CD    Cent   Atom    N1       Length/X        N2       Alpha/Y        N3        Beta/Z          J
 ---------------------------------------------------------------------------------------------------
      1         X 
      2         X        1   1.000000(     1)
      3      1  C        1   1.000000(     2)      2   90.000(     9)
      4      2  N        1   1.420649(     3)      2   90.000(    10)      3   65.522(    16)      0
      5      3  N        1   1.530151(     4)      2   90.000(    11)      3  120.853(    17)      0
      6      4  N        1   1.160249(     5)      2   90.000(    12)      3  176.746(    18)      0
      7      5  N        1   0.789070(     6)      2   90.000(    13)      3  265.397(    19)      0
      8      6  H        3   1.082659(     7)      4  124.730(    14)      5  180.000(    20)      0
      9      7  H        4   1.016165(     8)      5  120.361(    15)      6  180.000(    21)      0
 ---------------------------------------------------------------------------------------------------
                         Z-Matrix orientation:                         
 ---------------------------------------------------------------------
 Center     Atomic      Atomic             Coordinates (Angstroms)
 Number     Number       Type             X           Y           Z
 ---------------------------------------------------------------------
      1         -1           0        0.000000    0.000000    0.000000
      2         -1           0        0.000000    0.000000    1.000000
      3          6           0        1.000000    0.000000    0.000000
      4          7           0        0.588646   -1.292957    0.000000
      5          7           0       -0.784722   -1.313611    0.000000
      6          7           0       -1.158378   -0.065866    0.000000
      7          7           0       -0.063323    0.786525    0.000000
      8          1           0        2.034901    0.318008    0.000000
      9          1           0        1.115388   -2.161942    0.000000
 ---------------------------------------------------------------------
                    Distance matrix (angstroms):
                    1          2          3          4          5
     1  X    0.000000
     2  X    1.000000   0.000000
     3  C    1.000000   1.414214   0.000000
     4  N    1.420649   1.737309   1.356816   0.000000
     5  N    1.530151   1.827940   2.216034   1.373524   0.000000
     6  N    1.160249   1.531724   2.159383   2.134911   1.302492
     7  N    0.789070   1.273826   1.322603   2.179291   2.220583
     8  H    2.059600   2.289531   1.082659   2.164916   3.257677
     9  H    2.432711   2.630225   2.165019   1.016165   2.080885
                    6          7          8          9
     6  N    0.000000
     7  N    1.387702   0.000000
     8  H    3.216270   2.149896   0.000000
     9  H    3.092498   3.175345   2.644930   0.000000
 Stoichiometry    CH2N4
 Framework group  CS[SG(CH2N4)]
 Deg. of freedom    11
 Full point group                 CS      NOp   2
 Largest Abelian subgroup         CS      NOp   2
 Largest concise Abelian subgroup C1      NOp   1
                         Standard orientation:                         
 ---------------------------------------------------------------------
 Center     Atomic      Atomic             Coordinates (Angstroms)
 Number     Number       Type             X           Y           Z
 ---------------------------------------------------------------------
      1          6           0        1.076955    0.241455    0.000000
      2          7           0        0.000000    1.066754    0.000000
      3          7           0       -1.138354    0.298172    0.000000
      4          7           0       -0.731183   -0.939042    0.000000
      5          7           0        0.654605   -1.011900    0.000000
      6          1           0        2.107749    0.572533    0.000000
      7          1           0       -0.064959    2.080841    0.000000
 ---------------------------------------------------------------------
 Rotational constants (GHZ):     10.2995575     10.0942034      5.0979233
 Standard basis: TZVP (5D, 7F)
 There are    85 symmetry adapted cartesian basis functions of A'  symmetry.
 There are    27 symmetry adapted cartesian basis functions of A"  symmetry.
 There are    80 symmetry adapted basis functions of A'  symmetry.
 There are    27 symmetry adapted basis functions of A"  symmetry.
   107 basis functions,   191 primitive gaussians,   112 cartesian basis functions
    18 alpha electrons       18 beta electrons
       nuclear repulsion energy       164.8107282918 Hartrees.
 NAtoms=    7 NActive=    7 NUniq=    7 SFac= 1.00D+00 NAtFMM=   60 NAOKFM=F Big=F
 Integral buffers will be    131072 words long.
 Raffenetti 2 integral format.
 Two-electron integral symmetry is turned on.
 One-electron integrals computed using PRISM.
 NBasis=   107 RedAO= T EigKep=  9.78D-04  NBF=    80    27
 NBsUse=   107 1.00D-06 EigRej= -1.00D+00 NBFU=    80    27
 Initial guess from the checkpoint file:  "/tmp/rdj3/g09-9462/Gau-13004.chk"
 B after Tr=     0.000000    0.000000    0.000000
         Rot=    1.000000    0.000000    0.000000   -0.000328 Ang=  -0.04 deg.
 Initial guess orbital symmetries:
       Occupied  (A') (A') (A') (A') (A') (A') (A') (A') (A') (A')
                 (A') (A') (A") (A') (A") (A") (A') (A')
       Virtual   (A') (A') (A') (A') (A') (A') (A') (A') (A') (A')
                 (A') (A') (A') (A') (A') (A') (A') (A') (A') (A')
                 (A') (A') (A') (A') (A') (A') (A') (A') (A') (A')
                 (A') (A') (A') (A') (A') (A') (A') (A') (A') (A')
                 (A') (A') (A') (A') (A') (A') (A') (A') (A') (A')
                 (A') (A') (A') (A') (A') (A') (A') (A') (A') (A')
                 (A') (A') (A') (A') (A') (A") (A") (A") (A") (A")
                 (A") (A") (A") (A") (A") (A") (A") (A") (A") (A")
                 (A") (A") (A") (A") (A") (A") (A") (A") (A")
 ExpMin= 9.52D-02 ExpMax= 1.97D+04 ExpMxC= 6.73D+02 IAcc=2 IRadAn=         4 AccDes= 0.00D+00
 Harris functional with IExCor=  402 and IRadAn=       4 diagonalized for initial guess.
 HarFok:  IExCor=  402 AccDes= 0.00D+00 IRadAn=         4 IDoV= 1 UseB2=F ITyADJ=14
 ICtDFT=  3500011 ScaDFX=  1.000000  1.000000  1.000000  1.000000
 FoFCou: FMM=F IPFlag=           0 FMFlag=      100000 FMFlg1=           0
         NFxFlg=           0 DoJE=T BraDBF=F KetDBF=T FulRan=T
         wScrn=  0.000000 ICntrl=     500 IOpCl=  0 I1Cent=   200000004 NGrid=           0
         NMat0=    1 NMatS0=      1 NMatT0=    0 NMatD0=    1 NMtDS0=    0 NMtDT0=    0
 Petite list used in FoFCou.
 Keep J ints in memory in symmetry-blocked form, NReq=25647217.
 Requested convergence on RMS density matrix=1.00D-08 within 128 cycles.
 Requested convergence on MAX density matrix=1.00D-06.
 Requested convergence on             energy=1.00D-06.
 No special actions if energy rises.
 Integral accuracy reduced to 1.0D-05 until final iterations.
 Initial convergence to 1.0D-05 achieved.  Increase integral accuracy.
 SCF Done:  E(RB-LYP) =  -258.288498378     A.U. after   11 cycles
            NFock= 11  Conv=0.15D-08     -V/T= 2.0032
 Calling FoFJK, ICntrl=      2527 FMM=F ISym2X=1 I1Cent= 0 IOpClX= 0 NMat=1 NMatS=1 NMatT=0.
 ***** Axes restored to original set *****
 -------------------------------------------------------------------
 Center     Atomic                   Forces (Hartrees/Bohr)
 Number     Number              X              Y              Z
 -------------------------------------------------------------------
      1        6           0.000125069   -0.000389722    0.000000000
      2        7           0.000490247   -0.000109984    0.000000000
      3        7          -0.000751506    0.000015037    0.000000000
      4        7           0.000630012   -0.000451188    0.000000000
      5        7          -0.000426116    0.000910015    0.000000000
      6        1          -0.000040327    0.000041248    0.000000000
      7        1          -0.000027379   -0.000015405    0.000000000
 -------------------------------------------------------------------
 Cartesian Forces:  Max     0.000910015 RMS     0.000351829
 -----------------------------------------------------------------------------------------------
                       Internal Coordinate Forces (Hartree/Bohr or radian)
  Cent   Atom   N1       Length/X         N2         Alpha/Y        N3         Beta/Z          J
 -----------------------------------------------------------------------------------------------
         X 
         X        1   0.000000(     1)
      1  C        1   0.000046(     2)      2   0.000000(     9)
      2  N        1   0.000355(     3)      2   0.000000(    10)      3  -0.001048(    16)     0
      3  N        1   0.000353(     4)      2   0.000000(    11)      3   0.001923(    17)     0
      4  N        1  -0.000603(     5)      2   0.000000(    12)      3  -0.001066(    18)     0
      5  N        1   0.000941(     6)      2   0.000000(    13)      3  -0.000524(    19)     0
      6  H        3  -0.000026(     7)      4   0.000105(    14)      5   0.000000(    20)     0
      7  H        4  -0.000001(     8)      5  -0.000060(    15)      6   0.000000(    21)     0
 -----------------------------------------------------------------------------------------------
 Internal  Forces:  Max     0.001923121 RMS     0.000606545

 GradGradGradGradGradGradGradGradGradGradGradGradGradGradGradGradGradGrad
 Berny optimization.
 Search for a local minimum.
 Step number   4 out of a maximum of   22
 All quantities printed in internal units (Hartrees-Bohrs-Radians)
 Update second derivatives using D2CorN and points    2    1    3    4
 DE= -5.31D-06 DEPred=-8.22D-06 R= 6.46D-01
 TightC=F SS=  1.41D+00  RLast= 6.49D-02 DXNew= 2.5227D-01 1.9480D-01
 Trust test= 6.46D-01 RLast= 6.49D-02 DXMaxT set to 1.95D-01
 The second derivative matrix:
                          rn1       rn2       rn3       rn4       rch
           rn1          0.58334
           rn2         -0.02733   0.59793
           rn3          0.03342   0.01254   0.50091
           rn4          0.03136   0.02306   0.12172   0.57572
           rch          0.00015   0.00014  -0.00056   0.00043   0.35428
           rnh          0.00006   0.00005  -0.00016   0.00010  -0.00001
           an1          0.07849  -0.65716   0.04037  -0.09732  -0.00027
           an2          0.61476  -0.28077  -0.51918   0.07572   0.00068
           an3         -0.01595   0.93362  -0.03753  -0.48751  -0.00066
           an4          0.04984  -0.02153   0.54994  -0.09522  -0.00020
           ach          0.04243  -0.00014   0.00017   0.04818   0.00013
           anh         -0.09872   0.05169   0.00028  -0.00013  -0.00007
                          rnh       an1       an2       an3       an4
           rnh          0.44869
           an1         -0.00008   4.75861
           an2          0.00016  -2.88887   6.02916
           an3         -0.00019  -0.03447  -2.98863   3.93199
           an4         -0.00006  -0.13246  -0.05906  -0.82930   1.83160
           ach          0.00003  -0.11802  -0.00044   0.00050   0.06733
           anh         -0.00002   0.05210  -0.09387   0.00017   0.00000
                          ach       anh
           ach          0.31985
           anh          0.00003   0.32003
 ITU=  1  0 -1  0
     Eigenvalues ---    0.00007   0.13154   0.25710   0.32544   0.35428
     Eigenvalues ---    0.39490   0.44869   0.65941   1.06037   2.31452
     Eigenvalues ---    4.80510   9.50067
 RFO step:  Lambda=-2.09013543D-06 EMin= 6.67828646D-05
 Quartic linear search produced a step of -0.21876.
 Variable       Old X    -DE/DX   Delta X   Delta X   Delta X     New X
                                 (Linear)    (Quad)   (Total)
   rn1        2.68464   0.00035  -0.00552   0.02764   0.02212   2.70676
   rn2        2.89157   0.00035  -0.00532   0.02575   0.02043   2.91199
   rn3        2.19255  -0.00060  -0.00088  -0.00162  -0.00250   2.19006
   rn4        1.49113   0.00094   0.00740  -0.02839  -0.02099   1.47013
   rch        2.04593  -0.00003   0.00058  -0.00066  -0.00008   2.04585
   rnh        1.92027   0.00000   0.00015  -0.00016  -0.00001   1.92026
   an1        1.14357  -0.00105   0.00254  -0.01143  -0.00889   1.13468
   an2        2.10929   0.00192   0.00457  -0.02139  -0.01683   2.09246
   an3        3.08479  -0.00107   0.00658  -0.02973  -0.02315   3.06164
   an4        4.63205  -0.00052   0.00405  -0.01667  -0.01262   4.61943
   ach        2.17694   0.00010  -0.00038   0.00028  -0.00010   2.17684
   anh        2.10069  -0.00006  -0.00011   0.00000  -0.00011   2.10058
         Item               Value     Threshold  Converged?
 Maximum Force            0.001923     0.000450     NO 
 RMS     Force            0.000802     0.000300     NO 
 Maximum Displacement     0.023153     0.001800     NO 
 RMS     Displacement     0.014175     0.001200     NO 
 Predicted change in Energy=-3.557422D-06
 GradGradGradGradGradGradGradGradGradGradGradGradGradGradGradGradGradGrad

 ---------------------------------------------------------------------------------------------------
                            Z-MATRIX (ANGSTROMS AND DEGREES)
   CD    Cent   Atom    N1       Length/X        N2       Alpha/Y        N3        Beta/Z          J
 ---------------------------------------------------------------------------------------------------
      1         X 
      2         X        1   1.000000(     1)
      3      1  C        1   1.000000(     2)      2   90.000(     9)
      4      2  N        1   1.432354(     3)      2   90.000(    10)      3   65.012(    16)      0
      5      3  N        1   1.540960(     4)      2   90.000(    11)      3  119.889(    17)      0
      6      4  N        1   1.158927(     5)      2   90.000(    12)      3  175.419(    18)      0
      7      5  N        1   0.777960(     6)      2   90.000(    13)      3  264.674(    19)      0
      8      6  H        3   1.082616(     7)      4  124.724(    14)      5  180.000(    20)      0
      9      7  H        4   1.016160(     8)      5  120.354(    15)      6  180.000(    21)      0
 ---------------------------------------------------------------------------------------------------
                         Z-Matrix orientation:                         
 ---------------------------------------------------------------------
 Center     Atomic      Atomic             Coordinates (Angstroms)
 Number     Number       Type             X           Y           Z
 ---------------------------------------------------------------------
      1         -1           0        0.000000    0.000000    0.000000
      2         -1           0        0.000000    0.000000    1.000000
      3          6           0        1.000000    0.000000    0.000000
      4          7           0        0.605061   -1.298284    0.000000
      5          7           0       -0.767894   -1.336001    0.000000
      6          7           0       -1.155225   -0.092560    0.000000
      7          7           0       -0.072215    0.774601    0.000000
      8          1           0        2.030767    0.331025    0.000000
      9          1           0        1.142459   -2.160712    0.000000
 ---------------------------------------------------------------------
                    Distance matrix (angstroms):
                    1          2          3          4          5
     1  X    0.000000
     2  X    1.000000   0.000000
     3  C    1.000000   1.414214   0.000000
     4  N    1.432354   1.746894   1.357025   0.000000
     5  N    1.540960   1.836997   2.215930   1.373472   0.000000
     6  N    1.158927   1.530723   2.157212   2.133629   1.302371
     7  N    0.777960   1.266974   1.322745   2.180723   2.222298
     8  H    2.057569   2.287704   1.082616   2.165014   3.257526
     9  H    2.444154   2.640812   2.165403   1.016160   2.080768
                    6          7          8          9
     6  N    0.000000
     7  N    1.387400   0.000000
     8  H    3.214027   2.149254   0.000000
     9  H    3.091376   3.176712   2.645344   0.000000
 Stoichiometry    CH2N4
 Framework group  CS[SG(CH2N4)]
 Deg. of freedom    11
 Full point group                 CS      NOp   2
 Largest Abelian subgroup         CS      NOp   2
 Largest concise Abelian subgroup C1      NOp   1
                         Standard orientation:                         
 ---------------------------------------------------------------------
 Center     Atomic      Atomic             Coordinates (Angstroms)
 Number     Number       Type             X           Y           Z
 ---------------------------------------------------------------------
      1          6           0        1.076418    0.240566    0.000000
      2          7           0        0.000000    1.066908    0.000000
      3          7           0       -1.138742    0.298994    0.000000
      4          7           0       -0.730547   -0.937755    0.000000
      5          7           0        0.654801   -1.013186    0.000000
      6          1           0        2.107420    0.570857    0.000000
      7          1           0       -0.064506    2.081018    0.000000
 ---------------------------------------------------------------------
 Rotational constants (GHZ):     10.3071369     10.0878371      5.0981540
 Standard basis: TZVP (5D, 7F)
 There are    85 symmetry adapted cartesian basis functions of A'  symmetry.
 There are    27 symmetry adapted cartesian basis functions of A"  symmetry.
 There are    80 symmetry adapted basis functions of A'  symmetry.
 There are    27 symmetry adapted basis functions of A"  symmetry.
   107 basis functions,   191 primitive gaussians,   112 cartesian basis functions
    18 alpha electrons       18 beta electrons
       nuclear repulsion energy       164.8155050686 Hartrees.
 NAtoms=    7 NActive=    7 NUniq=    7 SFac= 1.00D+00 NAtFMM=   60 NAOKFM=F Big=F
 Integral buffers will be    131072 words long.
 Raffenetti 2 integral format.
 Two-electron integral symmetry is turned on.
 One-electron integrals computed using PRISM.
 NBasis=   107 RedAO= T EigKep=  9.78D-04  NBF=    80    27
 NBsUse=   107 1.00D-06 EigRej= -1.00D+00 NBFU=    80    27
 Initial guess from the checkpoint file:  "/tmp/rdj3/g09-9462/Gau-13004.chk"
 B after Tr=     0.000000    0.000000    0.000000
         Rot=    1.000000    0.000000    0.000000    0.000202 Ang=   0.02 deg.
 Initial guess orbital symmetries:
       Occupied  (A') (A') (A') (A') (A') (A') (A') (A') (A') (A')
                 (A') (A') (A") (A') (A") (A") (A') (A')
       Virtual   (A') (A') (A') (A') (A') (A') (A') (A') (A') (A')
                 (A') (A') (A') (A') (A') (A') (A') (A') (A') (A')
                 (A') (A') (A') (A') (A') (A') (A') (A') (A') (A')
                 (A') (A') (A') (A') (A') (A') (A') (A') (A') (A')
                 (A') (A') (A') (A') (A') (A') (A') (A') (A') (A')
                 (A') (A') (A') (A') (A') (A') (A') (A') (A') (A')
                 (A') (A') (A') (A') (A') (A") (A") (A") (A") (A")
                 (A") (A") (A") (A") (A") (A") (A") (A") (A") (A")
                 (A") (A") (A") (A") (A") (A") (A") (A") (A")
 ExpMin= 9.52D-02 ExpMax= 1.97D+04 ExpMxC= 6.73D+02 IAcc=2 IRadAn=         4 AccDes= 0.00D+00
 Harris functional with IExCor=  402 and IRadAn=       4 diagonalized for initial guess.
 HarFok:  IExCor=  402 AccDes= 0.00D+00 IRadAn=         4 IDoV= 1 UseB2=F ITyADJ=14
 ICtDFT=  3500011 ScaDFX=  1.000000  1.000000  1.000000  1.000000
 FoFCou: FMM=F IPFlag=           0 FMFlag=      100000 FMFlg1=           0
         NFxFlg=           0 DoJE=T BraDBF=F KetDBF=T FulRan=T
         wScrn=  0.000000 ICntrl=     500 IOpCl=  0 I1Cent=   200000004 NGrid=           0
         NMat0=    1 NMatS0=      1 NMatT0=    0 NMatD0=    1 NMtDS0=    0 NMtDT0=    0
 Petite list used in FoFCou.
 Keep J ints in memory in symmetry-blocked form, NReq=25647217.
 Requested convergence on RMS density matrix=1.00D-08 within 128 cycles.
 Requested convergence on MAX density matrix=1.00D-06.
 Requested convergence on             energy=1.00D-06.
 No special actions if energy rises.
 Integral accuracy reduced to 1.0D-05 until final iterations.
 Initial convergence to 1.0D-05 achieved.  Increase integral accuracy.
 SCF Done:  E(RB-LYP) =  -258.288497870     A.U. after   10 cycles
            NFock= 10  Conv=0.36D-08     -V/T= 2.0032
 Calling FoFJK, ICntrl=      2527 FMM=F ISym2X=1 I1Cent= 0 IOpClX= 0 NMat=1 NMatS=1 NMatT=0.
 ***** Axes restored to original set *****
 -------------------------------------------------------------------
 Center     Atomic                   Forces (Hartrees/Bohr)
 Number     Number              X              Y              Z
 -------------------------------------------------------------------
      1        6           0.000739986   -0.000300645    0.000000000
      2        7           0.000734498    0.000122718    0.000000000
      3        7          -0.000446477    0.000602715    0.000000000
      4        7          -0.000906085   -0.000151654    0.000000000
      5        7          -0.000231528   -0.000269712    0.000000000
      6        1           0.000044808   -0.000040870    0.000000000
      7        1           0.000064798    0.000037448    0.000000000
 -------------------------------------------------------------------
 Cartesian Forces:  Max     0.000906085 RMS     0.000360868
 -----------------------------------------------------------------------------------------------
                       Internal Coordinate Forces (Hartree/Bohr or radian)
  Cent   Atom   N1       Length/X         N2         Alpha/Y        N3         Beta/Z          J
 -----------------------------------------------------------------------------------------------
         X 
         X        1   0.000000(     1)
      1  C        1   0.000825(     2)      2   0.000000(     9)
      2  N        1   0.000114(     3)      2   0.000000(    10)      3  -0.002119(    16)     0
      3  N        1  -0.000253(     4)      2   0.000000(    11)      3   0.001918(    17)     0
      4  N        1   0.000915(     5)      2   0.000000(    12)      3  -0.000173(    18)     0
      5  N        1  -0.000247(     6)      2   0.000000(    13)      3  -0.000376(    19)     0
      6  H        3   0.000030(     7)      4  -0.000108(    14)      5   0.000000(    20)     0
      7  H        4   0.000002(     8)      5   0.000144(    15)      6   0.000000(    21)     0
 -----------------------------------------------------------------------------------------------
 Internal  Forces:  Max     0.002119095 RMS     0.000691046

 GradGradGradGradGradGradGradGradGradGradGradGradGradGradGradGradGradGrad
 Berny optimization.
 Search for a local minimum.
 Step number   5 out of a maximum of   22
 All quantities printed in internal units (Hartrees-Bohrs-Radians)
 Update second derivatives using D2CorN and points    2    1    3    5    4

 DE=  5.08D-07 DEPred=-3.56D-06 R=-1.43D-01
 Trust test=-1.43D-01 RLast= 4.91D-02 DXMaxT set to 9.74D-02
 The second derivative matrix:
                          rn1       rn2       rn3       rn4       rch
           rn1          0.58286
           rn2         -0.02627   0.60033
           rn3          0.02788   0.00789   0.50481
           rn4          0.03383   0.02330   0.12395   0.57450
           rch          0.00008   0.00008  -0.00108   0.00103   0.35423
           rnh          0.00008   0.00007  -0.00033   0.00025  -0.00001
           an1          0.08795  -0.64890   0.04167  -0.10731  -0.00044
           an2          0.60728  -0.28950  -0.51588   0.08335   0.00149
           an3         -0.01589   0.93254  -0.03143  -0.49005  -0.00108
           an4          0.05159  -0.02074   0.55217  -0.09730  -0.00027
           ach          0.04305   0.00033   0.00029   0.04745   0.00025
           anh         -0.09952   0.05101   0.00066   0.00035  -0.00013
                          rnh       an1       an2       an3       an4
           rnh          0.44869
           an1         -0.00013   4.75094
           an2          0.00035  -2.89267   6.04127
           an3         -0.00034  -0.04460  -2.97965   3.93119
           an4         -0.00009  -0.13872  -0.05482  -0.83168   1.82955
           ach          0.00006  -0.11816  -0.00135   0.00032   0.06719
           anh         -0.00004   0.05238  -0.09337   0.00101   0.00036
                          ach       anh
           ach          0.31969
           anh          0.00006   0.32006
 ITU= -1  1  0 -1  0
 Energy rises -- skip Quadratic search.
 Quartic linear search produced a step of -0.59346.
 Variable       Old X    -DE/DX   Delta X   Delta X   Delta X     New X
                                 (Linear)    (Quad)   (Total)
   rn1        2.70676   0.00011  -0.01313   0.00000  -0.01313   2.69363
   rn2        2.91199  -0.00025  -0.01212   0.00000  -0.01212   2.89987
   rn3        2.19006   0.00092   0.00148   0.00000   0.00148   2.19154
   rn4        1.47013  -0.00025   0.01246   0.00000   0.01246   1.48259
   rch        2.04585   0.00003   0.00005   0.00000   0.00005   2.04590
   rnh        1.92026   0.00000   0.00001   0.00000   0.00001   1.92027
   an1        1.13468  -0.00212   0.00528   0.00000   0.00528   1.13995
   an2        2.09246   0.00192   0.00999   0.00000   0.00999   2.10244
   an3        3.06164  -0.00017   0.01374   0.00000   0.01374   3.07538
   an4        4.61943  -0.00038   0.00749   0.00000   0.00749   4.62692
   ach        2.17684  -0.00011   0.00006   0.00000   0.00006   2.17690
   anh        2.10058   0.00014   0.00007   0.00000   0.00007   2.10065
         Item               Value     Threshold  Converged?
 Maximum Force            0.002119     0.000450     NO 
 RMS     Force            0.000883     0.000300     NO 
 Maximum Displacement     0.013740     0.001800     NO 
 RMS     Displacement     0.008412     0.001200     NO 
 Predicted change in Energy=-4.611148D-07
 GradGradGradGradGradGradGradGradGradGradGradGradGradGradGradGradGradGrad

 ---------------------------------------------------------------------------------------------------
                            Z-MATRIX (ANGSTROMS AND DEGREES)
   CD    Cent   Atom    N1       Length/X        N2       Alpha/Y        N3        Beta/Z          J
 ---------------------------------------------------------------------------------------------------
      1         X 
      2         X        1   1.000000(     1)
      3      1  C        1   1.000000(     2)      2   90.000(     9)
      4      2  N        1   1.425407(     3)      2   90.000(    10)      3   65.315(    16)      0
      5      3  N        1   1.534546(     4)      2   90.000(    11)      3  120.461(    17)      0
      6      4  N        1   1.159712(     5)      2   90.000(    12)      3  176.206(    18)      0
      7      5  N        1   0.784554(     6)      2   90.000(    13)      3  265.103(    19)      0
      8      6  H        3   1.082641(     7)      4  124.727(    14)      5  180.000(    20)      0
      9      7  H        4   1.016163(     8)      5  120.358(    15)      6  180.000(    21)      0
 ---------------------------------------------------------------------------------------------------
                         Z-Matrix orientation:                         
 ---------------------------------------------------------------------
 Center     Atomic      Atomic             Coordinates (Angstroms)
 Number     Number       Type             X           Y           Z
 ---------------------------------------------------------------------
      1         -1           0        0.000000    0.000000    0.000000
      2         -1           0        0.000000    0.000000    1.000000
      3          6           0        1.000000    0.000000    0.000000
      4          7           0        0.595302   -1.295145    0.000000
      5          7           0       -0.777945   -1.322737    0.000000
      6          7           0       -1.157170   -0.076731    0.000000
      7          7           0       -0.066973    0.781690    0.000000
      8          1           0        2.033242    0.323299    0.000000
      9          1           0        1.126385   -2.161481    0.000000
 ---------------------------------------------------------------------
                    Distance matrix (angstroms):
                    1          2          3          4          5
     1  X    0.000000
[...]
   XY=              1.8823   XZ=              0.0000   YZ=              0.0000
 Traceless Quadrupole moment (field-independent basis, Debye-Ang):
   XX=             -1.1357   YY=              1.4043   ZZ=             -0.2686
   XY=              1.8823   XZ=              0.0000   YZ=              0.0000
 Octapole moment (field-independent basis, Debye-Ang**2):
  XXX=             12.0659  YYY=             22.9915  ZZZ=              0.0000  XYY=             -0.6548
  XXY=              4.8179  XXZ=              0.0000  XZZ=             -0.6607  YZZ=              0.6115
  YYZ=              0.0000  XYZ=              0.0000
 Hexadecapole moment (field-independent basis, Debye-Ang**3):
 XXXX=           -152.5888 YYYY=           -129.2728 ZZZZ=            -27.6468 XXXY=              7.2603
 XXXZ=              0.0000 YYYX=             -0.4734 YYYZ=              0.0000 ZZZX=              0.0000
 ZZZY=              0.0000 XXYY=            -57.1791 XXZZ=            -32.6530 YYZZ=            -30.8222
 XXYZ=              0.0000 YYXZ=              0.0000 ZZXY=             -0.0626
 N-N= 1.647885445123D+02 E-N=-9.330833317044D+02  KE= 2.574707218009D+02
 Symmetry A'   KE= 2.478303989808D+02
 Symmetry A"   KE= 9.640322820107D+00
  Exact polarizability:  44.153   0.856  43.958   0.000   0.000  22.582
 Approx polarizability:  90.130   0.188  97.233   0.000   0.000  37.916
 Calling FoFJK, ICntrl=    100527 FMM=F ISym2X=1 I1Cent= 0 IOpClX= 0 NMat=1 NMatS=1 NMatT=0.
 Full mass-weighted force constant matrix:
 Low frequencies ---  -13.9575   -4.8769   -0.0001    0.0011    0.0011   12.4652
 Low frequencies ---  537.1811  663.8308  699.8394
 Diagonal vibrational polarizability:
        1.3313618       1.3148444       8.8100033
 Harmonic frequencies (cm**-1), IR intensities (KM/Mole), Raman scattering
 activities (A**4/AMU), depolarization ratios for plane and unpolarized
 incident light, reduced masses (AMU), force constants (mDyne/A),
 and normal coordinates:
                      1                      2                      3
                     A"                     A"                     A"
 Frequencies --    537.1803               663.8307               699.8394
 Red. masses --      1.9994                 1.8671                 7.5624
 Frc consts  --      0.3399                 0.4848                 2.1823
 IR Inten    --     68.8758                12.4382                 8.3824
  Atom  AN      X      Y      Z        X      Y      Z        X      Y      Z
     1   6     0.00   0.00  -0.11     0.00   0.00   0.17     0.00   0.00  -0.11
     2   7     0.00   0.00   0.23     0.00   0.00  -0.08     0.00   0.00  -0.10
     3   7     0.00   0.00  -0.10     0.00   0.00   0.09     0.00   0.00   0.40
     4   7     0.00   0.00   0.01     0.00   0.00   0.04     0.00   0.00  -0.47
     5   7     0.00   0.00   0.03     0.00   0.00  -0.16     0.00   0.00   0.32
     6   1     0.00   0.00  -0.19     0.00   0.00   0.49     0.00   0.00  -0.02
     7   1     0.00   0.00  -0.94     0.00   0.00  -0.83     0.00   0.00  -0.70
                      4                      5                      6
                     A"                     A'                     A'
 Frequencies --    802.0280               862.1151               909.8487
 Red. masses --      1.3121                 8.3016                 5.5955
 Frc consts  --      0.4973                 3.6353                 2.7292
 IR Inten    --     27.8830                10.0522                15.8034
  Atom  AN      X      Y      Z        X      Y      Z        X      Y      Z
     1   6     0.00   0.00   0.16    -0.05   0.11   0.00    -0.02   0.03   0.00
     2   7     0.00   0.00  -0.02     0.13   0.09   0.00     0.27   0.28   0.00
     3   7     0.00   0.00   0.00     0.08  -0.11   0.00    -0.30  -0.30   0.00
     4   7     0.00   0.00  -0.02     0.38  -0.18   0.00    -0.09   0.01   0.00
     5   7     0.00   0.00  -0.02    -0.56   0.14   0.00     0.10  -0.01   0.00
     6   1     0.00   0.00  -0.98     0.18  -0.63   0.00     0.14  -0.45   0.00
     7   1     0.00   0.00  -0.12    -0.05   0.08   0.00     0.58   0.31   0.00
                      7                      8                      9
                     A'                     A'                     A'
 Frequencies --    966.8789              1006.7648              1100.2812
 Red. masses --      6.0445                 3.5302                 2.0782
 Frc consts  --      3.3293                 2.1082                 1.4823
 IR Inten    --      1.9138                18.9645                19.0651
  Atom  AN      X      Y      Z        X      Y      Z        X      Y      Z
     1   6     0.36   0.11   0.00    -0.07  -0.03   0.00     0.11  -0.13   0.00
     2   7     0.08  -0.19   0.00    -0.05   0.25   0.00    -0.13   0.02   0.00
     3   7     0.00  -0.12   0.00     0.28  -0.07   0.00    -0.11   0.01   0.00
     4   7    -0.31  -0.07   0.00    -0.16  -0.09   0.00     0.11   0.13   0.00
     5   7    -0.08   0.32   0.00     0.04  -0.05   0.00     0.04   0.01   0.00
     6   1     0.47  -0.17   0.00     0.05  -0.45   0.00     0.33  -0.79   0.00
     7   1    -0.53  -0.24   0.00    -0.74   0.22   0.00    -0.43   0.01   0.00
                     10                     11                     12
                     A'                     A'                     A'
 Frequencies --   1184.8711              1206.0132              1378.1058
 Red. masses --      4.4619                 2.8836                 2.8503
 Frc consts  --      3.6907                 2.4711                 3.1894
 IR Inten    --     16.1181                 0.6905                 8.1199
  Atom  AN      X      Y      Z        X      Y      Z        X      Y      Z
     1   6     0.03   0.00   0.00     0.23   0.06   0.00    -0.15   0.25   0.00
     2   7    -0.06   0.06   0.00     0.02   0.12   0.00     0.16  -0.13   0.00
     3   7    -0.10   0.28   0.00    -0.12   0.07   0.00    -0.05   0.08   0.00
     4   7    -0.02  -0.39   0.00     0.02  -0.08   0.00     0.00   0.01   0.00
     5   7     0.11   0.08   0.00    -0.07  -0.22   0.00     0.07  -0.12   0.00
     6   1     0.23  -0.60   0.00     0.07   0.67   0.00     0.09  -0.59   0.00
     7   1     0.56   0.11   0.00    -0.62   0.10   0.00    -0.67  -0.21   0.00
                     13                     14                     15
                     A'                     A'                     A'
 Frequencies --   1430.7131              3203.1358              3527.3114
 Red. masses --      2.7672                 1.0989                 1.0830
 Frc consts  --      3.3374                 6.6432                 7.9393
 IR Inten    --     15.4554                 1.1694                66.1231
  Atom  AN      X      Y      Z        X      Y      Z        X      Y      Z
     1   6     0.11   0.25   0.00     0.09   0.03   0.00     0.00   0.00   0.00
     2   7    -0.17  -0.01   0.00     0.00   0.00   0.00    -0.01   0.08   0.00
     3   7     0.08  -0.06   0.00     0.00   0.00   0.00     0.00   0.00   0.00
     4   7    -0.05   0.06   0.00     0.00   0.00   0.00     0.00   0.00   0.00
     5   7    -0.04  -0.17   0.00     0.00   0.00   0.00     0.00   0.00   0.00
     6   1     0.34  -0.36   0.00    -0.95  -0.30   0.00    -0.02   0.00   0.00
     7   1     0.78   0.05   0.00     0.01   0.02   0.00     0.07  -0.99   0.00

 -------------------
 - Thermochemistry -
 -------------------
 Temperature   298.150 Kelvin.  Pressure   1.00000 Atm.
 Atom     1 has atomic number  6 and mass  12.00000
 Atom     2 has atomic number  7 and mass  14.00307
 Atom     3 has atomic number  7 and mass  14.00307
 Atom     4 has atomic number  7 and mass  14.00307
 Atom     5 has atomic number  7 and mass  14.00307
 Atom     6 has atomic number  1 and mass   1.00783
 Atom     7 has atomic number  1 and mass   1.00783
 Molecular mass:    70.02795 amu.
 Principal axes and moments of inertia in atomic units:
                           1         2         3
     Eigenvalues --   175.26679 178.85274 354.11953
           X            0.95030   0.31133   0.00000
           Y           -0.31133   0.95030   0.00000
           Z            0.00000   0.00000   1.00000
 This molecule is an asymmetric top.
 Rotational symmetry number  1.
 Rotational temperatures (Kelvin)      0.49418     0.48427     0.24459
 Rotational constants (GHZ):          10.29711    10.09065     5.09642
 Zero-point vibrational energy     116509.8 (Joules/Mol)
                                   27.84651 (Kcal/Mol)
 Warning -- explicit consideration of   1 degrees of freedom as
           vibrations may cause significant error
 Vibrational temperatures:    772.88   955.10  1006.91  1153.94  1240.39
          (Kelvin)           1309.07  1391.12  1448.51  1583.06  1704.76
                             1735.18  1982.78  2058.47  4608.59  5075.01
 
 Zero-point correction=                           0.044376 (Hartree/Particle)
 Thermal correction to Energy=                    0.047991
 Thermal correction to Enthalpy=                  0.048935
 Thermal correction to Gibbs Free Energy=         0.018199
 Sum of electronic and zero-point Energies=           -258.244124
 Sum of electronic and thermal Energies=              -258.240509
 Sum of electronic and thermal Enthalpies=            -258.239565
 Sum of electronic and thermal Free Energies=         -258.270301
 
                     E (Thermal)             CV                S
                      KCal/Mol        Cal/Mol-Kelvin    Cal/Mol-Kelvin
 Total                   30.115             12.237             64.690
 Electronic               0.000              0.000              0.000
 Translational            0.889              2.981             38.656
 Rotational               0.889              2.981             23.922
 Vibrational             28.337              6.275              2.112
 Vibration     1          0.892              1.168              0.571
                       Q            Log10(Q)             Ln(Q)
 Total Bot       0.425518D-08         -8.371082        -19.275129
 Total V=0       0.109781D+13         12.040527         27.724338
 Vib (Bot)       0.489820D-20        -20.309964        -46.765419
 Vib (Bot)    1  0.295724D+00         -0.529113         -1.218329
 Vib (V=0)       0.126371D+01          0.101646          0.234048
 Vib (V=0)    1  0.108091D+01          0.033788          0.077800
 Electronic      0.100000D+01          0.000000          0.000000
 Translational   0.230336D+08          7.362362         16.952466
 Rotational      0.377154D+05          4.576519         10.537824
 ***** Axes restored to original set *****
 -------------------------------------------------------------------
 Center     Atomic                   Forces (Hartrees/Bohr)
 Number     Number              X              Y              Z
 -------------------------------------------------------------------
      1        6          -0.000080741    0.000072331    0.000000000
      2        7           0.000100035   -0.000051878    0.000000000
      3        7          -0.000056578   -0.000091913    0.000000000
      4        7          -0.000021506    0.000067056    0.000000000
      5        7           0.000065027   -0.000000803    0.000000000
      6        1          -0.000003056    0.000007000    0.000000000
      7        1          -0.000003181   -0.000001793    0.000000000
 -------------------------------------------------------------------
 Cartesian Forces:  Max     0.000100035 RMS     0.000046475
 -----------------------------------------------------------------------------------------------
                       Internal Coordinate Forces (Hartree/Bohr or radian)
  Cent   Atom   N1       Length/X         N2         Alpha/Y        N3         Beta/Z          J
 -----------------------------------------------------------------------------------------------
         X 
         X        1   0.000000(     1)
      1  C        1  -0.000090(     2)      2   0.000000(     9)
      2  N        1   0.000096(     3)      2   0.000000(    10)      3  -0.000186(    16)     0
      3  N        1   0.000106(     4)      2   0.000000(    11)      3   0.000013(    17)     0
      4  N        1   0.000016(     5)      2   0.000000(    12)      3   0.000150(    18)     0
      5  N        1  -0.000007(     6)      2   0.000000(    13)      3   0.000095(    19)     0
      6  H        3  -0.000001(     7)      4   0.000016(    14)      5   0.000000(    20)     0
      7  H        4   0.000000(     8)      5  -0.000007(    15)      6   0.000000(    21)     0
 -----------------------------------------------------------------------------------------------
 Internal  Forces:  Max     0.000185543 RMS     0.000067340

 GradGradGradGradGradGradGradGradGradGradGradGradGradGradGradGradGradGrad
 Berny optimization.
 Search for a local minimum.
 Step number   1 out of a maximum of    2
 All quantities printed in internal units (Hartrees-Bohrs-Radians)
 Second derivative matrix not updated -- analytic derivatives used.
 The second derivative matrix:
                          rn1       rn2       rn3       rn4       rch
           rn1          0.53154
           rn2         -0.06648   0.50968
           rn3          0.05254  -0.04628   0.44501
           rn4          0.09801   0.07740  -0.01430   0.49036
           rch         -0.00165  -0.00210   0.00044  -0.00231   0.35990
           rnh          0.01123  -0.00675  -0.00024  -0.00035   0.00045
           an1          0.12750  -0.27526  -0.22079   0.13511   0.01517
           an2          0.16783  -0.10977  -0.28683  -0.15752   0.00360
           an3          0.22766   0.41042   0.23673  -0.18741  -0.00128
           an4         -0.09845   0.12866   0.17955  -0.15080  -0.01336
           ach          0.03526   0.01179  -0.01273   0.02583   0.00225
           anh         -0.04952   0.01705   0.02448  -0.01988  -0.00127
                          rnh       an1       an2       an3       an4
           rnh          0.44171
           an1         -0.01413   2.53211
           an2          0.01411  -0.91513   2.73884
           an3          0.00206  -0.45487  -1.30605   1.93323
           an4         -0.00335  -0.21925  -0.17258  -0.08373   0.79587
           ach          0.00060   0.00083  -0.02263  -0.01004   0.06935
           anh         -0.00092  -0.02648  -0.01889   0.01734  -0.00414
                          ach       anh
           ach          0.20330
           anh          0.00040   0.19893
 ITU=  0
     Eigenvalues ---    0.00000   0.14786   0.19737   0.25834   0.35984
     Eigenvalues ---    0.44096   0.55783   0.58297   0.67107   1.10215
     Eigenvalues ---    2.92904   3.93304
 Quadratic step=4.270D+00 exceeds max=3.000D-01 adjusted using Lamda=-6.235D-05.
 Angle between NR and scaled steps=   0.05 degrees.
 Angle between quadratic step and forces=  86.05 degrees.
 Linear search not attempted -- first point.
 Variable       Old X    -DE/DX   Delta X   Delta X   Delta X     New X
                                 (Linear)    (Quad)   (Total)
   rn1        2.70298   0.00010   0.00000   0.12821   0.12821   2.83119
   rn2        2.90893   0.00011   0.00000   0.12223   0.12223   3.03115
   rn3        2.19282   0.00002   0.00000   0.01061   0.01061   2.20343
   rn4        1.47322  -0.00001   0.00000  -0.14056  -0.14056   1.33266
   rch        2.04588   0.00000   0.00000   0.00001   0.00001   2.04589
   rnh        1.92024   0.00000   0.00000  -0.00001  -0.00001   1.92023
   an1        1.13570  -0.00019   0.00000  -0.05274  -0.05274   1.08296
   an2        2.09572   0.00001   0.00000  -0.09898  -0.09898   1.99674
   an3        3.06500   0.00015   0.00000  -0.13878  -0.13878   2.92623
   an4        4.62014   0.00010   0.00000  -0.08339  -0.08339   4.53675
   ach        2.17713   0.00002   0.00000   0.00006   0.00006   2.17720
   anh        2.10079  -0.00001   0.00000   0.00000   0.00000   2.10079
         Item               Value     Threshold  Converged?
 Maximum Force            0.000186     0.000450     YES
 RMS     Force            0.000085     0.000300     YES
 Maximum Displacement     0.140557     0.001800     NO 
 RMS     Displacement     0.086621     0.001200     NO 
 Predicted change in Energy=-5.855370D-06
 GradGradGradGradGradGradGradGradGradGradGradGradGradGradGradGradGradGrad

 1\1\GINC-N755\Freq\RBLYP\TZVP\C1H2N4\RDJ3\16-Dec-2013\1\\#N Geom=AllCh
 eck Guess=TCheck SCRF=Check GenChk RBLYP/TZVP Freq\\1H-tetrazole CH2N4
  casno=288948 state=1 config=1 method=13 basis=32\\0,1\X\X,1,1.\C,1,1.
 ,2,90.\N,1,rn1,2,90.,3,an1,0\N,1,rn2,2,90.,3,an2,0\N,1,rn3,2,90.,3,an3
 ,0\N,1,rn4,2,90.,3,an4,0\H,3,rch,4,ach,5,180.,0\H,4,rnh,5,anh,6,180.,0
 \\rn1=1.4303559\rn2=1.53933731\rn3=1.1603912\rn4=0.77959471\rch=1.0826
 3115\rnh=1.01614739\an1=65.07078981\an2=120.07578891\an3=175.61166519\
 an4=264.71459707\ach=124.74057961\anh=120.36650813\\Version=EM64L-G09R
 evD.01\State=1-A'\HF=-258.2885005\RMSD=5.891e-09\RMSF=4.647e-05\ZeroPo
 int=0.0443762\Thermal=0.0479912\Dipole=1.8855477,-0.9582789,0.\DipoleD
 eriv=0.1679864,-0.0135487,0.,-0.1451879,0.4283047,0.,0.,0.,0.0526489,-
 0.3210778,0.2909536,0.,0.2217724,-0.2490183,0.,0.,0.,-0.1127878,0.2779
 065,-0.2812518,0.,-0.2923234,-0.2763411,0.,0.,0.,-0.1010675,-0.0218307
 ,0.1555569,0.,0.2507326,0.0738136,0.,0.,0.,-0.1606551,-0.3373028,-0.12
 72201,0.,-0.0173912,-0.3220659,0.,0.,0.,-0.1863283,0.0457164,-0.004402
 7,0.,-0.0050208,0.1148643,0.,0.,0.,0.1768994,0.188602,-0.0200871,0.,-0
 .0125816,0.2304428,0.,0.,0.,0.3312904\Polar=44.8967519,-0.1860563,43.2
 137149,0.,0.,22.5815133\PG=CS [SG(C1H2N4)]\NImag=0\\0.85904226,0.07893
 803,0.55312205,0.,0.,0.12024091,-0.12939314,-0.03469489,0.,0.52117983,
 -0.06825377,-0.26370486,0.,-0.17767404,0.85826944,0.,0.,-0.04979291,0.
 ,0.,0.07582873,-0.06878107,-0.09535985,0.,-0.14226776,-0.04675512,0.,0
 .33770693,-0.00762348,-0.03814775,0.,-0.01949895,-0.10554574,0.,0.0602
 0453,0.51127921,0.,0.,0.01679410,0.,0.,-0.05742025,0.,0.,0.10084495,-0
 .11391817,0.03881676,0.,-0.09874239,0.03603556,0.,-0.11433589,0.019958
 34,0.,0.46123749,-0.05107064,0.02715069,0.,0.10389392,-0.06417298,0.,0
 .07477864,-0.26077040,0.,-0.10344602,0.38581393,0.,0.,0.01730651,0.,0.
 ,0.02235302,0.,0.,-0.08634308,0.,0.,0.11139402,-0.24638385,0.10917612,
 0.,0.00703802,0.09739874,0.,-0.00961107,-0.08704778,0.,-0.12094359,-0.
 02726866,0.,0.38651869,0.11567392,-0.19571480,0.,-0.00423506,-0.085572
 70,0.,0.00741020,-0.11025663,0.,0.00969380,-0.08700311,0.,-0.11192211,
 0.47054156,0.,0.,-0.06952721,0.,0.,0.01782682,0.,0.,0.03218525,0.,0.,-
 0.08069251,0.,0.,0.09838490,-0.31575078,-0.08881330,0.,0.00317054,0.00
 186255,0.,-0.00012902,0.00392961,0.,-0.00231783,-0.00005024,0.,-0.0150
 1506,-0.00745239,0.,0.33042574,-0.08498190,-0.07908262,0.,-0.03066849,
 -0.00383721,0.,0.00037818,-0.00590330,0.,0.00595296,-0.00185890,0.,0.0
 1803299,0.01303918,0.,0.09115667,0.07804989,0.,0.,-0.02506258,0.,0.,-0
 .00358668,0.,0.,0.00568430,0.,0.,0.00846124,0.,0.,-0.00544302,0.,0.,0.
 02046636,0.01518474,-0.00806287,0.,-0.16098509,0.15738608,0.,-0.002582
 13,0.03007775,0.,-0.01097962,0.00316299,0.,-0.00160313,-0.00916835,0.,
 -0.00038359,0.00012958,0.,0.16134882,0.01731785,-0.00362271,0.,0.16287
 751,-0.33543595,0.,-0.00065657,0.00934460,0.,-0.00701140,0.00084076,0.
 ,0.00163070,-0.00503350,0.,-0.00063290,-0.00040704,0.,-0.17352517,0.33
 431383,0.,0.,-0.00995882,0.,0.,-0.00520874,0.,0.,-0.01174527,0.,0.,0.0
 0752080,0.,0.,0.00726577,0.,0.,-0.00051963,0.,0.,0.01264589\\0.0000807
 4,-0.00007233,0.,-0.00010004,0.00005188,0.,0.00005658,0.00009191,0.,0.
 00002151,-0.00006706,0.,-0.00006503,0.00000080,0.,0.00000306,-0.000007
 00,0.,0.00000318,0.00000179,0.\\\@


 ONLY THE DAY DAWNS TO WHICH YOU ARE AWAKE.

                                 -- THOREAU
 Job cpu time:       0 days  0 hours  1 minutes 42.9 seconds.
 File lengths (MBytes):  RWF=     13 Int=      0 D2E=      0 Chk=      2 Scr=      1
 Normal termination of Gaussian 09 at Mon Dec 16 14:01:39 2013.
