 Entering Gaussian System, Link 0=g09
 Initial command:
 /usr/local/gaussian/g09.d01.em64t.legacy.linda/g09/l1.exe "/tmp/rdj3/g09-16833/Gau-27278.inp" -scrdir="/tmp/rdj3/g09-16833/"
 Entering Link 1 = /usr/local/gaussian/g09.d01.em64t.legacy.linda/g09/l1.exe PID=     27279.
  
 Copyright (c) 1988,1990,1992,1993,1995,1998,2003,2009,2013,
            Gaussian, Inc.  All Rights Reserved.
  
 This is part of the Gaussian(R) 09 program.  It is based on
 the Gaussian(R) 03 system (copyright 2003, Gaussian, Inc.),
 the Gaussian(R) 98 system (copyright 1998, Gaussian, Inc.),
 the Gaussian(R) 94 system (copyright 1995, Gaussian, Inc.),
 the Gaussian 92(TM) system (copyright 1992, Gaussian, Inc.),
 the Gaussian 90(TM) system (copyright 1990, Gaussian, Inc.),
 the Gaussian 88(TM) system (copyright 1988, Gaussian, Inc.),
 the Gaussian 86(TM) system (copyright 1986, Carnegie Mellon
 University), and the Gaussian 82(TM) system (copyright 1983,
 Carnegie Mellon University). Gaussian is a federally registered
 trademark of Gaussian, Inc.
  
 This software contains proprietary and confidential information,
 including trade secrets, belonging to Gaussian, Inc.
  
 This software is provided under written license and may be
 used, copied, transmitted, or stored only in accord with that
 written license.
  
 The following legend is applicable only to US Government
 contracts under FAR:
  
                    RESTRICTED RIGHTS LEGEND
  
 Use, reproduction and disclosure by the US Government is
 subject to restrictions as set forth in subparagraphs (a)
 and (c) of the Commercial Computer Software - Restricted
 Rights clause in FAR 52.227-19.
  
 Gaussian, Inc.
 340 Quinnipiac St., Bldg. 40, Wallingford CT 06492
  
  
 ---------------------------------------------------------------
 Warning -- This program may not be used in any manner that
 competes with the business of Gaussian, Inc. or will provide
 assistance to any competitor of Gaussian, Inc.  The licensee
 of this program is prohibited from giving any competitor of
 Gaussian, Inc. access to this program.  By using this program,
 the user acknowledges that Gaussian, Inc. is engaged in the
 business of creating and licensing software in the field of
 computational chemistry and represents and warrants to the
 licensee that it is not a competitor of Gaussian, Inc. and that
 it will not use this program in any manner prohibited above.
 ---------------------------------------------------------------
  

 Cite this work as:
 Gaussian 09, Revision D.01,
 M. J. Frisch, G. W. Trucks, H. B. Schlegel, G. E. Scuseria, 
 M. A. Robb, J. R. Cheeseman, G. Scalmani, V. Barone, B. Mennucci, 
 G. A. Petersson, H. Nakatsuji, M. Caricato, X. Li, H. P. Hratchian, 
 A. F. Izmaylov, J. Bloino, G. Zheng, J. L. Sonnenberg, M. Hada, 
 M. Ehara, K. Toyota, R. Fukuda, J. Hasegawa, M. Ishida, T. Nakajima, 
 Y. Honda, O. Kitao, H. Nakai, T. Vreven, J. A. Montgomery, Jr., 
 J. E. Peralta, F. Ogliaro, M. Bearpark, J. J. Heyd, E. Brothers, 
 K. N. Kudin, V. N. Staroverov, T. Keith, R. Kobayashi, J. Normand, 
 K. Raghavachari, A. Rendell, J. C. Burant, S. S. Iyengar, J. Tomasi, 
 M. Cossi, N. Rega, J. M. Millam, M. Klene, J. E. Knox, J. B. Cross, 
 V. Bakken, C. Adamo, J. Jaramillo, R. Gomperts, R. E. Stratmann, 
 O. Yazyev, A. J. Austin, R. Cammi, C. Pomelli, J. W. Ochterski, 
 R. L. Martin, K. Morokuma, V. G. Zakrzewski, G. A. Voth, 
 P. Salvador, J. J. Dannenberg, S. Dapprich, A. D. Daniels, 
 O. Farkas, J. B. Foresman, J. V. Ortiz, J. Cioslowski, 
 and D. J. Fox, Gaussian, Inc., Wallingford CT, 2013.
 
 ******************************************
 Gaussian 09:  EM64L-G09RevD.01 24-Apr-2013
                25-Nov-2013 
 ******************************************
 %Nproc=8
 Will use up to    8 processors via shared memory.
 %mem=436000000
 -------------------------------
 #BLYP/6-31G** opt=z-matrix freq
 -------------------------------
 1/10=7,14=-1,18=40,26=3,38=1/1,3;
 2/12=2,17=6,18=5,29=3,40=1/2;
 3/5=1,6=6,7=101,11=2,16=1,25=1,30=1,71=1,74=402/1,2,3;
 4//1;
 5/5=2,38=5/2;
 6/7=2,8=2,9=2,10=2,28=1/1;
 7/29=1/1,2,3,16;
 1/10=7,14=-1,18=40,26=3/3(2);
 2/29=3/2;
 99//99;
 2/29=3/2;
 3/5=1,6=6,7=101,11=2,16=1,25=1,30=1,71=1,74=402/1,2,3;
 4/5=5,16=3,69=1/1;
 5/5=2,38=5/2;
 7//1,2,3,16;
 1/14=-1,18=40,26=3/3(-5);
 2/29=3/2;
 6/7=2,8=2,9=2,10=2,19=2,28=1/1;
 99/9=1/99;
 ------------------------------------------------------------------
 1H-tetrazole CH2N4 casno=288948 state=1 config=1 method=13 basis=3
 ------------------------------------------------------------------
 Symbolic Z-matrix:
 Charge =  0 Multiplicity = 1
 X
 X                    1     1. 
 C                    1     1.       2     90. 
 N                    1    rn1      2     90.      3    an1      0
 N                    1    rn2      2     90.      3    an2      0
 N                    1    rn3      2     90.      3    an3      0
 N                    1    rn4      2     90.      3    an4      0
 H                    3    rch      4    ach      5     180.     0
 H                    4    rnh      5    anh      6     180.     0
       Variables:
  rn1                   1.2426                   
  rn2                   1.333                    
  rn3                   1.1146                   
  rn4                   0.9264                   
  rch                   1.0678                   
  rnh                   0.9941                   
  an1                  71.8427                   
  an2                 133.7028                   
  an3                 194.4597                   
  an4                 276.0768                   
  ach                 125.0248                   
  anh                 120.7626                   
 

 GradGradGradGradGradGradGradGradGradGradGradGradGradGradGradGradGradGrad
 Berny optimization.
 Initialization pass.
                       ----------------------------
                       !    Initial Parameters    !
                       ! (Angstroms and Degrees)  !
 ----------------------                            ----------------------
 !      Name          Value   Derivative information (Atomic Units)     !
 ------------------------------------------------------------------------
 !       rn1         1.2426   estimate D2E/DX2                          !
 !       rn2         1.333    estimate D2E/DX2                          !
 !       rn3         1.1146   estimate D2E/DX2                          !
 !       rn4         0.9264   estimate D2E/DX2                          !
 !       rch         1.0678   estimate D2E/DX2                          !
 !       rnh         0.9941   estimate D2E/DX2                          !
 !       an1        71.8427   estimate D2E/DX2                          !
 !       an2       133.7028   estimate D2E/DX2                          !
 !       an3       194.4597   estimate D2E/DX2                          !
 !       an4       276.0768   estimate D2E/DX2                          !
 !       ach       125.0248   estimate D2E/DX2                          !
 !       anh       120.7626   estimate D2E/DX2                          !
 ------------------------------------------------------------------------
 Trust Radius=3.00D-01 FncErr=1.00D-07 GrdErr=1.00D-06
 Number of steps in this run=     22 maximum allowed number of steps=    100.
 GradGradGradGradGradGradGradGradGradGradGradGradGradGradGradGradGradGrad

 ---------------------------------------------------------------------------------------------------
                            Z-MATRIX (ANGSTROMS AND DEGREES)
   CD    Cent   Atom    N1       Length/X        N2       Alpha/Y        N3        Beta/Z          J
 ---------------------------------------------------------------------------------------------------
      1         X 
      2         X        1   1.000000(     1)
      3      1  C        1   1.000000(     2)      2   90.000(     9)
      4      2  N        1   1.242600(     3)      2   90.000(    10)      3   71.843(    16)      0
      5      3  N        1   1.333000(     4)      2   90.000(    11)      3  133.703(    17)      0
      6      4  N        1   1.114600(     5)      2   90.000(    12)      3  194.460(    18)      0
      7      5  N        1   0.926400(     6)      2   90.000(    13)      3  276.077(    19)      0
      8      6  H        3   1.067800(     7)      4  125.025(    14)      5  180.000(    20)      0
      9      7  H        4   0.994100(     8)      5  120.763(    15)      6  180.000(    21)      0
 ---------------------------------------------------------------------------------------------------
                         Z-Matrix orientation:                         
 ---------------------------------------------------------------------
 Center     Atomic      Atomic             Coordinates (Angstroms)
 Number     Number       Type             X           Y           Z
 ---------------------------------------------------------------------
      1         -1           0        0.000000    0.000000    0.000000
      2         -1           0        0.000000    0.000000    1.000000
      3          6           0        1.000000    0.000000    0.000000
      4          7           0        0.387228   -1.180724    0.000000
      5          7           0       -0.920993   -0.963670    0.000000
      6          7           0       -1.079293    0.278314    0.000000
      7          7           0        0.098070    0.921194    0.000000
      8          1           0        2.058429    0.141157    0.000000
      9          1           0        0.749017   -2.106652    0.000000
 ---------------------------------------------------------------------
                    Distance matrix (angstroms):
                    1          2          3          4          5
     1  X    0.000000
     2  X    1.000000   0.000000
     3  C    1.000000   1.414214   0.000000
     4  N    1.242600   1.595009   1.330263   0.000000
     5  N    1.333000   1.666400   2.149157   1.326105   0.000000
     6  N    1.114600   1.497442   2.097837   2.068690   1.252032
     7  N    0.926400   1.363164   1.289216   2.121715   2.142710
     8  H    2.063263   2.292827   1.067800   2.130794   3.177672
     9  H    2.235847   2.449288   2.121551   0.994100   2.023695
                    6          7          8          9
     6  N    0.000000
     7  N    1.341447   0.000000
     8  H    3.140719   2.109850   0.000000
     9  H    3.005127   3.097029   2.601385   0.000000
 Stoichiometry    CH2N4
 Framework group  CS[SG(CH2N4)]
 Deg. of freedom    11
 Full point group                 CS      NOp   2
 Largest Abelian subgroup         CS      NOp   2
 Largest concise Abelian subgroup C1      NOp   1
                         Standard orientation:                         
 ---------------------------------------------------------------------
 Center     Atomic      Atomic             Coordinates (Angstroms)
 Number     Number       Type             X           Y           Z
 ---------------------------------------------------------------------
      1          6           0        1.052733    0.225621    0.000000
      2          7           0        0.000000    1.038857    0.000000
      3          7           0       -1.095416    0.291448    0.000000
      4          7           0       -0.716382   -0.901832    0.000000
      5          7           0        0.622191   -0.989579    0.000000
      6          1           0        2.072287    0.542964    0.000000
      7          1           0       -0.061439    2.031056    0.000000
 ---------------------------------------------------------------------
 Rotational constants (GHZ):     10.9201517     10.7345054      5.4132664
 Standard basis: 6-31G(d,p) (6D, 7F)
 There are    63 symmetry adapted cartesian basis functions of A'  symmetry.
 There are    22 symmetry adapted cartesian basis functions of A"  symmetry.
 There are    63 symmetry adapted basis functions of A'  symmetry.
 There are    22 symmetry adapted basis functions of A"  symmetry.
    85 basis functions,   154 primitive gaussians,    85 cartesian basis functions
    18 alpha electrons       18 beta electrons
       nuclear repulsion energy       169.8308489506 Hartrees.
 NAtoms=    7 NActive=    7 NUniq=    7 SFac= 1.00D+00 NAtFMM=   60 NAOKFM=F Big=F
 Integral buffers will be    131072 words long.
 Raffenetti 2 integral format.
 Two-electron integral symmetry is turned on.
 One-electron integrals computed using PRISM.
 NBasis=    85 RedAO= T EigKep=  3.44D-03  NBF=    63    22
 NBsUse=    85 1.00D-06 EigRej= -1.00D+00 NBFU=    63    22
 ExpMin= 1.61D-01 ExpMax= 4.17D+03 ExpMxC= 6.27D+02 IAcc=1 IRadAn=         1 AccDes= 0.00D+00
 Harris functional with IExCor=  402 and IRadAn=       1 diagonalized for initial guess.
 HarFok:  IExCor=  402 AccDes= 0.00D+00 IRadAn=         1 IDoV= 1 UseB2=F ITyADJ=14
 ICtDFT=  3500011 ScaDFX=  1.000000  1.000000  1.000000  1.000000
 FoFCou: FMM=F IPFlag=           0 FMFlag=      100000 FMFlg1=           0
         NFxFlg=           0 DoJE=T BraDBF=F KetDBF=T FulRan=T
         wScrn=  0.000000 ICntrl=     500 IOpCl=  0 I1Cent=   200000004 NGrid=           0
         NMat0=    1 NMatS0=      1 NMatT0=    0 NMatD0=    1 NMtDS0=    0 NMtDT0=    0
 Petite list used in FoFCou.
 Initial guess orbital symmetries:
       Occupied  (A') (A') (A') (A') (A') (A') (A') (A') (A') (A')
                 (A') (A') (A") (A') (A") (A') (A") (A')
       Virtual   (A") (A") (A') (A') (A') (A') (A') (A') (A') (A')
                 (A") (A') (A') (A') (A') (A') (A") (A") (A') (A")
                 (A') (A") (A') (A') (A') (A') (A') (A') (A") (A')
                 (A") (A") (A') (A') (A") (A") (A') (A') (A') (A')
                 (A') (A") (A') (A") (A") (A') (A') (A") (A') (A')
                 (A") (A') (A') (A") (A') (A") (A') (A') (A') (A')
                 (A') (A') (A') (A') (A') (A') (A')
 The electronic state of the initial guess is 1-A'.
 Keep J ints in memory in symmetry-blocked form, NReq=10267916.
 Requested convergence on RMS density matrix=1.00D-08 within 128 cycles.
 Requested convergence on MAX density matrix=1.00D-06.
 Requested convergence on             energy=1.00D-06.
 No special actions if energy rises.
 Integral accuracy reduced to 1.0D-05 until final iterations.
 Initial convergence to 1.0D-05 achieved.  Increase integral accuracy.
 SCF Done:  E(RB-LYP) =  -258.192264440     A.U. after   15 cycles
            NFock= 15  Conv=0.62D-08     -V/T= 2.0068

 **********************************************************************

            Population analysis using the SCF density.

 **********************************************************************

 Orbital symmetries:
       Occupied  (A') (A') (A') (A') (A') (A') (A') (A') (A') (A')
                 (A') (A") (A') (A') (A") (A") (A') (A')
       Virtual   (A") (A") (A') (A') (A') (A') (A') (A') (A') (A')
                 (A") (A') (A') (A') (A") (A') (A') (A") (A') (A")
                 (A') (A") (A') (A') (A') (A') (A') (A') (A") (A')
                 (A") (A") (A') (A') (A") (A") (A') (A') (A') (A')
                 (A') (A") (A') (A") (A") (A') (A') (A") (A') (A')
                 (A") (A') (A') (A") (A") (A') (A') (A') (A') (A')
                 (A') (A') (A') (A') (A') (A') (A')
 The electronic state is 1-A'.
 Alpha  occ. eigenvalues --  -14.13388 -14.09232 -14.07422 -14.04626 -10.00626
 Alpha  occ. eigenvalues --   -1.06541  -0.86662  -0.81775  -0.61659  -0.60402
 Alpha  occ. eigenvalues --   -0.54099  -0.44948  -0.44747  -0.32189  -0.29050
 Alpha  occ. eigenvalues --   -0.27312  -0.24326  -0.22657
 Alpha virt. eigenvalues --   -0.03715  -0.00242   0.03434   0.08810   0.16129
 Alpha virt. eigenvalues --    0.18282   0.26938   0.30075   0.38765   0.47523
 Alpha virt. eigenvalues --    0.47570   0.55652   0.56509   0.60651   0.61945
 Alpha virt. eigenvalues --    0.62236   0.64541   0.65935   0.68929   0.74161
 Alpha virt. eigenvalues --    0.75531   0.78548   0.79041   0.81695   0.88948
 Alpha virt. eigenvalues --    0.96331   1.00006   1.04238   1.17644   1.18282
 Alpha virt. eigenvalues --    1.28643   1.30515   1.34771   1.41738   1.47534
 Alpha virt. eigenvalues --    1.48393   1.59665   1.81287   1.84381   1.86673
 Alpha virt. eigenvalues --    1.95651   2.00178   2.06531   2.14752   2.19876
 Alpha virt. eigenvalues --    2.21641   2.26232   2.29487   2.33466   2.42776
 Alpha virt. eigenvalues --    2.44601   2.46933   2.49703   2.59063   2.67141
 Alpha virt. eigenvalues --    2.67987   2.75799   2.85083   2.98935   3.07922
 Alpha virt. eigenvalues --    3.20011   3.42659   3.51393   3.66412   3.96372
 Alpha virt. eigenvalues --    4.00394   4.36131
          Condensed to atoms (all electrons):
               1          2          3          4          5          6
     1  C    4.813421   0.311520  -0.115718  -0.095249   0.411382   0.380270
     2  N    0.311520   6.659495   0.185634  -0.082513  -0.071915  -0.046520
     3  N   -0.115718   0.185634   6.824113   0.256589  -0.075467   0.003843
     4  N   -0.095249  -0.082513   0.256589   6.731547   0.261726   0.005429
     5  N    0.411382  -0.071915  -0.075467   0.261726   6.794407  -0.031974
     6  H    0.380270  -0.046520   0.003843   0.005429  -0.031974   0.559150
     7  H   -0.031218   0.332743  -0.026864   0.008088   0.007645   0.001151
               7
     1  C   -0.031218
     2  N    0.332743
     3  N   -0.026864
     4  N    0.008088
     5  N    0.007645
     6  H    0.001151
     7  H    0.440700
 Mulliken charges:
               1
     1  C    0.325592
     2  N   -0.288444
     3  N   -0.052130
     4  N   -0.085618
     5  N   -0.295805
     6  H    0.128649
     7  H    0.267755
 Sum of Mulliken charges =   0.00000
 Mulliken charges with hydrogens summed into heavy atoms:
               1
     1  C    0.454241
     2  N   -0.020689
     3  N   -0.052130
     4  N   -0.085618
     5  N   -0.295805
 Electronic spatial extent (au):  <R**2>=            243.7184
 Charge=              0.0000 electrons
 Dipole moment (field-independent basis, Debye):
    X=              2.3348    Y=              4.5638    Z=              0.0000  Tot=              5.1264
 Quadrupole moment (field-independent basis, Debye-Ang):
   XX=            -28.7145   YY=            -26.1174   ZZ=            -27.6683
   XY=              1.6110   XZ=              0.0000   YZ=              0.0000
 Traceless Quadrupole moment (field-independent basis, Debye-Ang):
   XX=             -1.2144   YY=              1.3826   ZZ=             -0.1682
   XY=              1.6110   XZ=              0.0000   YZ=              0.0000
 Octapole moment (field-independent basis, Debye-Ang**2):
  XXX=             10.2905  YYY=             20.5799  ZZZ=              0.0000  XYY=             -0.6527
  XXY=              4.0201  XXZ=              0.0000  XZZ=             -0.6517  YZZ=              0.4718
  YYZ=              0.0000  XYZ=              0.0000
 Hexadecapole moment (field-independent basis, Debye-Ang**3):
 XXXX=           -138.9117 YYYY=           -116.8157 ZZZZ=            -23.7019 XXXY=              5.3946
 XXXZ=              0.0000 YYYX=             -0.6654 YYYZ=              0.0000 ZZZX=              0.0000
 ZZZY=              0.0000 XXYY=            -51.3496 XXZZ=            -28.9615 YYZZ=            -27.2696
 XXYZ=              0.0000 YYXZ=              0.0000 ZZXY=             -0.1860
 N-N= 1.698308489506D+02 E-N=-9.419900025129D+02  KE= 2.564556480067D+02
 Symmetry A'   KE= 2.468621992121D+02
 Symmetry A"   KE= 9.593448794592D+00
 Calling FoFJK, ICntrl=      2527 FMM=F ISym2X=1 I1Cent= 0 IOpClX= 0 NMat=1 NMatS=1 NMatT=0.
 ***** Axes restored to original set *****
 -------------------------------------------------------------------
 Center     Atomic                   Forces (Hartrees/Bohr)
 Number     Number              X              Y              Z
 -------------------------------------------------------------------
      1        6           0.038236826   -0.003701956    0.000000000
      2        7           0.019275185   -0.018974335    0.000000000
      3        7          -0.036568246   -0.065005584    0.000000000
      4        7          -0.044655799    0.050733002    0.000000000
      5        7           0.002428581    0.055630290    0.000000000
      6        1           0.013328234    0.001467058    0.000000000
      7        1           0.007955220   -0.020148475    0.000000000
 -------------------------------------------------------------------
 Cartesian Forces:  Max     0.065005584 RMS     0.027678362
 -----------------------------------------------------------------------------------------------
                       Internal Coordinate Forces (Hartree/Bohr or radian)
  Cent   Atom   N1       Length/X         N2         Alpha/Y        N3         Beta/Z          J
 -----------------------------------------------------------------------------------------------
         X 
         X        1   0.000000(     1)
      1  C        1   0.051784(     2)      2   0.000000(     9)
      2  N        1   0.045433(     3)      2   0.000000(    10)      3  -0.031786(    16)     0
      3  N        1   0.072308(     4)      2   0.000000(    11)      3  -0.046626(    17)     0
      4  N        1   0.055909(     5)      2   0.000000(    12)      3   0.079987(    18)     0
      5  N        1   0.055575(     6)      2   0.000000(    13)      3  -0.006082(    19)     0
      6  H        3   0.013405(     7)      4  -0.000621(    14)      5   0.000000(    20)     0
      7  H        4   0.021662(     8)      5   0.000144(    15)      6   0.000000(    21)     0
 -----------------------------------------------------------------------------------------------
 Internal  Forces:  Max     0.079987265 RMS     0.035494617

 GradGradGradGradGradGradGradGradGradGradGradGradGradGradGradGradGradGrad
 Berny optimization.
 Search for a local minimum.
 Step number   1 out of a maximum of   22
 All quantities printed in internal units (Hartrees-Bohrs-Radians)
 Second derivative matrix not updated -- first step.
 The second derivative matrix:
                          rn1       rn2       rn3       rn4       rch
           rn1          0.65186
           rn2          0.01318   0.69869
           rn3          0.03472   0.07334   0.58262
           rn4          0.03688   0.02662   0.13967   0.63921
           rch          0.00000   0.00000   0.00000   0.00000   0.37510
           rnh          0.00000   0.00000   0.00000   0.00000   0.00000
           an1          0.02012  -0.75016   0.04258  -0.08486   0.00000
           an2          0.72119  -0.31234  -0.71865   0.05436   0.00000
           an3         -0.02914   1.04797   0.05412  -0.58583   0.00000
           an4          0.05328  -0.03228   0.65851  -0.10009   0.00000
           ach          0.04546   0.00000   0.00000   0.05066   0.00000
           anh         -0.10206   0.05276   0.00000   0.00000   0.00000
                          rnh       an1       an2       an3       an4
           rnh          0.48741
           an1          0.00000   4.53257
           an2          0.00000  -2.68051   6.02300
           an3          0.00000  -0.03573  -3.19618   4.47465
           an4          0.00000  -0.12258  -0.06592  -1.16042   2.58479
           ach          0.00000  -0.10460   0.00000   0.00000   0.07318
           anh          0.00000   0.03519  -0.09059   0.00000   0.00000
                          ach       anh
           ach          0.32000
           anh          0.00000   0.32000
 ITU=  0
     Eigenvalues ---    0.00000   0.13346   0.26445   0.33044   0.37510
     Eigenvalues ---    0.40158   0.48741   0.75609   1.20990   2.99509
     Eigenvalues ---    5.09563   9.64077
 RFO step:  Lambda=-1.92430496D-02 EMin=-6.95624114D-16
 Linear search not attempted -- first point.
 Variable       Old X    -DE/DX   Delta X   Delta X   Delta X     New X
                                 (Linear)    (Quad)   (Total)
   rn1        2.34817   0.04543   0.00000   0.03897   0.03897   2.38714
   rn2        2.51900   0.07231   0.00000   0.10204   0.10204   2.62105
   rn3        2.10629   0.05591   0.00000   0.10644   0.10644   2.21273
   rn4        1.75064   0.05557   0.00000   0.06150   0.06150   1.81215
   rch        2.01785   0.01341   0.00000   0.03399   0.03399   2.05184
   rnh        1.87858   0.02166   0.00000   0.04276   0.04276   1.92133
   an1        1.25389  -0.03179   0.00000   0.01989   0.01989   1.27378
   an2        2.33355  -0.04663   0.00000   0.01817   0.01817   2.35172
   an3        3.39396   0.07999   0.00000   0.00864   0.00864   3.40261
   an4        4.81845  -0.00608   0.00000  -0.02102  -0.02102   4.79743
   ach        2.18209  -0.00062   0.00000  -0.00557  -0.00557   2.17652
   anh        2.10770   0.00014   0.00000  -0.00093  -0.00093   2.10677
         Item               Value     Threshold  Converged?
 Maximum Force            0.079987     0.000450     NO 
 RMS     Force            0.044512     0.000300     NO 
 Maximum Displacement     0.106440     0.001800     NO 
 RMS     Displacement     0.051073     0.001200     NO 
 Predicted change in Energy=-9.922687D-03
 GradGradGradGradGradGradGradGradGradGradGradGradGradGradGradGradGradGrad

 ---------------------------------------------------------------------------------------------------
                            Z-MATRIX (ANGSTROMS AND DEGREES)
   CD    Cent   Atom    N1       Length/X        N2       Alpha/Y        N3        Beta/Z          J
 ---------------------------------------------------------------------------------------------------
      1         X 
      2         X        1   1.000000(     1)
      3      1  C        1   1.000000(     2)      2   90.000(     9)
      4      2  N        1   1.263221(     3)      2   90.000(    10)      3   72.982(    16)      0
      5      3  N        1   1.386999(     4)      2   90.000(    11)      3  134.744(    17)      0
      6      4  N        1   1.170925(     5)      2   90.000(    12)      3  194.955(    18)      0
      7      5  N        1   0.958947(     6)      2   90.000(    13)      3  274.873(    19)      0
      8      6  H        3   1.085789(     7)      4  124.706(    14)      5  180.000(    20)      0
      9      7  H        4   1.016725(     8)      5  120.709(    15)      6  180.000(    21)      0
 ---------------------------------------------------------------------------------------------------
                         Z-Matrix orientation:                         
 ---------------------------------------------------------------------
 Center     Atomic      Atomic             Coordinates (Angstroms)
 Number     Number       Type             X           Y           Z
 ---------------------------------------------------------------------
      1         -1           0        0.000000    0.000000    0.000000
      2         -1           0        0.000000    0.000000    1.000000
      3          6           0        1.000000    0.000000    0.000000
      4          7           0        0.369700   -1.207911    0.000000
      5          7           0       -0.976360   -0.985133    0.000000
      6          7           0       -1.131265    0.302169    0.000000
      7          7           0        0.081455    0.955481    0.000000
      8          1           0        2.077346    0.135139    0.000000
      9          1           0        0.739220   -2.155109    0.000000
 ---------------------------------------------------------------------
                    Distance matrix (angstroms):
                    1          2          3          4          5
     1  X    0.000000
     2  X    1.000000   0.000000
     3  C    1.000000   1.414214   0.000000
     4  N    1.263221   1.611126   1.362471   0.000000
     5  N    1.386999   1.709902   2.208277   1.364370   0.000000
     6  N    1.170925   1.539827   2.152579   2.129139   1.296589
     7  N    0.958947   1.385489   1.325394   2.182510   2.210194
     8  H    2.081737   2.309465   1.085789   2.172519   3.252711
     9  H    2.278364   2.488160   2.170829   1.016725   2.076550
                    6          7          8          9
     6  N    0.000000
     7  N    1.377500   0.000000
     8  H    3.212956   2.157903   0.000000
     9  H    3.088192   3.179375   2.652511   0.000000
 Stoichiometry    CH2N4
 Framework group  CS[SG(CH2N4)]
 Deg. of freedom    11
 Full point group                 CS      NOp   2
 Largest Abelian subgroup         CS      NOp   2
 Largest concise Abelian subgroup C1      NOp   1
                         Standard orientation:                         
 ---------------------------------------------------------------------
 Center     Atomic      Atomic             Coordinates (Angstroms)
 Number     Number       Type             X           Y           Z
 ---------------------------------------------------------------------
      1          6           0        1.077928    0.234613    0.000000
      2          7           0        0.000000    1.067918    0.000000
      3          7           0       -1.129311    0.302305    0.000000
      4          7           0       -0.731310   -0.931687    0.000000
      5          7           0        0.643511   -1.017566    0.000000
      6          1           0        2.112960    0.562707    0.000000
      7          1           0       -0.060758    2.082826    0.000000
 ---------------------------------------------------------------------
 Rotational constants (GHZ):     10.3304298     10.1544042      5.1208304
 Standard basis: 6-31G(d,p) (6D, 7F)
 There are    63 symmetry adapted cartesian basis functions of A'  symmetry.
 There are    22 symmetry adapted cartesian basis functions of A"  symmetry.
 There are    63 symmetry adapted basis functions of A'  symmetry.
 There are    22 symmetry adapted basis functions of A"  symmetry.
    85 basis functions,   154 primitive gaussians,    85 cartesian basis functions
    18 alpha electrons       18 beta electrons
       nuclear repulsion energy       165.1805521341 Hartrees.
 NAtoms=    7 NActive=    7 NUniq=    7 SFac= 1.00D+00 NAtFMM=   60 NAOKFM=F Big=F
 Integral buffers will be    131072 words long.
 Raffenetti 2 integral format.
 Two-electron integral symmetry is turned on.
 One-electron integrals computed using PRISM.
 NBasis=    85 RedAO= T EigKep=  3.96D-03  NBF=    63    22
 NBsUse=    85 1.00D-06 EigRej= -1.00D+00 NBFU=    63    22
 Initial guess from the checkpoint file:  "/tmp/rdj3/g09-16833/Gau-27279.chk"
 B after Tr=     0.000000    0.000000    0.000000
         Rot=    1.000000    0.000000    0.000000   -0.000992 Ang=  -0.11 deg.
 Initial guess orbital symmetries:
       Occupied  (A') (A') (A') (A') (A') (A') (A') (A') (A') (A')
                 (A') (A") (A') (A') (A") (A") (A') (A')
       Virtual   (A') (A') (A') (A') (A') (A') (A') (A') (A') (A')
                 (A') (A') (A') (A') (A') (A') (A') (A') (A') (A')
                 (A') (A') (A') (A') (A') (A') (A') (A') (A') (A')
                 (A') (A') (A') (A') (A') (A') (A') (A') (A') (A')
                 (A') (A') (A') (A') (A') (A') (A') (A') (A") (A")
                 (A") (A") (A") (A") (A") (A") (A") (A") (A") (A")
                 (A") (A") (A") (A") (A") (A") (A")
 ExpMin= 1.61D-01 ExpMax= 4.17D+03 ExpMxC= 6.27D+02 IAcc=1 IRadAn=         1 AccDes= 0.00D+00
 Harris functional with IExCor=  402 and IRadAn=       1 diagonalized for initial guess.
 HarFok:  IExCor=  402 AccDes= 0.00D+00 IRadAn=         1 IDoV= 1 UseB2=F ITyADJ=14
 ICtDFT=  3500011 ScaDFX=  1.000000  1.000000  1.000000  1.000000
 FoFCou: FMM=F IPFlag=           0 FMFlag=      100000 FMFlg1=           0
         NFxFlg=           0 DoJE=T BraDBF=F KetDBF=T FulRan=T
         wScrn=  0.000000 ICntrl=     500 IOpCl=  0 I1Cent=   200000004 NGrid=           0
         NMat0=    1 NMatS0=      1 NMatT0=    0 NMatD0=    1 NMtDS0=    0 NMtDT0=    0
 Petite list used in FoFCou.
 Keep J ints in memory in symmetry-blocked form, NReq=10267916.
 Requested convergence on RMS density matrix=1.00D-08 within 128 cycles.
 Requested convergence on MAX density matrix=1.00D-06.
 Requested convergence on             energy=1.00D-06.
 No special actions if energy rises.
 Integral accuracy reduced to 1.0D-05 until final iterations.
 Initial convergence to 1.0D-05 achieved.  Increase integral accuracy.
 SCF Done:  E(RB-LYP) =  -258.202828747     A.U. after   14 cycles
            NFock= 14  Conv=0.80D-08     -V/T= 2.0090
 Calling FoFJK, ICntrl=      2527 FMM=F ISym2X=1 I1Cent= 0 IOpClX= 0 NMat=1 NMatS=1 NMatT=0.
 ***** Axes restored to original set *****
 -------------------------------------------------------------------
 Center     Atomic                   Forces (Hartrees/Bohr)
 Number     Number              X              Y              Z
 -------------------------------------------------------------------
      1        6           0.003670577   -0.002591655    0.000000000
      2        7           0.007007361    0.002742239    0.000000000
      3        7          -0.008771728   -0.014542660    0.000000000
      4        7          -0.007466705    0.008719434    0.000000000
      5        7           0.005183136    0.006881402    0.000000000
      6        1           0.000088477   -0.000094479    0.000000000
      7        1           0.000288882   -0.001114281    0.000000000
 -------------------------------------------------------------------
 Cartesian Forces:  Max     0.014542660 RMS     0.005221684
 -----------------------------------------------------------------------------------------------
                       Internal Coordinate Forces (Hartree/Bohr or radian)
  Cent   Atom   N1       Length/X         N2         Alpha/Y        N3         Beta/Z          J
 -----------------------------------------------------------------------------------------------
         X 
         X        1   0.000000(     1)
      1  C        1   0.003833(     2)      2   0.000000(     9)
      2  N        1   0.000611(     3)      2   0.000000(    10)      3  -0.017542(    16)     0
      3  N        1   0.016421(     4)      2   0.000000(    11)      3  -0.010349(    17)     0
      4  N        1   0.009464(     5)      2   0.000000(    12)      3   0.014377(    18)     0
      5  N        1   0.007297(     6)      2   0.000000(    13)      3   0.008299(    19)     0
      6  H        3   0.000076(     7)      4  -0.000215(    14)      5   0.000000(    20)     0
      7  H        4   0.001143(     8)      5  -0.000261(    15)      6   0.000000(    21)     0
 -----------------------------------------------------------------------------------------------
 Internal  Forces:  Max     0.017542428 RMS     0.007300883

 GradGradGradGradGradGradGradGradGradGradGradGradGradGradGradGradGradGrad
 Berny optimization.
 Search for a local minimum.
 Step number   2 out of a maximum of   22
 All quantities printed in internal units (Hartrees-Bohrs-Radians)
 Update second derivatives using D2CorN and points    1    2
 DE= -1.06D-02 DEPred=-9.92D-03 R= 1.06D+00
 TightC=F SS=  1.41D+00  RLast= 1.77D-01 DXNew= 5.0454D-01 5.3076D-01
 Trust test= 1.06D+00 RLast= 1.77D-01 DXMaxT set to 5.05D-01
 The second derivative matrix:
                          rn1       rn2       rn3       rn4       rch
           rn1          0.65203
           rn2          0.00441   0.65156
           rn3          0.03034   0.03667   0.55740
           rn4          0.03321   0.00245   0.12199   0.62720
           rch          0.00044  -0.00691  -0.00304  -0.00275   0.37572
           rnh         -0.00010  -0.01040  -0.00561  -0.00449   0.00022
           an1          0.03132  -0.72554   0.07070  -0.06919   0.00992
           an2          0.72789  -0.29909  -0.70261   0.06309   0.00598
           an3         -0.03796   1.02281   0.02894  -0.60063  -0.00764
           an4          0.04782  -0.04161   0.64620  -0.10659  -0.00492
           ach          0.04552   0.00146   0.00084   0.05130   0.00001
           anh         -0.10191   0.05337   0.00052   0.00033   0.00012
                          rnh       an1       an2       an3       an4
           rnh          0.48697
           an1          0.01214   4.54397
           an2          0.00721  -2.67191   6.02921
           an3         -0.00975  -0.03777  -3.19883   4.47073
           an4         -0.00584  -0.13136  -0.07204  -1.15685   2.59063
           ach          0.00010  -0.10616  -0.00092   0.00128   0.07391
           anh          0.00017   0.03500  -0.09068   0.00025   0.00005
                          ach       anh
           ach          0.31998
           anh         -0.00002   0.31999
 ITU=  1  0
     Eigenvalues ---    0.00000   0.12983   0.26522   0.32832   0.37538
     Eigenvalues ---    0.39326   0.48685   0.72327   1.21002   2.98846
     Eigenvalues ---    5.08580   9.63898
 RFO step:  Lambda=-2.72361573D-04 EMin= 4.74483222D-07
 Quartic linear search produced a step of  0.18614.
 Variable       Old X    -DE/DX   Delta X   Delta X   Delta X     New X
                                 (Linear)    (Quad)   (Total)
   rn1        2.38714   0.00061   0.00725   0.00305   0.01030   2.39744
   rn2        2.62105   0.01642   0.01899   0.03009   0.04908   2.67013
   rn3        2.21273   0.00946   0.01981  -0.00131   0.01850   2.23123
   rn4        1.81215   0.00730   0.01145  -0.02120  -0.00975   1.80239
   rch        2.05184   0.00008   0.00633  -0.00474   0.00159   2.05343
   rnh        1.92133   0.00114   0.00796  -0.00384   0.00412   1.92545
   an1        1.27378  -0.01754   0.00370  -0.00678  -0.00308   1.27071
   an2        2.35172  -0.01035   0.00338  -0.01331  -0.00992   2.34180
   an3        3.40261   0.01438   0.00161  -0.02029  -0.01868   3.38393
   an4        4.79743   0.00830  -0.00391  -0.00583  -0.00974   4.78769
   ach        2.17652  -0.00021  -0.00104   0.00127   0.00024   2.17676
   anh        2.10677  -0.00026  -0.00017  -0.00812  -0.00829   2.09848
         Item               Value     Threshold  Converged?
 Maximum Force            0.017542     0.000450     NO 
 RMS     Force            0.009595     0.000300     NO 
 Maximum Displacement     0.049083     0.001800     NO 
 RMS     Displacement     0.017302     0.001200     NO 
 Predicted change in Energy=-3.066561D-04
 GradGradGradGradGradGradGradGradGradGradGradGradGradGradGradGradGradGrad

 ---------------------------------------------------------------------------------------------------
                            Z-MATRIX (ANGSTROMS AND DEGREES)
   CD    Cent   Atom    N1       Length/X        N2       Alpha/Y        N3        Beta/Z          J
 ---------------------------------------------------------------------------------------------------
      1         X 
      2         X        1   1.000000(     1)
      3      1  C        1   1.000000(     2)      2   90.000(     9)
      4      2  N        1   1.268673(     3)      2   90.000(    10)      3   72.806(    16)      0
      5      3  N        1   1.412973(     4)      2   90.000(    11)      3  134.175(    17)      0
      6      4  N        1   1.180714(     5)      2   90.000(    12)      3  193.885(    18)      0
      7      5  N        1   0.953786(     6)      2   90.000(    13)      3  274.315(    19)      0
      8      6  H        3   1.086628(     7)      4  124.719(    14)      5  180.000(    20)      0
      9      7  H        4   1.018904(     8)      5  120.234(    15)      6  180.000(    21)      0
 ---------------------------------------------------------------------------------------------------
                         Z-Matrix orientation:                         
 ---------------------------------------------------------------------
 Center     Atomic      Atomic             Coordinates (Angstroms)
 Number     Number       Type             X           Y           Z
 ---------------------------------------------------------------------
      1         -1           0        0.000000    0.000000    0.000000
      2         -1           0        0.000000    0.000000    1.000000
      3          6           0        1.000000    0.000000    0.000000
      4          7           0        0.375024   -1.211977    0.000000
      5          7           0       -0.984636   -1.013402    0.000000
      6          7           0       -1.146213    0.283339    0.000000
      7          7           0        0.071757    0.951083    0.000000
      8          1           0        2.077479    0.140716    0.000000
      9          1           0        0.755473   -2.157188    0.000000
 ---------------------------------------------------------------------
                    Distance matrix (angstroms):
                    1          2          3          4          5
     1  X    0.000000
     2  X    1.000000   0.000000
     3  C    1.000000   1.414214   0.000000
     4  N    1.268673   1.615404   1.363629   0.000000
     5  N    1.412973   1.731038   2.228399   1.374084   0.000000
     6  N    1.180714   1.547283   2.164835   2.133104   1.306769
     7  N    0.953786   1.381922   1.328983   2.184216   2.230508
     8  H    2.082239   2.309918   1.086628   2.174426   3.272390
     9  H    2.285651   2.494834   2.171003   1.018904   2.082360
                    6          7          8          9
     6  N    0.000000
     7  N    1.389004   0.000000
     8  H    3.226845   2.163242   0.000000
     9  H    3.093959   3.182580   2.651049   0.000000
 Stoichiometry    CH2N4
 Framework group  CS[SG(CH2N4)]
 Deg. of freedom    11
 Full point group                 CS      NOp   2
 Largest Abelian subgroup         CS      NOp   2
 Largest concise Abelian subgroup C1      NOp   1
                         Standard orientation:                         
 ---------------------------------------------------------------------
 Center     Atomic      Atomic             Coordinates (Angstroms)
 Number     Number       Type             X           Y           Z
 ---------------------------------------------------------------------
      1          6           0        1.084229    0.239238    0.000000
      2          7           0        0.000000    1.066238    0.000000
      3          7           0       -1.143231    0.303921    0.000000
      4          7           0       -0.733262   -0.936874    0.000000
      5          7           0        0.653373   -1.017965    0.000000
      6          1           0        2.117990    0.574051    0.000000
      7          1           0       -0.061523    2.083283    0.000000
 ---------------------------------------------------------------------
 Rotational constants (GHZ):     10.2805577     10.0015761      5.0695741
 Standard basis: 6-31G(d,p) (6D, 7F)
 There are    63 symmetry adapted cartesian basis functions of A'  symmetry.
 There are    22 symmetry adapted cartesian basis functions of A"  symmetry.
 There are    63 symmetry adapted basis functions of A'  symmetry.
 There are    22 symmetry adapted basis functions of A"  symmetry.
    85 basis functions,   154 primitive gaussians,    85 cartesian basis functions
    18 alpha electrons       18 beta electrons
       nuclear repulsion energy       164.3512958654 Hartrees.
 NAtoms=    7 NActive=    7 NUniq=    7 SFac= 1.00D+00 NAtFMM=   60 NAOKFM=F Big=F
 Integral buffers will be    131072 words long.
 Raffenetti 2 integral format.
 Two-electron integral symmetry is turned on.
 One-electron integrals computed using PRISM.
 NBasis=    85 RedAO= T EigKep=  4.03D-03  NBF=    63    22
 NBsUse=    85 1.00D-06 EigRej= -1.00D+00 NBFU=    63    22
 Initial guess from the checkpoint file:  "/tmp/rdj3/g09-16833/Gau-27279.chk"
 B after Tr=     0.000000    0.000000    0.000000
         Rot=    0.999999    0.000000    0.000000   -0.001316 Ang=  -0.15 deg.
 Initial guess orbital symmetries:
       Occupied  (A') (A') (A') (A') (A') (A') (A') (A') (A') (A')
                 (A') (A') (A") (A') (A") (A") (A') (A')
       Virtual   (A') (A') (A') (A') (A') (A') (A') (A') (A') (A')
                 (A') (A') (A') (A') (A') (A') (A') (A') (A') (A')
                 (A') (A') (A') (A') (A') (A') (A') (A') (A') (A')
                 (A') (A') (A') (A') (A') (A') (A') (A') (A') (A')
                 (A') (A') (A') (A') (A') (A') (A') (A') (A") (A")
                 (A") (A") (A") (A") (A") (A") (A") (A") (A") (A")
                 (A") (A") (A") (A") (A") (A") (A")
 ExpMin= 1.61D-01 ExpMax= 4.17D+03 ExpMxC= 6.27D+02 IAcc=1 IRadAn=         1 AccDes= 0.00D+00
 Harris functional with IExCor=  402 and IRadAn=       1 diagonalized for initial guess.
 HarFok:  IExCor=  402 AccDes= 0.00D+00 IRadAn=         1 IDoV= 1 UseB2=F ITyADJ=14
 ICtDFT=  3500011 ScaDFX=  1.000000  1.000000  1.000000  1.000000
 FoFCou: FMM=F IPFlag=           0 FMFlag=      100000 FMFlg1=           0
         NFxFlg=           0 DoJE=T BraDBF=F KetDBF=T FulRan=T
         wScrn=  0.000000 ICntrl=     500 IOpCl=  0 I1Cent=   200000004 NGrid=           0
         NMat0=    1 NMatS0=      1 NMatT0=    0 NMatD0=    1 NMtDS0=    0 NMtDT0=    0
 Petite list used in FoFCou.
 Keep J ints in memory in symmetry-blocked form, NReq=10267916.
 Requested convergence on RMS density matrix=1.00D-08 within 128 cycles.
 Requested convergence on MAX density matrix=1.00D-06.
 Requested convergence on             energy=1.00D-06.
 No special actions if energy rises.
 Integral accuracy reduced to 1.0D-05 until final iterations.
 Initial convergence to 1.0D-05 achieved.  Increase integral accuracy.
 SCF Done:  E(RB-LYP) =  -258.203174379     A.U. after   13 cycles
            NFock= 13  Conv=0.23D-08     -V/T= 2.0093
 Calling FoFJK, ICntrl=      2527 FMM=F ISym2X=1 I1Cent= 0 IOpClX= 0 NMat=1 NMatS=1 NMatT=0.
 ***** Axes restored to original set *****
 -------------------------------------------------------------------
 Center     Atomic                   Forces (Hartrees/Bohr)
 Number     Number              X              Y              Z
 -------------------------------------------------------------------
      1        6          -0.003612699   -0.002609412    0.000000000
      2        7           0.003940788   -0.001384975    0.000000000
      3        7           0.001504306   -0.000828294    0.000000000
      4        7          -0.001753273    0.003575176    0.000000000
      5        7           0.000454276    0.001054362    0.000000000
      6        1          -0.000531536   -0.000167444    0.000000000
      7        1          -0.000001862    0.000360587    0.000000000
 -------------------------------------------------------------------
 Cartesian Forces:  Max     0.003940788 RMS     0.001660064
 -----------------------------------------------------------------------------------------------
                       Internal Coordinate Forces (Hartree/Bohr or radian)
  Cent   Atom   N1       Length/X         N2         Alpha/Y        N3         Beta/Z          J
 -----------------------------------------------------------------------------------------------
         X 
         X        1   0.000000(     1)
      1  C        1  -0.004075(     2)      2   0.000000(     9)
      2  N        1   0.002000(     3)      2   0.000000(    10)      3  -0.008265(    16)     0
      3  N        1  -0.000374(     4)      2   0.000000(    11)      3  -0.004576(    17)     0
      4  N        1   0.002560(     5)      2   0.000000(    12)      3   0.006805(    18)     0
      5  N        1   0.001086(     6)      2   0.000000(    13)      3   0.000673(    19)     0
      6  H        3  -0.000549(     7)      4  -0.000200(    14)      5   0.000000(    20)     0
      7  H        4  -0.000335(     8)      5   0.000256(    15)      6   0.000000(    21)     0
 -----------------------------------------------------------------------------------------------
 Internal  Forces:  Max     0.008264585 RMS     0.002803126

 GradGradGradGradGradGradGradGradGradGradGradGradGradGradGradGradGradGrad
 Berny optimization.
 Search for a local minimum.
 Step number   3 out of a maximum of   22
 All quantities printed in internal units (Hartrees-Bohrs-Radians)
 Update second derivatives using D2CorN and points    1    2    3
 DE= -3.46D-04 DEPred=-3.07D-04 R= 1.13D+00
 TightC=F SS=  1.41D+00  RLast= 5.99D-02 DXNew= 8.4853D-01 1.7981D-01
 Trust test= 1.13D+00 RLast= 5.99D-02 DXMaxT set to 5.05D-01
 The second derivative matrix:
                          rn1       rn2       rn3       rn4       rch
           rn1          0.64485
           rn2         -0.01623   0.61970
           rn3          0.01618  -0.00445   0.52771
           rn4          0.03137  -0.01656   0.11556   0.62851
           rch          0.00069  -0.00547  -0.00286  -0.00369   0.37703
           rnh         -0.00143  -0.01287  -0.00866  -0.00632   0.00152
           an1          0.05294  -0.64336   0.11618  -0.06913   0.01893
           an2          0.74255  -0.25185  -0.67272   0.06561   0.01096
           an3         -0.04940   0.95740   0.00216  -0.59471  -0.01524
           an4          0.04688  -0.05282   0.64253  -0.10560  -0.00815
           ach          0.04591   0.00358   0.00176   0.05118   0.00002
           anh         -0.09973   0.05331   0.00425   0.00293  -0.00034
                          rnh       an1       an2       an3       an4
           rnh          0.48792
           an1          0.02615   4.54408
           an2          0.01537  -2.68074   6.01953
           an3         -0.02060  -0.05957  -3.20306   4.50823
           an4         -0.00946  -0.14875  -0.08094  -1.14073   2.59646
           ach          0.00024  -0.10704  -0.00172   0.00126   0.07388
           anh          0.00001   0.02434  -0.09630   0.00992   0.00177
                          ach       anh
           ach          0.31998
           anh         -0.00031   0.32055
 ITU=  1  1  0
     Eigenvalues ---   -0.00140   0.14716   0.27243   0.32383   0.37681
     Eigenvalues ---    0.40549   0.48708   0.69244   1.20942   2.97470
     Eigenvalues ---    5.06962   9.63698
 RFO step:  Lambda=-1.53261812D-03 EMin=-1.39868351D-03
 I=     1 Eig=   -1.40D-03 Dot1=  2.63D-04
 I=     1 Stepn=  6.00D-01 RXN=   6.00D-01 EDone=F
 Mixed    1 eigenvectors in step.  Raw Step.Grad=  2.63D-04.
 RFO eigenvector is Hessian eigenvector with negative curvature.
 Taking step of  6.00D-01 in eigenvector direction(s).  Step.Grad=  1.13D-03.
 Quartic linear search produced a step of -0.03884.
 Maximum step size (   0.505) exceeded in Quadratic search.
    -- Step size scaled by   0.841
 Variable       Old X    -DE/DX   Delta X   Delta X   Delta X     New X
                                 (Linear)    (Quad)   (Total)
   rn1        2.39744   0.00200  -0.00040   0.24659   0.24619   2.64364
   rn2        2.67013  -0.00037  -0.00191   0.15259   0.15068   2.82081
   rn3        2.23123   0.00256  -0.00072  -0.05054  -0.05126   2.17996
   rn4        1.80239   0.00109   0.00038  -0.22549  -0.22511   1.57729
   rch        2.05343  -0.00055  -0.00006  -0.00133  -0.00140   2.05203
   rnh        1.92545  -0.00034  -0.00016   0.00110   0.00094   1.92639
   an1        1.27071  -0.00826   0.00012  -0.10788  -0.10776   1.16295
   an2        2.34180  -0.00458   0.00039  -0.19921  -0.19882   2.14297
   an3        3.38393   0.00681   0.00073  -0.23049  -0.22977   3.15416
   an4        4.78769   0.00067   0.00038  -0.11129  -0.11092   4.67678
   ach        2.17676  -0.00020  -0.00001  -0.01125  -0.01126   2.16550
   anh        2.09848   0.00026   0.00032   0.01011   0.01043   2.10891
         Item               Value     Threshold  Converged?
 Maximum Force            0.008265     0.000450     NO 
 RMS     Force            0.003517     0.000300     NO 
 Maximum Displacement     0.246191     0.001800     NO 
 RMS     Displacement     0.145228     0.001200     NO 
 Predicted change in Energy=-4.042586D-04
 GradGradGradGradGradGradGradGradGradGradGradGradGradGradGradGradGradGrad

 ---------------------------------------------------------------------------------------------------
                            Z-MATRIX (ANGSTROMS AND DEGREES)
   CD    Cent   Atom    N1       Length/X        N2       Alpha/Y        N3        Beta/Z          J
 ---------------------------------------------------------------------------------------------------
      1         X 
      2         X        1   1.000000(     1)
      3      1  C        1   1.000000(     2)      2   90.000(     9)
      4      2  N        1   1.398951(     3)      2   90.000(    10)      3   66.632(    16)      0
      5      3  N        1   1.492709(     4)      2   90.000(    11)      3  122.783(    17)      0
      6      4  N        1   1.153587(     5)      2   90.000(    12)      3  180.720(    18)      0
      7      5  N        1   0.834663(     6)      2   90.000(    13)      3  267.960(    19)      0
      8      6  H        3   1.085890(     7)      4  124.074(    14)      5  180.000(    20)      0
      9      7  H        4   1.019401(     8)      5  120.832(    15)      6  180.000(    21)      0
 ---------------------------------------------------------------------------------------------------
                         Z-Matrix orientation:                         
 ---------------------------------------------------------------------
 Center     Atomic      Atomic             Coordinates (Angstroms)
 Number     Number       Type             X           Y           Z
 ---------------------------------------------------------------------
      1         -1           0        0.000000    0.000000    0.000000
      2         -1           0        0.000000    0.000000    1.000000
      3          6           0        1.000000    0.000000    0.000000
      4          7           0        0.554874   -1.284204    0.000000
      5          7           0       -0.808247   -1.254957    0.000000
      6          7           0       -1.153496    0.014498    0.000000
      7          7           0       -0.029717    0.834134    0.000000
      8          1           0        2.049099    0.280264    0.000000
      9          1           0        1.058442   -2.170544    0.000000
 ---------------------------------------------------------------------
                    Distance matrix (angstroms):
                    1          2          3          4          5
     1  X    0.000000
     2  X    1.000000   0.000000
     3  C    1.000000   1.414214   0.000000
     4  N    1.398951   1.719612   1.359160   0.000000
     5  N    1.492709   1.796714   2.201062   1.363435   0.000000
     6  N    1.153587   1.526684   2.153545   2.145963   1.315566
     7  N    0.834663   1.302560   1.325178   2.197522   2.229442
     8  H    2.068177   2.297250   1.085890   2.163393   3.243660
     9  H    2.414863   2.613726   2.171331   1.019401   2.079141
                    6          7          8          9
     6  N    0.000000
     7  N    1.390929   0.000000
     8  H    3.213603   2.151337   0.000000
     9  H    3.109193   3.195650   2.643457   0.000000
 Stoichiometry    CH2N4
 Framework group  CS[SG(CH2N4)]
 Deg. of freedom    11
 Full point group                 CS      NOp   2
 Largest Abelian subgroup         CS      NOp   2
 Largest concise Abelian subgroup C1      NOp   1
                         Standard orientation:                         
 ---------------------------------------------------------------------
 Center     Atomic      Atomic             Coordinates (Angstroms)
 Number     Number       Type             X           Y           Z
 ---------------------------------------------------------------------
      1          6           0        1.069356    0.234946    0.000000
      2          7           0        0.000000    1.073870    0.000000
      3          7           0       -1.130374    0.311500    0.000000
      4          7           0       -0.733601   -0.942806    0.000000
      5          7           0        0.654969   -1.023776    0.000000
      6          1           0        2.103200    0.567097    0.000000
      7          1           0       -0.056291    2.091716    0.000000
 ---------------------------------------------------------------------
 Rotational constants (GHZ):     10.2921744     10.0304994      5.0798261
 Standard basis: 6-31G(d,p) (6D, 7F)
 There are    63 symmetry adapted cartesian basis functions of A'  symmetry.
 There are    22 symmetry adapted cartesian basis functions of A"  symmetry.
 There are    63 symmetry adapted basis functions of A'  symmetry.
 There are    22 symmetry adapted basis functions of A"  symmetry.
    85 basis functions,   154 primitive gaussians,    85 cartesian basis functions
    18 alpha electrons       18 beta electrons
       nuclear repulsion energy       164.5059119562 Hartrees.
 NAtoms=    7 NActive=    7 NUniq=    7 SFac= 1.00D+00 NAtFMM=   60 NAOKFM=F Big=F
 Integral buffers will be    131072 words long.
 Raffenetti 2 integral format.
 Two-electron integral symmetry is turned on.
 One-electron integrals computed using PRISM.
 NBasis=    85 RedAO= T EigKep=  3.99D-03  NBF=    63    22
 NBsUse=    85 1.00D-06 EigRej= -1.00D+00 NBFU=    63    22
 Initial guess from the checkpoint file:  "/tmp/rdj3/g09-16833/Gau-27279.chk"
 B after Tr=     0.000000    0.000000    0.000000
         Rot=    1.000000    0.000000    0.000000    0.000912 Ang=   0.10 deg.
 Initial guess orbital symmetries:
       Occupied  (A') (A') (A') (A') (A') (A') (A') (A') (A') (A')
                 (A') (A') (A") (A') (A") (A") (A') (A')
       Virtual   (A') (A') (A') (A') (A') (A') (A') (A') (A') (A')
                 (A') (A') (A') (A') (A') (A') (A') (A') (A') (A')
                 (A') (A') (A') (A') (A') (A') (A') (A') (A') (A')
                 (A') (A') (A') (A') (A') (A') (A') (A') (A') (A')
                 (A') (A') (A') (A') (A') (A') (A') (A') (A") (A")
                 (A") (A") (A") (A") (A") (A") (A") (A") (A") (A")
                 (A") (A") (A") (A") (A") (A") (A")
 ExpMin= 1.61D-01 ExpMax= 4.17D+03 ExpMxC= 6.27D+02 IAcc=1 IRadAn=         1 AccDes= 0.00D+00
 Harris functional with IExCor=  402 and IRadAn=       1 diagonalized for initial guess.
 HarFok:  IExCor=  402 AccDes= 0.00D+00 IRadAn=         1 IDoV= 1 UseB2=F ITyADJ=14
 ICtDFT=  3500011 ScaDFX=  1.000000  1.000000  1.000000  1.000000
 FoFCou: FMM=F IPFlag=           0 FMFlag=      100000 FMFlg1=           0
         NFxFlg=           0 DoJE=T BraDBF=F KetDBF=T FulRan=T
         wScrn=  0.000000 ICntrl=     500 IOpCl=  0 I1Cent=   200000004 NGrid=           0
         NMat0=    1 NMatS0=      1 NMatT0=    0 NMatD0=    1 NMtDS0=    0 NMtDT0=    0
 Petite list used in FoFCou.
 Keep J ints in memory in symmetry-blocked form, NReq=10267916.
 Requested convergence on RMS density matrix=1.00D-08 within 128 cycles.
 Requested convergence on MAX density matrix=1.00D-06.
 Requested convergence on             energy=1.00D-06.
 No special actions if energy rises.
 Integral accuracy reduced to 1.0D-05 until final iterations.
 Initial convergence to 1.0D-05 achieved.  Increase integral accuracy.
 SCF Done:  E(RB-LYP) =  -258.202880558     A.U. after   13 cycles
            NFock= 13  Conv=0.38D-08     -V/T= 2.0092
 Calling FoFJK, ICntrl=      2527 FMM=F ISym2X=1 I1Cent= 0 IOpClX= 0 NMat=1 NMatS=1 NMatT=0.
 ***** Axes restored to original set *****
 -------------------------------------------------------------------
 Center     Atomic                   Forces (Hartrees/Bohr)
 Number     Number              X              Y              Z
 -------------------------------------------------------------------
      1        6           0.010979127    0.003315321    0.000000000
      2        7           0.001326506    0.004738061    0.000000000
      3        7          -0.012687179   -0.001502143    0.000000000
      4        7           0.002771176   -0.004669898    0.000000000
      5        7          -0.002318728   -0.002950962    0.000000000
      6        1           0.000534158    0.000040318    0.000000000
      7        1          -0.000605060    0.001029303    0.000000000
 -------------------------------------------------------------------
 Cartesian Forces:  Max     0.012687179 RMS     0.004164744
 -----------------------------------------------------------------------------------------------
                       Internal Coordinate Forces (Hartree/Bohr or radian)
  Cent   Atom   N1       Length/X         N2         Alpha/Y        N3         Beta/Z          J
 -----------------------------------------------------------------------------------------------
         X 
         X        1   0.000000(     1)
      1  C        1   0.011588(     2)      2   0.000000(     9)
      2  N        1  -0.005050(     3)      2   0.000000(    10)      3  -0.007630(    16)     0
      3  N        1   0.008121(     4)      2   0.000000(    11)      3   0.027813(    17)     0
      4  N        1  -0.002830(     5)      2   0.000000(    12)      3  -0.010103(    18)     0
      5  N        1  -0.002867(     6)      2   0.000000(    13)      3  -0.003821(    19)     0
      6  H        3   0.000526(     7)      4  -0.000203(    14)      5   0.000000(    20)     0
      7  H        4  -0.001194(     8)      5  -0.000034(    15)      6   0.000000(    21)     0
 -----------------------------------------------------------------------------------------------
 Internal  Forces:  Max     0.027813091 RMS     0.007534557

 GradGradGradGradGradGradGradGradGradGradGradGradGradGradGradGradGradGrad
 Berny optimization.
 Search for a local minimum.
 Step number   4 out of a maximum of   22
 All quantities printed in internal units (Hartrees-Bohrs-Radians)
 Update second derivatives using D2CorN and points    1    2    4    3
 The second derivative matrix:
                          rn1       rn2       rn3       rn4       rch
           rn1          0.65408
           rn2         -0.02116   0.61204
           rn3          0.01964  -0.00890   0.52567
           rn4          0.03239  -0.01586   0.11463   0.62728
           rch          0.00130  -0.00423  -0.00047  -0.00239   0.37771
           rnh          0.00016  -0.01174  -0.00676  -0.00586   0.00236
           an1          0.05128  -0.61989   0.12540  -0.07076   0.01979
           an2          0.72470  -0.24621  -0.66456   0.07880   0.01198
           an3         -0.04254   0.94768  -0.00681  -0.60064  -0.01495
           an4          0.04667  -0.05403   0.63776  -0.10959  -0.00913
           ach          0.04537   0.00412   0.00125   0.05072  -0.00008
           anh         -0.09814   0.05289   0.00613   0.00404  -0.00049
                          rnh       an1       an2       an3       an4
           rnh          0.48891
           an1          0.02784   4.54512
           an2          0.01624  -2.67460   6.04389
           an3         -0.02188  -0.06823  -3.19611   4.50289
           an4         -0.01113  -0.15276  -0.07744  -1.14407   2.59597
           ach          0.00008  -0.10663  -0.00087   0.00027   0.07386
           anh          0.00004   0.01955  -0.09956   0.01444   0.00228
                          ach       anh
           ach          0.32004
           anh         -0.00048   0.32087
 ITU=  0  1  1  0
 Energy rises -- skip Quadratic search.
 Quartic linear search produced a step of -0.67308.
 Variable       Old X    -DE/DX   Delta X   Delta X   Delta X     New X
                                 (Linear)    (Quad)   (Total)
   rn1        2.64364  -0.00505  -0.16571   0.00000  -0.16571   2.47793
   rn2        2.82081   0.00812  -0.10142   0.00000  -0.10142   2.71939
   rn3        2.17996  -0.00283   0.03450   0.00000   0.03450   2.21447
   rn4        1.57729  -0.00287   0.15152   0.00000   0.15152   1.72880
   rch        2.05203   0.00053   0.00094   0.00000   0.00094   2.05297
   rnh        1.92639  -0.00119  -0.00063   0.00000  -0.00063   1.92576
   an1        1.16295  -0.00763   0.07253   0.00000   0.07253   1.23548
   an2        2.14297   0.02781   0.13382   0.00000   0.13382   2.27680
   an3        3.15416  -0.01010   0.15465   0.00000   0.15465   3.30881
   an4        4.67678  -0.00382   0.07465   0.00000   0.07465   4.75143
   ach        2.16550  -0.00020   0.00758   0.00000   0.00758   2.17308
   anh        2.10891  -0.00003  -0.00702   0.00000  -0.00702   2.10189
         Item               Value     Threshold  Converged?
 Maximum Force            0.027813     0.000450     NO 
 RMS     Force            0.009389     0.000300     NO 
 Maximum Displacement     0.165705     0.001800     NO 
 RMS     Displacement     0.097750     0.001200     NO 
 Predicted change in Energy=-1.866593D-04
 GradGradGradGradGradGradGradGradGradGradGradGradGradGradGradGradGradGrad

 ---------------------------------------------------------------------------------------------------
                            Z-MATRIX (ANGSTROMS AND DEGREES)
   CD    Cent   Atom    N1       Length/X        N2       Alpha/Y        N3        Beta/Z          J
 ---------------------------------------------------------------------------------------------------
      1         X 
      2         X        1   1.000000(     1)
      3      1  C        1   1.000000(     2)      2   90.000(     9)
      4      2  N        1   1.311264(     3)      2   90.000(    10)      3   70.788(    16)      0
      5      3  N        1   1.439040(     4)      2   90.000(    11)      3  130.451(    17)      0
      6      4  N        1   1.171846(     5)      2   90.000(    12)      3  189.581(    18)      0
      7      5  N        1   0.914842(     6)      2   90.000(    13)      3  272.237(    19)      0
      8      6  H        3   1.086387(     7)      4  124.508(    14)      5  180.000(    20)      0
      9      7  H        4   1.019067(     8)      5  120.429(    15)      6  180.000(    21)      0
 ---------------------------------------------------------------------------------------------------
                         Z-Matrix orientation:                         
 ---------------------------------------------------------------------
 Center     Atomic      Atomic             Coordinates (Angstroms)
 Number     Number       Type             X           Y           Z
 ---------------------------------------------------------------------
      1         -1           0        0.000000    0.000000    0.000000
      2         -1           0        0.000000    0.000000    1.000000
      3          6           0        1.000000    0.000000    0.000000
      4          7           0        0.431496   -1.238234    0.000000
      5          7           0       -0.933644   -1.095056    0.000000
      6          7           0       -1.155500    0.195045    0.000000
      7          7           0        0.035710    0.914145    0.000000
      8          1           0        2.070381    0.185798    0.000000
      9          1           0        0.853158   -2.165972    0.000000
 ---------------------------------------------------------------------
                    Distance matrix (angstroms):
                    1          2          3          4          5
     1  X    0.000000
     2  X    1.000000   0.000000
     3  C    1.000000   1.414214   0.000000
     4  N    1.311264   1.649064   1.362506   0.000000
     5  N    1.439040   1.752380   2.222189   1.372627   0.000000
     6  N    1.171846   1.540527   2.164306   2.138421   1.309037
     7  N    0.914842   1.355336   1.328727   2.188466   2.230814
     8  H    2.078701   2.306729   1.086387   2.171132   3.265693
     9  H    2.327942   2.533637   2.170944   1.019067   2.083152
                    6          7          8          9
     6  N    0.000000
     7  N    1.391433   0.000000
     8  H    3.225894   2.161106   0.000000
     9  H    3.099856   3.186745   2.648104   0.000000
 Stoichiometry    CH2N4
 Framework group  CS[SG(CH2N4)]
 Deg. of freedom    11
 Full point group                 CS      NOp   2
 Largest Abelian subgroup         CS      NOp   2
 Largest concise Abelian subgroup C1      NOp   1
                         Standard orientation:                         
 ---------------------------------------------------------------------
 Center     Atomic      Atomic             Coordinates (Angstroms)
 Number     Number       Type             X           Y           Z
 ---------------------------------------------------------------------
      1          6           0        1.080826    0.239240    0.000000
      2          7           0        0.000000    1.068840    0.000000
      3          7           0       -1.140393    0.304897    0.000000
      4          7           0       -0.734294   -0.939556    0.000000
      5          7           0        0.654849   -1.019354    0.000000
      6          1           0        2.114140    0.574649    0.000000
      7          1           0       -0.060232    2.086125    0.000000
 ---------------------------------------------------------------------
 Rotational constants (GHZ):     10.2481751     10.0202309      5.0664606
 Standard basis: 6-31G(d,p) (6D, 7F)
 There are    63 symmetry adapted cartesian basis functions of A'  symmetry.
 There are    22 symmetry adapted cartesian basis functions of A"  symmetry.
 There are    63 symmetry adapted basis functions of A'  symmetry.
 There are    22 symmetry adapted basis functions of A"  symmetry.
    85 basis functions,   154 primitive gaussians,    85 cartesian basis functions
    18 alpha electrons       18 beta electrons
       nuclear repulsion energy       164.2992947120 Hartrees.
 NAtoms=    7 NActive=    7 NUniq=    7 SFac= 1.00D+00 NAtFMM=   60 NAOKFM=F Big=F
 Integral buffers will be    131072 words long.
 Raffenetti 2 integral format.
 Two-electron integral symmetry is turned on.
 One-electron integrals computed using PRISM.
 NBasis=    85 RedAO= T EigKep=  4.03D-03  NBF=    63    22
 NBsUse=    85 1.00D-06 EigRej= -1.00D+00 NBFU=    63    22
 Lowest energy guess from the checkpoint file:  "/tmp/rdj3/g09-16833/Gau-27279.chk"
 B after Tr=     0.000000    0.000000    0.000000
         Rot=    1.000000    0.000000    0.000000   -0.000026 Ang=   0.00 deg.
 B after Tr=     0.000000    0.000000    0.000000
         Rot=    1.000000    0.000000    0.000000   -0.000936 Ang=  -0.11 deg.
 Initial guess orbital symmetries:
       Occupied  (A') (A') (A') (A') (A") (A') (A') (A") (A') (A')
                 (A") (A') (A') (A') (A') (A') (A') (A')
       Virtual   (A') (A') (A') (A') (A") (A') (A') (A") (A') (A')
                 (A") (A') (A') (A') (A') (A') (A') (A') (A') (A')
                 (A') (A') (A') (A') (A') (A') (A') (A') (A') (A')
                 (A') (A') (A') (A') (A') (A') (A') (A') (A') (A')
                 (A') (A') (A') (A') (A') (A') (A') (A') (A") (A")
                 (A") (A") (A") (A") (A") (A") (A") (A") (A") (A")
                 (A") (A") (A") (A") (A") (A") (A")
 Keep J ints in memory in symmetry-blocked form, NReq=10267916.
 Requested convergence on RMS density matrix=1.00D-08 within 128 cycles.
 Requested convergence on MAX density matrix=1.00D-06.
 Requested convergence on             energy=1.00D-06.
 No special actions if energy rises.
 Integral accuracy reduced to 1.0D-05 until final iterations.
 An orbital has undefined symmetry, so N**3 symmetry is turned off.
 Initial convergence to 1.0D-05 achieved.  Increase integral accuracy.
 SCF Done:  E(RB-LYP) =  -258.203211185     A.U. after   11 cycles
            NFock= 11  Conv=0.69D-08     -V/T= 2.0093
 Calling FoFJK, ICntrl=      2527 FMM=F ISym2X=1 I1Cent= 0 IOpClX= 0 NMat=1 NMatS=1 NMatT=0.
 ***** Axes restored to original set *****
 -------------------------------------------------------------------
 Center     Atomic                   Forces (Hartrees/Bohr)
 Number     Number              X              Y              Z
 -------------------------------------------------------------------
      1        6          -0.000751146   -0.001111417    0.000000000
      2        7           0.002573469    0.000758828    0.000000000
      3        7          -0.001756484   -0.000719670    0.000000000
      4        7           0.000917639    0.001054915    0.000000000
      5        7          -0.000471702   -0.000484070    0.000000000
      6        1          -0.000244087   -0.000031122    0.000000000
      7        1          -0.000267689    0.000532536    0.000000000
 -------------------------------------------------------------------
 Cartesian Forces:  Max     0.002573469 RMS     0.000857147
 -----------------------------------------------------------------------------------------------
                       Internal Coordinate Forces (Hartree/Bohr or radian)
  Cent   Atom   N1       Length/X         N2         Alpha/Y        N3         Beta/Z          J
 -----------------------------------------------------------------------------------------------
         X 
         X        1   0.000000(     1)
      1  C        1  -0.001003(     2)      2   0.000000(     9)
      2  N        1  -0.000439(     3)      2   0.000000(    10)      3  -0.006446(    16)     0
      3  N        1   0.001673(     4)      2   0.000000(    11)      3   0.002392(    17)     0
      4  N        1  -0.000729(     5)      2   0.000000(    12)      3   0.002642(    18)     0
      5  N        1  -0.000502(     6)      2   0.000000(    13)      3  -0.000782(    19)     0
      6  H        3  -0.000246(     7)      4   0.000023(    14)      5   0.000000(    20)     0
      7  H        4  -0.000596(     8)      5  -0.000045(    15)      6   0.000000(    21)     0
 -----------------------------------------------------------------------------------------------
 Internal  Forces:  Max     0.006445834 RMS     0.001691141

 GradGradGradGradGradGradGradGradGradGradGradGradGradGradGradGradGradGrad
 Berny optimization.
 Search for a local minimum.
 Step number   5 out of a maximum of   22
 All quantities printed in internal units (Hartrees-Bohrs-Radians)
 Update second derivatives using D2CorN and points    1    2    3    5
 The second derivative matrix:
                          rn1       rn2       rn3       rn4       rch
           rn1          0.66144
           rn2         -0.01679   0.61435
           rn3          0.02998   0.00362   0.53516
           rn4          0.03467  -0.01000   0.11339   0.62425
           rch          0.00170  -0.00394   0.00133  -0.00141   0.37774
           rnh          0.00157  -0.01040  -0.00399  -0.00495   0.00254
           an1          0.04199  -0.63003   0.11863  -0.06899   0.01814
           an2          0.71771  -0.25077  -0.67087   0.07907   0.01146
           an3         -0.03793   0.95728  -0.00878  -0.60561  -0.01310
           an4          0.04660  -0.05277   0.63319  -0.11311  -0.00904
           ach          0.04451   0.00334   0.00046   0.05080  -0.00016
           anh         -0.09774   0.05304   0.00579   0.00350  -0.00053
                          rnh       an1       an2       an3       an4
           rnh          0.48932
           an1          0.02540   4.54855
           an2          0.01503  -2.66900   6.04970
           an3         -0.02010  -0.06387  -3.19605   4.49302
           an4         -0.01139  -0.14940  -0.07653  -1.14935   2.59434
           ach         -0.00009  -0.10590  -0.00018   0.00027   0.07410
           anh         -0.00002   0.01939  -0.10003   0.01398   0.00210
                          ach       anh
           ach          0.32011
           anh         -0.00048   0.32089
 ITU=  0  0  1  1  0
     Eigenvalues ---    0.00081   0.15747   0.27671   0.32637   0.37772
     Eigenvalues ---    0.40907   0.48890   0.70666   1.20910   2.97133
     Eigenvalues ---    5.06764   9.63711
 RFO step:  Lambda=-1.24313020D-05 EMin= 8.10380265D-04
 Quartic linear search produced a step of -0.03056.
 Variable       Old X    -DE/DX   Delta X   Delta X   Delta X     New X
                                 (Linear)    (Quad)   (Total)
   rn1        2.47793  -0.00044  -0.00246   0.00564   0.00318   2.48111
   rn2        2.71939   0.00167  -0.00151   0.00525   0.00375   2.72314
   rn3        2.21447  -0.00073   0.00051  -0.00231  -0.00180   2.21267
   rn4        1.72880  -0.00050   0.00225  -0.00639  -0.00414   1.72466
   rch        2.05297  -0.00025   0.00001  -0.00058  -0.00057   2.05241
   rnh        1.92576  -0.00060  -0.00001  -0.00113  -0.00114   1.92462
   an1        1.23548  -0.00645   0.00108  -0.00394  -0.00286   1.23262
   an2        2.27680   0.00239   0.00199  -0.00506  -0.00308   2.27372
   an3        3.30881   0.00264   0.00230  -0.00573  -0.00343   3.30538
   an4        4.75143  -0.00078   0.00111  -0.00290  -0.00179   4.74964
   ach        2.17308   0.00002   0.00011  -0.00040  -0.00029   2.17279
   anh        2.10189  -0.00004  -0.00010  -0.00022  -0.00033   2.10156
         Item               Value     Threshold  Converged?
 Maximum Force            0.006446     0.000450     NO 
 RMS     Force            0.002218     0.000300     NO 
 Maximum Displacement     0.004139     0.001800     NO 
 RMS     Displacement     0.002566     0.001200     NO 
 Predicted change in Energy=-6.257875D-06
 GradGradGradGradGradGradGradGradGradGradGradGradGradGradGradGradGradGrad

 ---------------------------------------------------------------------------------------------------
                            Z-MATRIX (ANGSTROMS AND DEGREES)
   CD    Cent   Atom    N1       Length/X        N2       Alpha/Y        N3        Beta/Z          J
 ---------------------------------------------------------------------------------------------------
      1         X 
      2         X        1   1.000000(     1)
      3      1  C        1   1.000000(     2)      2   90.000(     9)
      4      2  N        1   1.312947(     3)      2   90.000(    10)      3   70.624(    16)      0
      5      3  N        1   1.441025(     4)      2   90.000(    11)      3  130.275(    17)      0
      6      4  N        1   1.170893(     5)      2   90.000(    12)      3  189.384(    18)      0
      7      5  N        1   0.912652(     6)      2   90.000(    13)      3  272.134(    19)      0
      8      6  H        3   1.086088(     7)      4  124.492(    14)      5  180.000(    20)      0
      9      7  H        4   1.018463(     8)      5  120.411(    15)      6  180.000(    21)      0
 ---------------------------------------------------------------------------------------------------
                         Z-Matrix orientation:                         
 ---------------------------------------------------------------------
 Center     Atomic      Atomic             Coordinates (Angstroms)
 Number     Number       Type             X           Y           Z
 ---------------------------------------------------------------------
      1         -1           0        0.000000    0.000000    0.000000
      2         -1           0        0.000000    0.000000    1.000000
      3          6           0        1.000000    0.000000    0.000000
      4          7           0        0.435593   -1.238583    0.000000
      5          7           0       -0.931553   -1.099436    0.000000
      6          7           0       -1.155222    0.190924    0.000000
      7          7           0        0.033989    0.912019    0.000000
      8          1           0        2.069608    0.188478    0.000000
      9          1           0        0.859546   -2.164613    0.000000
 ---------------------------------------------------------------------
                    Distance matrix (angstroms):
                    1          2          3          4          5
     1  X    0.000000
     2  X    1.000000   0.000000
     3  C    1.000000   1.414214   0.000000
     4  N    1.312947   1.650403   1.361118   0.000000
     5  N    1.441025   1.754010   2.222534   1.374209   0.000000
     6  N    1.170893   1.539802   2.163663   2.138734   1.309602
     7  N    0.912652   1.353859   1.328516   2.187778   2.231193
     8  H    2.078173   2.306253   1.086088   2.169449   3.265838
     9  H    2.329027   2.534634   2.169165   1.018463   2.083900
                    6          7          8          9
     6  N    0.000000
     7  N    1.390756   0.000000
     8  H    3.224832   2.160384   0.000000
     9  H    3.099652   3.185468   2.645995   0.000000
[...]
 Octapole moment (field-independent basis, Debye-Ang**2):
  XXX=             10.8514  YYY=             21.5530  ZZZ=              0.0000  XYY=             -0.6678
  XXY=              4.2955  XXZ=              0.0000  XZZ=             -0.6286  YZZ=              0.4335
  YYZ=              0.0000  XYZ=              0.0000
 Hexadecapole moment (field-independent basis, Debye-Ang**3):
 XXXX=           -146.1888 YYYY=           -122.6448 ZZZZ=            -24.4110 XXXY=              6.3219
 XXXZ=              0.0000 YYYX=             -0.6824 YYYZ=              0.0000 ZZZX=              0.0000
 ZZZY=              0.0000 XXYY=            -54.2143 XXZZ=            -30.6706 YYZZ=            -28.9500
 XXYZ=              0.0000 YYXZ=              0.0000 ZZXY=             -0.1832
 N-N= 1.643061614070D+02 E-N=-9.306129708764D+02  KE= 2.558252577684D+02
 Symmetry A'   KE= 2.463130016318D+02
 Symmetry A"   KE= 9.512256136570D+00
  Exact polarizability:  39.366   1.128  39.152   0.000   0.000  15.793
 Approx polarizability:  86.397   0.134  93.269   0.000   0.000  28.036
 Calling FoFJK, ICntrl=    100527 FMM=F ISym2X=1 I1Cent= 0 IOpClX= 0 NMat=1 NMatS=1 NMatT=0.
 Full mass-weighted force constant matrix:
 Low frequencies ---   -5.7358   -1.9775   -0.0007   -0.0002    0.0008    9.2792
 Low frequencies ---  532.0935  661.6383  702.7073
 Diagonal vibrational polarizability:
        1.2200976       1.1340414       9.1192038
 Harmonic frequencies (cm**-1), IR intensities (KM/Mole), Raman scattering
 activities (A**4/AMU), depolarization ratios for plane and unpolarized
 incident light, reduced masses (AMU), force constants (mDyne/A),
 and normal coordinates:
                      1                      2                      3
                     A"                     A"                     A"
 Frequencies --    532.0935               661.6382               702.7073
 Red. masses --      1.7432                 2.0543                 8.3586
 Frc consts  --      0.2908                 0.5299                 2.4318
 IR Inten    --     78.4953                 7.8900                 7.2518
  Atom  AN      X      Y      Z        X      Y      Z        X      Y      Z
     1   6     0.00   0.00  -0.09     0.00   0.00   0.18     0.00   0.00  -0.12
     2   7     0.00   0.00   0.21     0.00   0.00  -0.11     0.00   0.00  -0.11
     3   7     0.00   0.00  -0.08     0.00   0.00   0.11     0.00   0.00   0.42
     4   7     0.00   0.00   0.01     0.00   0.00   0.03     0.00   0.00  -0.50
     5   7     0.00   0.00   0.02     0.00   0.00  -0.17     0.00   0.00   0.34
     6   1     0.00   0.00  -0.16     0.00   0.00   0.54     0.00   0.00  -0.04
     7   1     0.00   0.00  -0.96     0.00   0.00  -0.79     0.00   0.00  -0.66
                      4                      5                      6
                     A"                     A'                     A'
 Frequencies --    805.5410               890.3509               936.6798
 Red. masses --      1.3331                 6.7580                 4.6387
 Frc consts  --      0.5097                 3.1564                 2.3979
 IR Inten    --     18.7570                 7.1753                 9.8812
  Atom  AN      X      Y      Z        X      Y      Z        X      Y      Z
     1   6     0.00   0.00   0.17    -0.01   0.11   0.00    -0.12  -0.01   0.00
     2   7     0.00   0.00  -0.02     0.13   0.10   0.00     0.20   0.31   0.00
     3   7     0.00   0.00   0.01     0.10  -0.14   0.00    -0.24  -0.22   0.00
     4   7     0.00   0.00  -0.02     0.27  -0.18   0.00    -0.02   0.01   0.00
     5   7     0.00   0.00  -0.02    -0.49   0.17   0.00     0.11  -0.09   0.00
     6   1     0.00   0.00  -0.98     0.24  -0.68   0.00     0.02  -0.41   0.00
     7   1     0.00   0.00  -0.10    -0.15   0.08   0.00     0.66   0.35   0.00
                      7                      8                      9
                     A'                     A'                     A'
 Frequencies --    968.0974              1005.8506              1104.9101
 Red. masses --      7.6142                 3.5355                 1.9610
 Frc consts  --      4.2045                 2.1075                 1.4106
 IR Inten    --      4.8352                21.7906                16.5374
  Atom  AN      X      Y      Z        X      Y      Z        X      Y      Z
     1   6     0.40   0.11   0.00    -0.06  -0.03   0.00     0.10  -0.12   0.00
     2   7     0.16  -0.13   0.00    -0.06   0.23   0.00    -0.12   0.02   0.00
     3   7    -0.14  -0.20   0.00     0.28  -0.05   0.00    -0.10   0.01   0.00
     4   7    -0.40  -0.05   0.00    -0.19  -0.09   0.00     0.11   0.13   0.00
     5   7     0.02   0.31   0.00     0.07  -0.05   0.00     0.04   0.00   0.00
     6   1     0.53  -0.23   0.00     0.04  -0.36   0.00     0.32  -0.78   0.00
     7   1    -0.32  -0.16   0.00    -0.80   0.19   0.00    -0.45   0.00   0.00
                     10                     11                     12
                     A'                     A'                     A'
 Frequencies --   1193.6744              1210.1108              1392.5921
 Red. masses --      3.8159                 3.3685                 2.9570
 Frc consts  --      3.2034                 2.9063                 3.3787
 IR Inten    --     14.9504                 0.6546                 8.4327
  Atom  AN      X      Y      Z        X      Y      Z        X      Y      Z
     1   6     0.00   0.01   0.00     0.25   0.06   0.00    -0.17   0.23   0.00
     2   7     0.07  -0.03   0.00     0.02   0.14   0.00     0.19  -0.13   0.00
     3   7     0.07  -0.26   0.00    -0.15   0.10   0.00    -0.06   0.09   0.00
     4   7     0.02   0.34   0.00     0.03  -0.13   0.00     0.00   0.00   0.00
     5   7    -0.11  -0.10   0.00    -0.07  -0.22   0.00     0.07  -0.10   0.00
     6   1    -0.20   0.64   0.00     0.09   0.65   0.00     0.05  -0.53   0.00
     7   1    -0.57  -0.08   0.00    -0.60   0.12   0.00    -0.72  -0.22   0.00
                     13                     14                     15
                     A'                     A'                     A'
 Frequencies --   1436.5741              3214.9309              3540.4791
 Red. masses --      3.0569                 1.0985                 1.0830
 Frc consts  --      3.7170                 6.6896                 7.9987
 IR Inten    --     15.0464                 0.3086                54.0594
  Atom  AN      X      Y      Z        X      Y      Z        X      Y      Z
     1   6     0.10   0.28   0.00     0.09   0.03   0.00     0.01   0.00   0.00
     2   7    -0.16  -0.02   0.00     0.00   0.00   0.00    -0.01   0.08   0.00
     3   7     0.09  -0.06   0.00     0.00   0.00   0.00     0.00   0.00   0.00
     4   7    -0.05   0.06   0.00     0.00   0.00   0.00     0.00   0.00   0.00
     5   7    -0.04  -0.19   0.00     0.00   0.00   0.00     0.00   0.00   0.00
     6   1     0.36  -0.42   0.00    -0.95  -0.30   0.00    -0.02   0.00   0.00
     7   1     0.72   0.03   0.00     0.01   0.02   0.00     0.06  -0.99   0.00

 -------------------
 - Thermochemistry -
 -------------------
 Temperature   298.150 Kelvin.  Pressure   1.00000 Atm.
 Atom     1 has atomic number  6 and mass  12.00000
 Atom     2 has atomic number  7 and mass  14.00307
 Atom     3 has atomic number  7 and mass  14.00307
 Atom     4 has atomic number  7 and mass  14.00307
 Atom     5 has atomic number  7 and mass  14.00307
 Atom     6 has atomic number  1 and mass   1.00783
 Atom     7 has atomic number  1 and mass   1.00783
 Molecular mass:    70.02795 amu.
 Principal axes and moments of inertia in atomic units:
                           1         2         3
     Eigenvalues --   176.25729 179.91176 356.16905
           X            0.91168   0.41089   0.00000
           Y           -0.41089   0.91168   0.00000
           Z            0.00000   0.00000   1.00000
 This molecule is an asymmetric top.
 Rotational symmetry number  1.
 Rotational temperatures (Kelvin)      0.49141     0.48142     0.24318
 Rotational constants (GHZ):          10.23924    10.03126     5.06709
 Zero-point vibrational energy     117211.5 (Joules/Mol)
                                   28.01422 (Kcal/Mol)
 Warning -- explicit consideration of   1 degrees of freedom as
           vibrations may cause significant error
 Vibrational temperatures:    765.56   951.95  1011.04  1158.99  1281.01
          (Kelvin)           1347.67  1392.87  1447.19  1589.72  1717.43
                             1741.08  2003.63  2066.91  4625.56  5093.95
 
 Zero-point correction=                           0.044643 (Hartree/Particle)
 Thermal correction to Energy=                    0.048247
 Thermal correction to Enthalpy=                  0.049192
 Thermal correction to Gibbs Free Energy=         0.018461
 Sum of electronic and zero-point Energies=           -258.158581
 Sum of electronic and thermal Energies=              -258.154977
 Sum of electronic and thermal Enthalpies=            -258.154033
 Sum of electronic and thermal Free Energies=         -258.184764
 
                     E (Thermal)             CV                S
                      KCal/Mol        Cal/Mol-Kelvin    Cal/Mol-Kelvin
 Total                   30.276             12.145             64.679
 Electronic               0.000              0.000              0.000
 Translational            0.889              2.981             38.656
 Rotational               0.889              2.981             23.939
 Vibrational             28.498              6.184              2.084
 Vibration     1          0.887              1.179              0.583
                       Q            Log10(Q)             Ln(Q)
 Total Bot       0.322642D-08         -8.491279        -19.551892
 Total V=0       0.110474D+13         12.043260         27.730631
 Vib (Bot)       0.368198D-20        -20.433919        -47.050837
 Vib (Bot)    1  0.299979D+00         -0.522909         -1.204042
 Vib (V=0)       0.126072D+01          0.100620          0.231686
 Vib (V=0)    1  0.108308D+01          0.034662          0.079813
 Electronic      0.100000D+01          0.000000          0.000000
 Translational   0.230336D+08          7.362362         16.952466
 Rotational      0.380433D+05          4.580278         10.546479
 ***** Axes restored to original set *****
 -------------------------------------------------------------------
 Center     Atomic                   Forces (Hartrees/Bohr)
 Number     Number              X              Y              Z
 -------------------------------------------------------------------
      1        6           0.000025242    0.000009242    0.000000000
      2        7          -0.000020773    0.000009286    0.000000000
      3        7          -0.000024837   -0.000022945    0.000000000
      4        7           0.000078735   -0.000018274    0.000000000
      5        7          -0.000053784    0.000025511    0.000000000
      6        1           0.000000235    0.000000812    0.000000000
      7        1          -0.000004818   -0.000003631    0.000000000
 -------------------------------------------------------------------
 Cartesian Forces:  Max     0.000078735 RMS     0.000024395
 -----------------------------------------------------------------------------------------------
                       Internal Coordinate Forces (Hartree/Bohr or radian)
  Cent   Atom   N1       Length/X         N2         Alpha/Y        N3         Beta/Z          J
 -----------------------------------------------------------------------------------------------
         X 
         X        1   0.000000(     1)
      1  C        1   0.000025(     2)      2   0.000000(     9)
      2  N        1  -0.000010(     3)      2   0.000000(    10)      3   0.000059(    16)     0
      3  N        1   0.000030(     4)      2   0.000000(    11)      3   0.000020(    17)     0
      4  N        1  -0.000081(     5)      2   0.000000(    12)      3  -0.000015(    18)     0
      5  N        1   0.000024(     6)      2   0.000000(    13)      3  -0.000093(    19)     0
      6  H        3   0.000000(     7)      4   0.000002(    14)      5   0.000000(    20)     0
      7  H        4   0.000001(     8)      5  -0.000011(    15)      6   0.000000(    21)     0
 -----------------------------------------------------------------------------------------------
 Internal  Forces:  Max     0.000092618 RMS     0.000031975

 GradGradGradGradGradGradGradGradGradGradGradGradGradGradGradGradGradGrad
 Berny optimization.
 Search for a local minimum.
 Step number   1 out of a maximum of    2
 All quantities printed in internal units (Hartrees-Bohrs-Radians)
 Second derivative matrix not updated -- analytic derivatives used.
 The second derivative matrix:
                          rn1       rn2       rn3       rn4       rch
           rn1          0.53139
           rn2         -0.05560   0.51251
           rn3          0.06224  -0.03010   0.47283
           rn4          0.09464   0.07302  -0.01560   0.49549
           rch         -0.00247  -0.00175   0.00054  -0.00281   0.36268
           rnh          0.01205  -0.00812  -0.00025   0.00007   0.00035
           an1          0.13539  -0.29729  -0.21458   0.13179   0.01391
           an2          0.18946  -0.11291  -0.32603  -0.15814   0.00454
           an3          0.21814   0.41312   0.20636  -0.19694  -0.00224
           an4         -0.11092   0.14437   0.22082  -0.16913  -0.01482
           ach          0.03474   0.01179  -0.01374   0.02695   0.00279
           anh         -0.04895   0.01557   0.02609  -0.02081  -0.00113
                          rnh       an1       an2       an3       an4
           rnh          0.44504
           an1         -0.01364   2.32666
           an2          0.01292  -0.85632   2.60080
           an3          0.00287  -0.35240  -1.27161   1.93817
           an4         -0.00442  -0.23698  -0.19885  -0.18763   1.11259
           ach          0.00067   0.00361  -0.02229  -0.00819   0.07849
           anh         -0.00188  -0.02239  -0.02385   0.01245  -0.00422
                          ach       anh
           ach          0.20422
           anh          0.00039   0.19631
 ITU=  0
     Eigenvalues ---    0.00007   0.14657   0.19668   0.25329   0.36273
     Eigenvalues ---    0.44416   0.56347   0.59588   0.72074   1.40527
     Eigenvalues ---    2.71036   3.79945
 Angle between quadratic step and forces=  85.08 degrees.
 Linear search not attempted -- first point.
 Variable       Old X    -DE/DX   Delta X   Delta X   Delta X     New X
                                 (Linear)    (Quad)   (Total)
   rn1        2.50214  -0.00001   0.00000   0.08279   0.08279   2.58493
   rn2        2.74026   0.00003   0.00000   0.06819   0.06819   2.80845
   rn3        2.20793  -0.00008   0.00000  -0.01271  -0.01271   2.19522
   rn4        1.70240   0.00002   0.00000  -0.08808  -0.08808   1.61433
   rch        2.05237   0.00000   0.00000   0.00001   0.00001   2.05238
   rnh        1.92433   0.00000   0.00000   0.00000   0.00000   1.92433
   an1        1.22240   0.00006   0.00000  -0.03455  -0.03455   1.18785
   an2        2.25702   0.00002   0.00000  -0.06692  -0.06692   2.19009
   an3        3.28435  -0.00002   0.00000  -0.08604  -0.08604   3.19831
   an4        4.73737  -0.00009   0.00000  -0.04538  -0.04538   4.69199
   ach        2.17348   0.00000   0.00000   0.00005   0.00005   2.17353
   anh        2.10146  -0.00001   0.00000  -0.00006  -0.00006   2.10140
         Item               Value     Threshold  Converged?
 Maximum Force            0.000093     0.000450     YES
 RMS     Force            0.000042     0.000300     YES
 Maximum Displacement     0.088076     0.001800     NO 
 RMS     Displacement     0.053665     0.001200     NO 
 Predicted change in Energy=-1.150189D-06
 GradGradGradGradGradGradGradGradGradGradGradGradGradGradGradGradGradGrad

 1\1\GINC-N353\Freq\RBLYP\6-31G(d,p)\C1H2N4\RDJ3\25-Nov-2013\1\\#N Geom
 =AllCheck Guess=TCheck SCRF=Check GenChk RBLYP/6-31G(d,p) Freq\\1H-tet
 razole CH2N4 casno=288948 state=1 config=1 method=13 basis=3\\0,1\X\X,
 1,1.\C,1,1.,2,90.\N,1,rn1,2,90.,3,an1,0\N,1,rn2,2,90.,3,an2,0\N,1,rn3,
 2,90.,3,an3,0\N,1,rn4,2,90.,3,an4,0\H,3,rch,4,ach,5,180.,0\H,4,rnh,5,a
 nh,6,180.,0\\rn1=1.32407488\rn2=1.450083\rn3=1.16838736\rn4=0.90087344
 \rch=1.0860688\rnh=1.01831209\an1=70.03839094\an2=129.31759725\an3=188
 .17927856\an4=271.43103448\ach=124.53130004\anh=120.40482525\\Version=
 EM64L-G09RevD.01\State=1-A'\HF=-258.2032242\RMSD=3.532e-09\RMSF=2.440e
 -05\ZeroPoint=0.0446435\Thermal=0.0482474\Dipole=1.6860547,-1.1328367,
 0.\DipoleDeriv=0.183571,0.06426,0.,-0.0979851,0.427564,0.,0.,0.,0.0870
 967,-0.2483687,0.2561139,0.,0.192881,-0.2527243,0.,0.,0.,-0.1374859,0.
 1827793,-0.3482223,0.,-0.3120876,-0.2053038,0.,0.,0.,-0.0969099,0.0051
 074,0.145328,0.,0.2314684,0.0108081,0.,0.,0.,-0.1478675,-0.3349096,-0.
 1099714,0.,-0.0214995,-0.3074299,0.,0.,0.,-0.1894692,0.033145,-0.00164
 11,0.,0.0068325,0.1095536,0.,0.,0.,0.1541914,0.1786755,-0.0058673,0.,0
 .0003903,0.2175323,0.,0.,0.,0.3304444\Polar=40.2682427,-0.5154536,38.2
 491963,0.,0.,15.7929822\PG=CS [SG(C1H2N4)]\NImag=0\\0.87670292,0.03949
 209,0.55578121,0.,0.,0.12295498,-0.14294576,-0.05513923,0.,0.50506839,
 -0.08971121,-0.26266404,0.,-0.12689628,0.90348491,0.,0.,-0.05275450,0.
 ,0.,0.07810992,-0.07930224,-0.09003047,0.,-0.17010577,-0.04089809,0.,0
 .37267637,-0.00121614,-0.02607135,0.,-0.01322717,-0.09651688,0.,0.0741
 0905,0.50153223,0.,0.,0.01826272,0.,0.,-0.05981398,0.,0.,0.10259901,-0
 .11188038,0.05511355,0.,-0.07971370,0.03639359,0.,-0.10457735,0.002447
 15,0.,0.44498478,-0.03475885,0.02502673,0.,0.10400735,-0.07989259,0.,0
 .05972222,-0.27895164,0.,-0.10026764,0.42545856,0.,0.,0.01711990,0.,0.
 ,0.02332802,0.,0.,-0.08731822,0.,0.,0.11243184,-0.22289108,0.11896436,
 0.,0.01557237,0.08434117,0.,-0.02089159,-0.09605838,0.,-0.13538324,-0.
 03320534,0.,0.37898550,0.12345730,-0.22696560,0.,-0.01673001,-0.092182
 63,0.,-0.00180862,-0.09865798,0.,0.00613506,-0.08970684,0.,-0.09646876
 ,0.50038474,0.,0.,-0.07057536,0.,0.,0.01899096,0.,0.,0.03224640,0.,0.,
 -0.08139838,0.,0.,0.09908863,-0.33514746,-0.05823970,0.,-0.00081429,0.
 00189837,0.,-0.00009982,0.00322091,0.,-0.00185793,-0.00039844,0.,-0.01
 287444,-0.00489707,0.,0.35121224,-0.05410525,-0.06217991,0.,-0.0312592
 0,-0.00001030,0.,-0.00059514,-0.00639286,0.,0.00612961,-0.00286559,0.,
 0.02074645,0.01185904,0.,0.05892925,0.05994671,0.,0.,-0.02542588,0.,0.
 ,-0.00332582,0.,0.,0.00557620,0.,0.,0.00844391,0.,0.,-0.00522818,0.,0.
 ,0.02053958,0.01546400,-0.01016060,0.,-0.12706123,0.13487244,0.,0.0023
 0040,0.03072457,0.,-0.01157217,0.00490070,0.,-0.00251752,-0.00968791,0
 .,-0.00041830,0.00015428,0.,0.12380483,0.01684206,-0.00292705,0.,0.139
 24455,-0.37221848,0.,-0.00049896,0.00505847,0.,-0.00595133,0.00093137,
 0.,0.00168050,-0.00473074,0.,-0.00051333,-0.00035710,0.,-0.15080348,0.
 37424352,0.,0.,-0.00958187,0.,0.,-0.00453460,0.,0.,-0.01155213,0.,0.,0
 .00739293,0.,0.,0.00687593,0.,0.,-0.00057980,0.,0.,0.01197954\\-0.0000
 2524,-0.00000924,0.,0.00002077,-0.00000929,0.,0.00002484,0.00002294,0.
 ,-0.00007874,0.00001827,0.,0.00005378,-0.00002551,0.,-0.00000023,-0.00
 000081,0.,0.00000482,0.00000363,0.\\\@


 THESE ARE THE TIMES THAT TRY MENS SOULS.
 THE SUMMER SOLDIER AND THE SUNSHINE PATRIOT WILL IN THIS CRISIS,
 SHRINK FROM THE SERVICE OF HIS COUNTRY.  BUT HE THAT STANDS NOW,
 DESERVES THE LOVE AND THANKS OF MAN AND WOMAN.
 TYRANNY, LIKE HELL, IS NOT EASILY CONQUERED,
 YET WE HAVE THIS CONSOLATION WITH US,
 THAT THE HARDER THE CONFLICT, THE MORE GLORIOUS THE TRIUMPH.
 WHAT WE OBTAIN TOO CHEAP, WE ESTEEM TOO LIGHTLY, 
 'TIS DEARNESS ONLY THAT GIVES EVERYTHING ITS VALUE.

                                              -- TOM PAINE
 Job cpu time:       0 days  0 hours  1 minutes  6.0 seconds.
 File lengths (MBytes):  RWF=     10 Int=      0 D2E=      0 Chk=      2 Scr=      1
 Normal termination of Gaussian 09 at Mon Nov 25 17:03:37 2013.
