 Entering Gaussian System, Link 0=g09
 Initial command:
 /usr/local/gaussian/g09.d01.em64t.legacy.linda/g09/l1.exe "/tmp/rdj3/g09-16833/Gau-25934.inp" -scrdir="/tmp/rdj3/g09-16833/"
 Entering Link 1 = /usr/local/gaussian/g09.d01.em64t.legacy.linda/g09/l1.exe PID=     25935.
  
 Copyright (c) 1988,1990,1992,1993,1995,1998,2003,2009,2013,
            Gaussian, Inc.  All Rights Reserved.
  
 This is part of the Gaussian(R) 09 program.  It is based on
 the Gaussian(R) 03 system (copyright 2003, Gaussian, Inc.),
 the Gaussian(R) 98 system (copyright 1998, Gaussian, Inc.),
 the Gaussian(R) 94 system (copyright 1995, Gaussian, Inc.),
 the Gaussian 92(TM) system (copyright 1992, Gaussian, Inc.),
 the Gaussian 90(TM) system (copyright 1990, Gaussian, Inc.),
 the Gaussian 88(TM) system (copyright 1988, Gaussian, Inc.),
 the Gaussian 86(TM) system (copyright 1986, Carnegie Mellon
 University), and the Gaussian 82(TM) system (copyright 1983,
 Carnegie Mellon University). Gaussian is a federally registered
 trademark of Gaussian, Inc.
  
 This software contains proprietary and confidential information,
 including trade secrets, belonging to Gaussian, Inc.
  
 This software is provided under written license and may be
 used, copied, transmitted, or stored only in accord with that
 written license.
  
 The following legend is applicable only to US Government
 contracts under FAR:
  
                    RESTRICTED RIGHTS LEGEND
  
 Use, reproduction and disclosure by the US Government is
 subject to restrictions as set forth in subparagraphs (a)
 and (c) of the Commercial Computer Software - Restricted
 Rights clause in FAR 52.227-19.
  
 Gaussian, Inc.
 340 Quinnipiac St., Bldg. 40, Wallingford CT 06492
  
  
 ---------------------------------------------------------------
 Warning -- This program may not be used in any manner that
 competes with the business of Gaussian, Inc. or will provide
 assistance to any competitor of Gaussian, Inc.  The licensee
 of this program is prohibited from giving any competitor of
 Gaussian, Inc. access to this program.  By using this program,
 the user acknowledges that Gaussian, Inc. is engaged in the
 business of creating and licensing software in the field of
 computational chemistry and represents and warrants to the
 licensee that it is not a competitor of Gaussian, Inc. and that
 it will not use this program in any manner prohibited above.
 ---------------------------------------------------------------
  

 Cite this work as:
 Gaussian 09, Revision D.01,
 M. J. Frisch, G. W. Trucks, H. B. Schlegel, G. E. Scuseria, 
 M. A. Robb, J. R. Cheeseman, G. Scalmani, V. Barone, B. Mennucci, 
 G. A. Petersson, H. Nakatsuji, M. Caricato, X. Li, H. P. Hratchian, 
 A. F. Izmaylov, J. Bloino, G. Zheng, J. L. Sonnenberg, M. Hada, 
 M. Ehara, K. Toyota, R. Fukuda, J. Hasegawa, M. Ishida, T. Nakajima, 
 Y. Honda, O. Kitao, H. Nakai, T. Vreven, J. A. Montgomery, Jr., 
 J. E. Peralta, F. Ogliaro, M. Bearpark, J. J. Heyd, E. Brothers, 
 K. N. Kudin, V. N. Staroverov, T. Keith, R. Kobayashi, J. Normand, 
 K. Raghavachari, A. Rendell, J. C. Burant, S. S. Iyengar, J. Tomasi, 
 M. Cossi, N. Rega, J. M. Millam, M. Klene, J. E. Knox, J. B. Cross, 
 V. Bakken, C. Adamo, J. Jaramillo, R. Gomperts, R. E. Stratmann, 
 O. Yazyev, A. J. Austin, R. Cammi, C. Pomelli, J. W. Ochterski, 
 R. L. Martin, K. Morokuma, V. G. Zakrzewski, G. A. Voth, 
 P. Salvador, J. J. Dannenberg, S. Dapprich, A. D. Daniels, 
 O. Farkas, J. B. Foresman, J. V. Ortiz, J. Cioslowski, 
 and D. J. Fox, Gaussian, Inc., Wallingford CT, 2013.
 
 ******************************************
 Gaussian 09:  EM64L-G09RevD.01 24-Apr-2013
                25-Nov-2013 
 ******************************************
 %Nproc=8
 Will use up to    8 processors via shared memory.
 %mem=436000000
 ----------------------------
 #CID/6-31G opt=z-matrix freq
 ----------------------------
 1/10=7,18=40,38=1/1,3;
 2/12=2,17=6,18=5,29=3,40=1/2;
 3/5=1,6=6,11=9,16=1,25=1,30=1,71=1/1,2,3;
 4//1;
 5/5=2,38=5/2;
 8/6=4,9=120000,10=2/1,4;
 9/5=1,15=1/13;
 11/28=-3,29=200,42=3/11;
 10/5=2/2;
 6/7=2,8=2,9=2,10=2/1;
 7/12=6,29=1/1,2,3,16;
 1/10=7,18=40/3(2);
 2/29=3/2;
 99//99;
 2/29=3/2;
 3/5=1,6=6,11=9,16=1,25=1,30=1,71=1/1,2,3;
 4/5=5,16=3,69=1/1;
 5/5=2,38=5/2;
 8/6=4,9=120000,10=2/1,4;
 9/5=1,15=1/13;
 11/28=-3,29=200,42=3/11;
 10/5=2/2;
 7/12=6/1,2,3,16;
 1/18=40/3(-9);
 2/29=3/2;
 6/7=2,8=2,9=2,10=2/1;
 99//99;
 ------------------------------------------------------------------
 1H-tetrazole CH2N4 casno=288948 state=1 config=1 method=14 basis=9
 ------------------------------------------------------------------
 Symbolic Z-matrix:
 Charge =  0 Multiplicity = 1
 X
 X                    1     1. 
 C                    1     1.       2     90. 
 N                    1    rn1      2     90.      3    an1      0
 N                    1    rn2      2     90.      3    an2      0
 N                    1    rn3      2     90.      3    an3      0
 N                    1    rn4      2     90.      3    an4      0
 H                    3    rch      4    ach      5     180.     0
 H                    4    rnh      5    anh      6     180.     0
       Variables:
  rn1                   1.2426                   
  rn2                   1.333                    
  rn3                   1.1146                   
  rn4                   0.9264                   
  rch                   1.0678                   
  rnh                   0.9941                   
  an1                  71.8427                   
  an2                 133.7028                   
  an3                 194.4597                   
  an4                 276.0768                   
  ach                 125.0248                   
  anh                 120.7626                   
 

 GradGradGradGradGradGradGradGradGradGradGradGradGradGradGradGradGradGrad
 Berny optimization.
 Initialization pass.
                       ----------------------------
                       !    Initial Parameters    !
                       ! (Angstroms and Degrees)  !
 ----------------------                            ----------------------
 !      Name          Value   Derivative information (Atomic Units)     !
 ------------------------------------------------------------------------
 !       rn1         1.2426   estimate D2E/DX2                          !
 !       rn2         1.333    estimate D2E/DX2                          !
 !       rn3         1.1146   estimate D2E/DX2                          !
 !       rn4         0.9264   estimate D2E/DX2                          !
 !       rch         1.0678   estimate D2E/DX2                          !
 !       rnh         0.9941   estimate D2E/DX2                          !
 !       an1        71.8427   estimate D2E/DX2                          !
 !       an2       133.7028   estimate D2E/DX2                          !
 !       an3       194.4597   estimate D2E/DX2                          !
 !       an4       276.0768   estimate D2E/DX2                          !
 !       ach       125.0248   estimate D2E/DX2                          !
 !       anh       120.7626   estimate D2E/DX2                          !
 ------------------------------------------------------------------------
 Trust Radius=3.00D-01 FncErr=1.00D-07 GrdErr=1.00D-07
 Number of steps in this run=     22 maximum allowed number of steps=    100.
 GradGradGradGradGradGradGradGradGradGradGradGradGradGradGradGradGradGrad

 ---------------------------------------------------------------------------------------------------
                            Z-MATRIX (ANGSTROMS AND DEGREES)
   CD    Cent   Atom    N1       Length/X        N2       Alpha/Y        N3        Beta/Z          J
 ---------------------------------------------------------------------------------------------------
      1         X 
      2         X        1   1.000000(     1)
      3      1  C        1   1.000000(     2)      2   90.000(     9)
      4      2  N        1   1.242600(     3)      2   90.000(    10)      3   71.843(    16)      0
      5      3  N        1   1.333000(     4)      2   90.000(    11)      3  133.703(    17)      0
      6      4  N        1   1.114600(     5)      2   90.000(    12)      3  194.460(    18)      0
      7      5  N        1   0.926400(     6)      2   90.000(    13)      3  276.077(    19)      0
      8      6  H        3   1.067800(     7)      4  125.025(    14)      5  180.000(    20)      0
      9      7  H        4   0.994100(     8)      5  120.763(    15)      6  180.000(    21)      0
 ---------------------------------------------------------------------------------------------------
                         Z-Matrix orientation:                         
 ---------------------------------------------------------------------
 Center     Atomic      Atomic             Coordinates (Angstroms)
 Number     Number       Type             X           Y           Z
 ---------------------------------------------------------------------
      1         -1           0        0.000000    0.000000    0.000000
      2         -1           0        0.000000    0.000000    1.000000
      3          6           0        1.000000    0.000000    0.000000
      4          7           0        0.387228   -1.180724    0.000000
      5          7           0       -0.920993   -0.963670    0.000000
      6          7           0       -1.079293    0.278314    0.000000
      7          7           0        0.098070    0.921194    0.000000
      8          1           0        2.058429    0.141157    0.000000
      9          1           0        0.749017   -2.106652    0.000000
 ---------------------------------------------------------------------
                    Distance matrix (angstroms):
                    1          2          3          4          5
     1  X    0.000000
     2  X    1.000000   0.000000
     3  C    1.000000   1.414214   0.000000
     4  N    1.242600   1.595009   1.330263   0.000000
     5  N    1.333000   1.666400   2.149157   1.326105   0.000000
     6  N    1.114600   1.497442   2.097837   2.068690   1.252032
     7  N    0.926400   1.363164   1.289216   2.121715   2.142710
     8  H    2.063263   2.292827   1.067800   2.130794   3.177672
     9  H    2.235847   2.449288   2.121551   0.994100   2.023695
                    6          7          8          9
     6  N    0.000000
     7  N    1.341447   0.000000
     8  H    3.140719   2.109850   0.000000
     9  H    3.005127   3.097029   2.601385   0.000000
 Stoichiometry    CH2N4
 Framework group  CS[SG(CH2N4)]
 Deg. of freedom    11
 Full point group                 CS      NOp   2
 Largest Abelian subgroup         CS      NOp   2
 Largest concise Abelian subgroup C1      NOp   1
                         Standard orientation:                         
 ---------------------------------------------------------------------
 Center     Atomic      Atomic             Coordinates (Angstroms)
 Number     Number       Type             X           Y           Z
 ---------------------------------------------------------------------
      1          6           0        1.052733    0.225621    0.000000
      2          7           0        0.000000    1.038857    0.000000
      3          7           0       -1.095416    0.291448    0.000000
      4          7           0       -0.716382   -0.901832    0.000000
      5          7           0        0.622191   -0.989579    0.000000
      6          1           0        2.072287    0.542964    0.000000
      7          1           0       -0.061439    2.031056    0.000000
 ---------------------------------------------------------------------
 Rotational constants (GHZ):     10.9201517     10.7345054      5.4132664
 Standard basis: 6-31G (6D, 7F)
 There are    39 symmetry adapted cartesian basis functions of A'  symmetry.
 There are    10 symmetry adapted cartesian basis functions of A"  symmetry.
 There are    39 symmetry adapted basis functions of A'  symmetry.
 There are    10 symmetry adapted basis functions of A"  symmetry.
    49 basis functions,   118 primitive gaussians,    49 cartesian basis functions
    18 alpha electrons       18 beta electrons
       nuclear repulsion energy       169.8308489506 Hartrees.
 NAtoms=    7 NActive=    7 NUniq=    7 SFac= 1.00D+00 NAtFMM=   60 NAOKFM=F Big=F
 Integral buffers will be    131072 words long.
 Raffenetti 1 integral format.
 Two-electron integral symmetry is turned on.
 One-electron integrals computed using PRISM.
 NBasis=    49 RedAO= T EigKep=  6.07D-03  NBF=    39    10
 NBsUse=    49 1.00D-06 EigRej= -1.00D+00 NBFU=    39    10
 ExpMin= 1.61D-01 ExpMax= 4.17D+03 ExpMxC= 6.27D+02 IAcc=1 IRadAn=         1 AccDes= 0.00D+00
 Harris functional with IExCor=  205 and IRadAn=       1 diagonalized for initial guess.
 HarFok:  IExCor=  205 AccDes= 0.00D+00 IRadAn=         1 IDoV= 1 UseB2=F ITyADJ=14
 ICtDFT=  3500011 ScaDFX=  1.000000  1.000000  1.000000  1.000000
 FoFCou: FMM=F IPFlag=           0 FMFlag=      100000 FMFlg1=           0
         NFxFlg=           0 DoJE=T BraDBF=F KetDBF=T FulRan=T
         wScrn=  0.000000 ICntrl=     500 IOpCl=  0 I1Cent=   200000004 NGrid=           0
         NMat0=    1 NMatS0=      1 NMatT0=    0 NMatD0=    1 NMtDS0=    0 NMtDT0=    0
 Petite list used in FoFCou.
 Initial guess orbital symmetries:
       Occupied  (A') (A') (A') (A') (A') (A') (A') (A') (A') (A')
                 (A') (A') (A") (A') (A") (A') (A") (A')
       Virtual   (A") (A") (A') (A') (A') (A') (A') (A') (A') (A")
                 (A') (A') (A') (A') (A") (A') (A') (A") (A') (A")
                 (A") (A') (A') (A') (A') (A') (A') (A') (A') (A')
                 (A')
 The electronic state of the initial guess is 1-A'.
 Keep R1 ints in memory in symmetry-blocked form, NReq=1603297.
 Requested convergence on RMS density matrix=1.00D-08 within 128 cycles.
 Requested convergence on MAX density matrix=1.00D-06.
 Requested convergence on             energy=1.00D-06.
 No special actions if energy rises.
 SCF Done:  E(RHF) =  -256.588556245     A.U. after   15 cycles
            NFock= 15  Conv=0.17D-08     -V/T= 1.9978
 ExpMin= 1.61D-01 ExpMax= 4.17D+03 ExpMxC= 6.27D+02 IAcc=3 IRadAn=         5 AccDes= 0.00D+00
 HarFok:  IExCor=  205 AccDes= 0.00D+00 IRadAn=         5 IDoV=-2 UseB2=F ITyADJ=14
 ICtDFT= 12500011 ScaDFX=  1.000000  1.000000  1.000000  1.000000
 Range of M.O.s used for correlation:     6    49
 NBasis=    49 NAE=    18 NBE=    18 NFC=     5 NFV=     0
 NROrb=     44 NOA=    13 NOB=    13 NVA=    31 NVB=    31
 Semi-Direct transformation.
 ModeAB=           2 MOrb=            13 LenV=     435851028
 LASXX=       227383 LTotXX=      227383 LenRXX=      227383
 LTotAB=      247599 MaxLAS=      700700 LenRXY=      700700
 NonZer=      732732 LenScr=     1648128 LnRSAI=           0
 LnScr1=           0 LExtra=           0 Total=      2576211
 MaxDsk=          -1 SrtSym=           F ITran=            4
 JobTyp=0 Pass  1:  I=   1 to  13.
 (rs|ai) integrals will be sorted in core.
 Spin components of T(2) and E(2):
     alpha-alpha T2 =       0.2798526156D-01 E2=     -0.7100615089D-01
     alpha-beta  T2 =       0.1500906748D+00 E2=     -0.3860448901D+00
     beta-beta   T2 =       0.2798526156D-01 E2=     -0.7100615089D-01
 ANorm=    0.1098208176D+01
 E2 =    -0.5280571919D+00 EUMP2 =    -0.25711661343668D+03
 Keep R2 and R3 ints in memory in symmetry-blocked form, NReq=1654951.
 Iterations=  50 Convergence= 0.100D-07
 Iteration Nr.   1
 **********************
 DD1Dir will call FoFMem   1 times, MxPair=       182
 NAB=    91 NAA=     0 NBB=     0.
 E3=        0.70953221D-02        EUMP3=      -0.25710951811D+03
 DE(CI)=     -0.43401091     E(CI)=       -257.02256715    
 NORM(A)=   0.10710469D+01
 Iteration Nr.   2
 **********************
 DD1Dir will call FoFMem   1 times, MxPair=       182
 NAB=    91 NAA=     0 NBB=     0.
 DE(CI)=     -0.45735918     E(CI)=       -257.04591542    
 NORM(A)=   0.10738003D+01
 Iteration Nr.   3
 **********************
 DD1Dir will call FoFMem   1 times, MxPair=       182
 NAB=    91 NAA=     0 NBB=     0.
 DE(CI)=     -0.45673121     E(CI)=       -257.04528745    
 NORM(A)=   0.10738276D+01
 Iteration Nr.   4
 **********************
 DD1Dir will call FoFMem   1 times, MxPair=       182
 NAB=    91 NAA=     0 NBB=     0.
 DE(CI)=     -0.45721495     E(CI)=       -257.04577120    
 NORM(A)=   0.10740132D+01
 Iteration Nr.   5
 **********************
 DD1Dir will call FoFMem   1 times, MxPair=       182
 NAB=    91 NAA=     0 NBB=     0.
 DE(CI)=     -0.45723645     E(CI)=       -257.04579269    
 NORM(A)=   0.10740269D+01
 Iteration Nr.   6
 **********************
 DD1Dir will call FoFMem   1 times, MxPair=       182
 NAB=    91 NAA=     0 NBB=     0.
 DE(CI)=     -0.45723846     E(CI)=       -257.04579470    
 NORM(A)=   0.10740244D+01
 Iteration Nr.   7
 **********************
 DD1Dir will call FoFMem   1 times, MxPair=       182
 NAB=    91 NAA=     0 NBB=     0.
 DE(CI)=     -0.45723600     E(CI)=       -257.04579224    
 NORM(A)=   0.10740242D+01
 Iteration Nr.   8
 **********************
 DD1Dir will call FoFMem   1 times, MxPair=       182
 NAB=    91 NAA=     0 NBB=     0.
 DE(CI)=     -0.45723680     E(CI)=       -257.04579305    
 NORM(A)=   0.10740245D+01
 Iteration Nr.   9
 **********************
 DD1Dir will call FoFMem   1 times, MxPair=       182
 NAB=    91 NAA=     0 NBB=     0.
 DE(CI)=     -0.45723683     E(CI)=       -257.04579307    
 NORM(A)=   0.10740246D+01
 Iteration Nr.  10
 **********************
 DD1Dir will call FoFMem   1 times, MxPair=       182
 NAB=    91 NAA=     0 NBB=     0.
 DE(CI)=     -0.45723683     E(CI)=       -257.04579307    
 NORM(A)=   0.10740246D+01
 Iteration Nr.  11
 **********************
 DD1Dir will call FoFMem   1 times, MxPair=       182
 NAB=    91 NAA=     0 NBB=     0.
 DE(CI)=     -0.45723683     E(CI)=       -257.04579308    
 NORM(A)=   0.10740246D+01
 Iteration Nr.  12
 **********************
 DD1Dir will call FoFMem   1 times, MxPair=       182
 NAB=    91 NAA=     0 NBB=     0.
 DE(CI)=     -0.45723683     E(CI)=       -257.04579308    
 NORM(A)=   0.10740246D+01
 ***************************************************************
 Largest amplitude= 5.72D-02
 Discarding MO integrals.
          IDoAtm=1111111
          Differentiating once with respect to electric field.
                with respect to dipole field.
          Differentiating once with respect to nuclear coordinates.
 Keep R1 ints in memory in symmetry-blocked form, NReq=1587184.
          There are     1 degrees of freedom in the 1st order CPHF.  IDoFFX=0 NUNeed=     1.
 LinEq1:  Iter=  0 NonCon=     1 RMS=5.54D-03 Max=4.01D-02 NDo=     1
 AX will form     1 AO Fock derivatives at one time.
 LinEq1:  Iter=  1 NonCon=     1 RMS=1.25D-03 Max=7.67D-03 NDo=     1
 LinEq1:  Iter=  2 NonCon=     1 RMS=4.81D-04 Max=7.08D-03 NDo=     1
 LinEq1:  Iter=  3 NonCon=     1 RMS=1.55D-04 Max=9.78D-04 NDo=     1
 LinEq1:  Iter=  4 NonCon=     1 RMS=5.23D-05 Max=3.32D-04 NDo=     1
 LinEq1:  Iter=  5 NonCon=     1 RMS=2.23D-05 Max=2.94D-04 NDo=     1
 LinEq1:  Iter=  6 NonCon=     1 RMS=6.91D-06 Max=6.68D-05 NDo=     1
 LinEq1:  Iter=  7 NonCon=     1 RMS=2.76D-06 Max=3.88D-05 NDo=     1
 LinEq1:  Iter=  8 NonCon=     1 RMS=1.19D-06 Max=1.57D-05 NDo=     1
 LinEq1:  Iter=  9 NonCon=     1 RMS=2.09D-07 Max=1.76D-06 NDo=     1
 LinEq1:  Iter= 10 NonCon=     1 RMS=6.24D-08 Max=4.29D-07 NDo=     1
 LinEq1:  Iter= 11 NonCon=     1 RMS=2.04D-08 Max=1.15D-07 NDo=     1
 LinEq1:  Iter= 12 NonCon=     1 RMS=3.14D-09 Max=2.49D-08 NDo=     1
 LinEq1:  Iter= 13 NonCon=     1 RMS=3.85D-10 Max=3.79D-09 NDo=     1
 LinEq1:  Iter= 14 NonCon=     0 RMS=4.66D-11 Max=2.84D-10 NDo=     1
 Linear equations converged to 1.000D-10 1.000D-09 after    14 iterations.
 End of Minotr F.D. properties file   721 does not exist.
 End of Minotr F.D. properties file   722 does not exist.
 End of Minotr F.D. properties file   788 does not exist.

 **********************************************************************

            Population analysis using the SCF density.

 **********************************************************************

 Orbital symmetries:
       Occupied  (A') (A') (A') (A') (A') (A') (A') (A') (A') (A')
                 (A') (A") (A') (A') (A') (A") (A') (A")
       Virtual   (A") (A") (A') (A') (A') (A') (A') (A') (A') (A")
                 (A') (A') (A') (A") (A') (A") (A') (A') (A') (A")
                 (A") (A') (A') (A') (A') (A') (A') (A') (A') (A')
                 (A')
 The electronic state is 1-A'.
 Alpha  occ. eigenvalues --  -15.69781 -15.68462 -15.66056 -15.62499 -11.35688
 Alpha  occ. eigenvalues --   -1.57700  -1.29978  -1.24930  -0.93279  -0.91600
 Alpha  occ. eigenvalues --   -0.82843  -0.71012  -0.69666  -0.57771  -0.48222
 Alpha  occ. eigenvalues --   -0.47708  -0.46520  -0.44225
 Alpha virt. eigenvalues --    0.12975   0.18577   0.19300   0.24772   0.36666
 Alpha virt. eigenvalues --    0.38082   0.47316   0.49956   0.66588   0.73013
 Alpha virt. eigenvalues --    0.77419   0.85713   0.89161   0.91182   0.93172
 Alpha virt. eigenvalues --    0.96240   0.96795   0.97302   1.01327   1.04290
 Alpha virt. eigenvalues --    1.08631   1.09212   1.13577   1.16103   1.27903
 Alpha virt. eigenvalues --    1.32712   1.40248   1.47063   1.62131   1.78876
 Alpha virt. eigenvalues --    1.85896
          Condensed to atoms (all electrons):
               1          2          3          4          5          6
     1  C    5.014118   0.108503  -0.097967  -0.164905   0.380137   0.378363
     2  N    0.108503   7.510282   0.047240  -0.139717  -0.075401  -0.040552
     3  N   -0.097967   0.047240   6.972432   0.207847  -0.160166   0.001620
     4  N   -0.164905  -0.139717   0.207847   6.905366   0.265752   0.004525
     5  N    0.380137  -0.075401  -0.160166   0.265752   6.970510  -0.018517
     6  H    0.378363  -0.040552   0.001620   0.004525  -0.018517   0.387016
     7  H   -0.012105   0.308050  -0.019387   0.006193   0.003857   0.001891
               7
     1  C   -0.012105
     2  N    0.308050
     3  N   -0.019387
     4  N    0.006193
     5  N    0.003857
     6  H    0.001891
     7  H    0.269753
 Mulliken charges:
               1
     1  C    0.393857
     2  N   -0.718406
     3  N    0.048381
     4  N   -0.085061
     5  N   -0.366172
     6  H    0.285654
     7  H    0.441748
 Sum of Mulliken charges =   0.00000
 Mulliken charges with hydrogens summed into heavy atoms:
               1
     1  C    0.679511
     2  N   -0.276658
     3  N    0.048381
     4  N   -0.085061
     5  N   -0.366172
 Electronic spatial extent (au):  <R**2>=            247.0706
 Charge=              0.0000 electrons
 Dipole moment (field-independent basis, Debye):
    X=              2.9921    Y=              5.4129    Z=              0.0000  Tot=              6.1848
 Quadrupole moment (field-independent basis, Debye-Ang):
   XX=            -30.0880   YY=            -28.0652   ZZ=            -28.8558
   XY=              2.1537   XZ=              0.0000   YZ=              0.0000
 Traceless Quadrupole moment (field-independent basis, Debye-Ang):
   XX=             -1.0850   YY=              0.9378   ZZ=              0.1472
   XY=              2.1537   XZ=              0.0000   YZ=              0.0000
 Octapole moment (field-independent basis, Debye-Ang**2):
  XXX=             14.3034  YYY=             25.1335  ZZZ=              0.0000  XYY=             -0.5248
  XXY=              5.6047  XXZ=              0.0000  XZZ=             -0.5184  YZZ=              0.5844
  YYZ=              0.0000  XYZ=              0.0000
 Hexadecapole moment (field-independent basis, Debye-Ang**3):
 XXXX=           -139.4523 YYYY=           -118.4100 ZZZZ=            -25.8218 XXXY=              7.4628
 XXXZ=              0.0000 YYYX=             -0.0204 YYYZ=              0.0000 ZZZX=              0.0000
 ZZZY=              0.0000 XXYY=            -53.5811 XXZZ=            -29.9293 YYZZ=            -28.6726
 XXYZ=              0.0000 YYXZ=              0.0000 ZZXY=              0.0491
 N-N= 1.698308489506D+02 E-N=-9.406331984147D+02  KE= 2.571531859266D+02
 Symmetry A'   KE= 2.480786345061D+02
 Symmetry A"   KE= 9.074551420442D+00
 Calling FoFJK, ICntrl=  10002127 FMM=F ISym2X=1 I1Cent= 0 IOpClX= 0 NMat=1 NMatS=1 NMatT=0.
 ***** Axes restored to original set *****
 -------------------------------------------------------------------
 Center     Atomic                   Forces (Hartrees/Bohr)
 Number     Number              X              Y              Z
 -------------------------------------------------------------------
      1        6           0.058176548   -0.005460662    0.000000000
      2        7           0.025613616   -0.031258813    0.000000000
      3        7          -0.037563599   -0.063475866    0.000000000
      4        7          -0.059973890    0.051118399    0.000000000
      5        7           0.007069404    0.052852066    0.000000000
      6        1           0.003676198    0.001445379    0.000000000
      7        1           0.003001723   -0.005220504    0.000000000
 -------------------------------------------------------------------
 Cartesian Forces:  Max     0.063475866 RMS     0.030544934
 -----------------------------------------------------------------------------------------------
                       Internal Coordinate Forces (Hartree/Bohr or radian)
  Cent   Atom   N1       Length/X         N2         Alpha/Y        N3         Beta/Z          J
 -----------------------------------------------------------------------------------------------
         X 
         X        1   0.000000(     1)
      1  C        1   0.061178(     2)      2   0.000000(     9)
      2  N        1   0.043528(     3)      2   0.000000(    10)      3  -0.039133(    16)     0
      3  N        1   0.072397(     4)      2   0.000000(    11)      3  -0.043022(    17)     0
      4  N        1   0.070838(     5)      2   0.000000(    12)      3   0.072717(    18)     0
      5  N        1   0.053303(     6)      2   0.000000(    13)      3   0.002512(    19)     0
      6  H        3   0.003835(     7)      4   0.001910(    14)      5   0.000000(    20)     0
      7  H        4   0.005955(     8)      5   0.001683(    15)      6   0.000000(    21)     0
 -----------------------------------------------------------------------------------------------
 Internal  Forces:  Max     0.072716941 RMS     0.036168315

 GradGradGradGradGradGradGradGradGradGradGradGradGradGradGradGradGradGrad
 Berny optimization.
 Search for a local minimum.
 Step number   1 out of a maximum of   22
 All quantities printed in internal units (Hartrees-Bohrs-Radians)
 Second derivative matrix not updated -- first step.
 The second derivative matrix:
                          rn1       rn2       rn3       rn4       rch
           rn1          0.65186
           rn2          0.01318   0.69869
           rn3          0.03472   0.07334   0.58262
           rn4          0.03688   0.02662   0.13967   0.63921
           rch          0.00000   0.00000   0.00000   0.00000   0.37510
           rnh          0.00000   0.00000   0.00000   0.00000   0.00000
           an1          0.02012  -0.75016   0.04258  -0.08486   0.00000
           an2          0.72119  -0.31234  -0.71865   0.05436   0.00000
           an3         -0.02914   1.04797   0.05412  -0.58583   0.00000
           an4          0.05328  -0.03228   0.65851  -0.10009   0.00000
           ach          0.04546   0.00000   0.00000   0.05066   0.00000
           anh         -0.10206   0.05276   0.00000   0.00000   0.00000
                          rnh       an1       an2       an3       an4
           rnh          0.48741
           an1          0.00000   4.53257
           an2          0.00000  -2.68051   6.02300
           an3          0.00000  -0.03573  -3.19618   4.47465
           an4          0.00000  -0.12258  -0.06592  -1.16042   2.58479
           ach          0.00000  -0.10460   0.00000   0.00000   0.07318
           anh          0.00000   0.03519  -0.09059   0.00000   0.00000
                          ach       anh
           ach          0.32000
           anh          0.00000   0.32000
 ITU=  0
     Eigenvalues ---    0.00000   0.13346   0.26445   0.33044   0.37510
     Eigenvalues ---    0.40158   0.48741   0.75609   1.20990   2.99509
     Eigenvalues ---    5.09563   9.64077
 RFO step:  Lambda=-2.08485842D-02 EMin=-6.95624114D-16
 Linear search not attempted -- first point.
 Variable       Old X    -DE/DX   Delta X   Delta X   Delta X     New X
                                 (Linear)    (Quad)   (Total)
   rn1        2.34817   0.04353   0.00000   0.02340   0.02340   2.37158
   rn2        2.51900   0.07240   0.00000   0.11100   0.11100   2.63000
   rn3        2.10629   0.07084   0.00000   0.16035   0.16035   2.26664
   rn4        1.75064   0.05330   0.00000   0.04075   0.04075   1.79139
   rch        2.01785   0.00384   0.00000   0.00969   0.00969   2.02754
   rnh        1.87858   0.00595   0.00000   0.01172   0.01172   1.89029
   an1        1.25389  -0.03913   0.00000   0.02469   0.02469   1.27858
   an2        2.33355  -0.04302   0.00000   0.02792   0.02792   2.36147
   an3        3.39396   0.07272   0.00000   0.00531   0.00531   3.39927
   an4        4.81845   0.00251   0.00000  -0.03318  -0.03318   4.78527
   ach        2.18209   0.00191   0.00000   0.01113   0.01113   2.19322
   anh        2.10770   0.00168   0.00000  -0.00036  -0.00036   2.10734
         Item               Value     Threshold  Converged?
 Maximum Force            0.072717     0.000450     NO 
 RMS     Force            0.044468     0.000300     NO 
 Maximum Displacement     0.160349     0.001800     NO 
 RMS     Displacement     0.059940     0.001200     NO 
 Predicted change in Energy=-1.087372D-02
 GradGradGradGradGradGradGradGradGradGradGradGradGradGradGradGradGradGrad

 ---------------------------------------------------------------------------------------------------
                            Z-MATRIX (ANGSTROMS AND DEGREES)
   CD    Cent   Atom    N1       Length/X        N2       Alpha/Y        N3        Beta/Z          J
 ---------------------------------------------------------------------------------------------------
      1         X 
      2         X        1   1.000000(     1)
      3      1  C        1   1.000000(     2)      2   90.000(     9)
      4      2  N        1   1.254984(     3)      2   90.000(    10)      3   73.257(    16)      0
      5      3  N        1   1.391737(     4)      2   90.000(    11)      3  135.302(    17)      0
      6      4  N        1   1.199453(     5)      2   90.000(    12)      3  194.764(    18)      0
      7      5  N        1   0.947962(     6)      2   90.000(    13)      3  274.176(    19)      0
      8      6  H        3   1.072925(     7)      4  125.662(    14)      5  180.000(    20)      0
      9      7  H        4   1.000300(     8)      5  120.742(    15)      6  180.000(    21)      0
 ---------------------------------------------------------------------------------------------------
                         Z-Matrix orientation:                         
 ---------------------------------------------------------------------
 Center     Atomic      Atomic             Coordinates (Angstroms)
 Number     Number       Type             X           Y           Z
 ---------------------------------------------------------------------
      1         -1           0        0.000000    0.000000    0.000000
      2         -1           0        0.000000    0.000000    1.000000
      3          6           0        1.000000    0.000000    0.000000
      4          7           0        0.361528   -1.201783    0.000000
      5          7           0       -0.989286   -0.978899    0.000000
      6          7           0       -1.159851    0.305669    0.000000
      7          7           0        0.069029    0.945446    0.000000
      8          1           0        2.063296    0.143422    0.000000
      9          1           0        0.726065   -2.133294    0.000000
 ---------------------------------------------------------------------
                    Distance matrix (angstroms):
                    1          2          3          4          5
     1  X    0.000000
     2  X    1.000000   0.000000
     3  C    1.000000   1.414214   0.000000
     4  N    1.254984   1.604676   1.360856   0.000000
     5  N    1.391737   1.713748   2.217094   1.369078   0.000000
     6  N    1.199453   1.561630   2.181373   2.141729   1.295842
     7  N    0.947962   1.377909   1.326866   2.167060   2.196164
     8  H    2.068275   2.297338   1.072925   2.169238   3.252363
     9  H    2.253467   2.465383   2.150810   1.000300   2.067622
                    6          7          8          9
     6  N    0.000000
     7  N    1.385446   0.000000
     8  H    3.227228   2.149499   0.000000
     9  H    3.083054   3.148069   2.640383   0.000000
 Stoichiometry    CH2N4
 Framework group  CS[SG(CH2N4)]
 Deg. of freedom    11
 Full point group                 CS      NOp   2
 Largest Abelian subgroup         CS      NOp   2
 Largest concise Abelian subgroup C1      NOp   1
                         Standard orientation:                         
 ---------------------------------------------------------------------
 Center     Atomic      Atomic             Coordinates (Angstroms)
 Number     Number       Type             X           Y           Z
 ---------------------------------------------------------------------
      1          6           0        1.087388    0.247867    0.000000
      2          7           0        0.000000    1.066108    0.000000
      3          7           0       -1.129265    0.292070    0.000000
      4          7           0       -0.739700   -0.943829    0.000000
      5          7           0        0.644486   -1.002898    0.000000
      6          1           0        2.111346    0.568301    0.000000
      7          1           0       -0.064313    2.064339    0.000000
 ---------------------------------------------------------------------
 Rotational constants (GHZ):     10.3504915     10.0945943      5.1104707
 Standard basis: 6-31G (6D, 7F)
 There are    39 symmetry adapted cartesian basis functions of A'  symmetry.
 There are    10 symmetry adapted cartesian basis functions of A"  symmetry.
 There are    39 symmetry adapted basis functions of A'  symmetry.
 There are    10 symmetry adapted basis functions of A"  symmetry.
    49 basis functions,   118 primitive gaussians,    49 cartesian basis functions
    18 alpha electrons       18 beta electrons
       nuclear repulsion energy       165.0662606789 Hartrees.
 NAtoms=    7 NActive=    7 NUniq=    7 SFac= 1.00D+00 NAtFMM=   60 NAOKFM=F Big=F
 Integral buffers will be    131072 words long.
 Raffenetti 1 integral format.
 Two-electron integral symmetry is turned on.
 One-electron integrals computed using PRISM.
 NBasis=    49 RedAO= T EigKep=  7.06D-03  NBF=    39    10
 NBsUse=    49 1.00D-06 EigRej= -1.00D+00 NBFU=    39    10
 Initial guess from the checkpoint file:  "/tmp/rdj3/g09-16833/Gau-25935.chk"
 B after Tr=     0.000000    0.000000    0.000000
         Rot=    0.999994    0.000000    0.000000   -0.003359 Ang=  -0.38 deg.
 Initial guess orbital symmetries:
       Occupied  (A') (A') (A') (A') (A') (A') (A') (A') (A') (A')
                 (A') (A") (A') (A') (A') (A") (A') (A")
       Virtual   (A') (A') (A') (A') (A') (A') (A') (A') (A') (A')
                 (A') (A') (A') (A') (A') (A') (A') (A') (A') (A')
                 (A') (A') (A') (A') (A") (A") (A") (A") (A") (A")
                 (A")
 ExpMin= 1.61D-01 ExpMax= 4.17D+03 ExpMxC= 6.27D+02 IAcc=1 IRadAn=         1 AccDes= 0.00D+00
 Harris functional with IExCor=  205 and IRadAn=       1 diagonalized for initial guess.
 HarFok:  IExCor=  205 AccDes= 0.00D+00 IRadAn=         1 IDoV= 1 UseB2=F ITyADJ=14
 ICtDFT=  3500011 ScaDFX=  1.000000  1.000000  1.000000  1.000000
 FoFCou: FMM=F IPFlag=           0 FMFlag=      100000 FMFlg1=           0
         NFxFlg=           0 DoJE=T BraDBF=F KetDBF=T FulRan=T
         wScrn=  0.000000 ICntrl=     500 IOpCl=  0 I1Cent=   200000004 NGrid=           0
         NMat0=    1 NMatS0=      1 NMatT0=    0 NMatD0=    1 NMtDS0=    0 NMtDT0=    0
 Petite list used in FoFCou.
 Keep R1 ints in memory in symmetry-blocked form, NReq=1603079.
 Requested convergence on RMS density matrix=1.00D-08 within 128 cycles.
 Requested convergence on MAX density matrix=1.00D-06.
 Requested convergence on             energy=1.00D-06.
 No special actions if energy rises.
 SCF Done:  E(RHF) =  -256.588588109     A.U. after   14 cycles
            NFock= 14  Conv=0.48D-08     -V/T= 2.0004
 ExpMin= 1.61D-01 ExpMax= 4.17D+03 ExpMxC= 6.27D+02 IAcc=3 IRadAn=         5 AccDes= 0.00D+00
 HarFok:  IExCor=  205 AccDes= 0.00D+00 IRadAn=         5 IDoV=-2 UseB2=F ITyADJ=14
 ICtDFT= 12500011 ScaDFX=  1.000000  1.000000  1.000000  1.000000
 Range of M.O.s used for correlation:     6    49
 NBasis=    49 NAE=    18 NBE=    18 NFC=     5 NFV=     0
 NROrb=     44 NOA=    13 NOB=    13 NVA=    31 NVB=    31
 Semi-Direct transformation.
 ModeAB=           2 MOrb=            13 LenV=     435851232
 LASXX=       227383 LTotXX=      227383 LenRXX=      227383
 LTotAB=      247599 MaxLAS=      700700 LenRXY=      700700
 NonZer=      732160 LenScr=     1646592 LnRSAI=           0
 LnScr1=           0 LExtra=           0 Total=      2574675
 MaxDsk=          -1 SrtSym=           F ITran=            4
 JobTyp=0 Pass  1:  I=   1 to  13.
 (rs|ai) integrals will be sorted in core.
 Spin components of T(2) and E(2):
     alpha-alpha T2 =       0.3041073083D-01 E2=     -0.7397406080D-01
     alpha-beta  T2 =       0.1623856789D+00 E2=     -0.4008091354D+00
     beta-beta   T2 =       0.3041073083D-01 E2=     -0.7397406080D-01
 ANorm=    0.1105986953D+01
 E2 =    -0.5487572570D+00 EUMP2 =    -0.25713734536590D+03
 Keep R2 and R3 ints in memory in symmetry-blocked form, NReq=1654951.
 Iterations=  50 Convergence= 0.100D-07
 Iteration Nr.   1
 **********************
 DD1Dir will call FoFMem   1 times, MxPair=       182
 NAB=    91 NAA=     0 NBB=     0.
 E3=        0.12779765D-01        EUMP3=      -0.25712456560D+03
 DE(CI)=     -0.44067219     E(CI)=       -257.02926030    
 NORM(A)=   0.10744686D+01
 Iteration Nr.   2
 **********************
 DD1Dir will call FoFMem   1 times, MxPair=       182
 NAB=    91 NAA=     0 NBB=     0.
 DE(CI)=     -0.46815867     E(CI)=       -257.05674678    
 NORM(A)=   0.10771788D+01
 Iteration Nr.   3
 **********************
 DD1Dir will call FoFMem   1 times, MxPair=       182
 NAB=    91 NAA=     0 NBB=     0.
 DE(CI)=     -0.46703526     E(CI)=       -257.05562337    
 NORM(A)=   0.10770847D+01
 Iteration Nr.   4
 **********************
 DD1Dir will call FoFMem   1 times, MxPair=       182
 NAB=    91 NAA=     0 NBB=     0.
 DE(CI)=     -0.46761523     E(CI)=       -257.05620334    
 NORM(A)=   0.10773102D+01
 Iteration Nr.   5
 **********************
 DD1Dir will call FoFMem   1 times, MxPair=       182
 NAB=    91 NAA=     0 NBB=     0.
 DE(CI)=     -0.46764374     E(CI)=       -257.05623185    
 NORM(A)=   0.10773338D+01
 Iteration Nr.   6
 **********************
 DD1Dir will call FoFMem   1 times, MxPair=       182
 NAB=    91 NAA=     0 NBB=     0.
 DE(CI)=     -0.46764318     E(CI)=       -257.05623129    
 NORM(A)=   0.10773307D+01
 Iteration Nr.   7
 **********************
 DD1Dir will call FoFMem   1 times, MxPair=       182
 NAB=    91 NAA=     0 NBB=     0.
 DE(CI)=     -0.46764078     E(CI)=       -257.05622888    
 NORM(A)=   0.10773301D+01
 Iteration Nr.   8
 **********************
 DD1Dir will call FoFMem   1 times, MxPair=       182
 NAB=    91 NAA=     0 NBB=     0.
 DE(CI)=     -0.46764192     E(CI)=       -257.05623003    
 NORM(A)=   0.10773304D+01
 Iteration Nr.   9
 **********************
 DD1Dir will call FoFMem   1 times, MxPair=       182
 NAB=    91 NAA=     0 NBB=     0.
 DE(CI)=     -0.46764190     E(CI)=       -257.05623001    
 NORM(A)=   0.10773306D+01
 Iteration Nr.  10
 **********************
 DD1Dir will call FoFMem   1 times, MxPair=       182
 NAB=    91 NAA=     0 NBB=     0.
 DE(CI)=     -0.46764189     E(CI)=       -257.05623000    
 NORM(A)=   0.10773306D+01
 Iteration Nr.  11
 **********************
 DD1Dir will call FoFMem   1 times, MxPair=       182
 NAB=    91 NAA=     0 NBB=     0.
 DE(CI)=     -0.46764190     E(CI)=       -257.05623000    
 NORM(A)=   0.10773306D+01
 Iteration Nr.  12
 **********************
 DD1Dir will call FoFMem   1 times, MxPair=       182
 NAB=    91 NAA=     0 NBB=     0.
 DE(CI)=     -0.46764189     E(CI)=       -257.05623000    
 NORM(A)=   0.10773306D+01
 ***************************************************************
 Largest amplitude= 5.69D-02
 Discarding MO integrals.
          IDoAtm=1111111
          Differentiating once with respect to electric field.
                with respect to dipole field.
          Differentiating once with respect to nuclear coordinates.
 Keep R1 ints in memory in symmetry-blocked form, NReq=1586896.
          There are     1 degrees of freedom in the 1st order CPHF.  IDoFFX=0 NUNeed=     1.
 LinEq1:  Iter=  0 NonCon=     1 RMS=5.91D-03 Max=4.36D-02 NDo=     1
 AX will form     1 AO Fock derivatives at one time.
 LinEq1:  Iter=  1 NonCon=     1 RMS=1.44D-03 Max=9.43D-03 NDo=     1
 LinEq1:  Iter=  2 NonCon=     1 RMS=5.88D-04 Max=8.96D-03 NDo=     1
 LinEq1:  Iter=  3 NonCon=     1 RMS=2.19D-04 Max=1.55D-03 NDo=     1
 LinEq1:  Iter=  4 NonCon=     1 RMS=7.24D-05 Max=4.84D-04 NDo=     1
 LinEq1:  Iter=  5 NonCon=     1 RMS=3.55D-05 Max=4.60D-04 NDo=     1
 LinEq1:  Iter=  6 NonCon=     1 RMS=1.09D-05 Max=1.28D-04 NDo=     1
 LinEq1:  Iter=  7 NonCon=     1 RMS=5.32D-06 Max=7.49D-05 NDo=     1
 LinEq1:  Iter=  8 NonCon=     1 RMS=2.01D-06 Max=2.61D-05 NDo=     1
 LinEq1:  Iter=  9 NonCon=     1 RMS=3.35D-07 Max=2.12D-06 NDo=     1
 LinEq1:  Iter= 10 NonCon=     1 RMS=8.52D-08 Max=5.59D-07 NDo=     1
 LinEq1:  Iter= 11 NonCon=     1 RMS=3.27D-08 Max=1.67D-07 NDo=     1
 LinEq1:  Iter= 12 NonCon=     1 RMS=5.49D-09 Max=4.38D-08 NDo=     1
 LinEq1:  Iter= 13 NonCon=     1 RMS=7.26D-10 Max=5.34D-09 NDo=     1
 LinEq1:  Iter= 14 NonCon=     0 RMS=8.93D-11 Max=5.17D-10 NDo=     1
 Linear equations converged to 1.000D-10 1.000D-09 after    14 iterations.
 End of Minotr F.D. properties file   721 does not exist.
 End of Minotr F.D. properties file   722 does not exist.
 End of Minotr F.D. properties file   788 does not exist.
 Calling FoFJK, ICntrl=  10002127 FMM=F ISym2X=1 I1Cent= 0 IOpClX= 0 NMat=1 NMatS=1 NMatT=0.
 ***** Axes restored to original set *****
 -------------------------------------------------------------------
 Center     Atomic                   Forces (Hartrees/Bohr)
 Number     Number              X              Y              Z
 -------------------------------------------------------------------
      1        6          -0.006515524   -0.002406346    0.000000000
      2        7           0.003680000    0.003359372    0.000000000
      3        7          -0.006527556   -0.014673325    0.000000000
      4        7           0.000474543    0.001740137    0.000000000
      5        7           0.010068726    0.012178045    0.000000000
      6        1          -0.000498554    0.000756355    0.000000000
      7        1          -0.000681636   -0.000954238    0.000000000
 -------------------------------------------------------------------
 Cartesian Forces:  Max     0.014673325 RMS     0.005283032
 -----------------------------------------------------------------------------------------------
                       Internal Coordinate Forces (Hartree/Bohr or radian)
  Cent   Atom   N1       Length/X         N2         Alpha/Y        N3         Beta/Z          J
 -----------------------------------------------------------------------------------------------
         X 
         X        1   0.000000(     1)
      1  C        1  -0.007582(     2)      2   0.000000(     9)
      2  N        1  -0.000342(     3)      2   0.000000(    10)      3  -0.008788(    16)     0
      3  N        1   0.014379(     4)      2   0.000000(    11)      3  -0.014249(    17)     0
      4  N        1  -0.000015(     5)      2   0.000000(    12)      3   0.004088(    18)     0
      5  N        1   0.012879(     6)      2   0.000000(    13)      3   0.016401(    19)     0
      6  H        3  -0.000393(     7)      4   0.001655(    14)      5   0.000000(    20)     0
      7  H        4   0.000640(     8)      5  -0.001857(    15)      6   0.000000(    21)     0
 -----------------------------------------------------------------------------------------------
 Internal  Forces:  Max     0.016400542 RMS     0.006910758

 GradGradGradGradGradGradGradGradGradGradGradGradGradGradGradGradGradGrad
 Berny optimization.
 Search for a local minimum.
 Step number   2 out of a maximum of   22
 All quantities printed in internal units (Hartrees-Bohrs-Radians)
 Update second derivatives using D2CorN and points    1    2
 DE= -1.04D-02 DEPred=-1.09D-02 R= 9.60D-01
 TightC=F SS=  1.41D+00  RLast= 2.08D-01 DXNew= 5.0454D-01 6.2291D-01
 Trust test= 9.60D-01 RLast= 2.08D-01 DXMaxT set to 5.05D-01
 The second derivative matrix:
                          rn1       rn2       rn3       rn4       rch
           rn1          0.65231
           rn2          0.01097   0.66763
           rn3          0.03717   0.05523   0.59511
           rn4          0.03401   0.00543   0.11889   0.62784
           rch          0.00025  -0.00059   0.00148  -0.00107   0.37523
           rnh          0.00001  -0.00215  -0.00028  -0.00182   0.00004
           an1          0.02288  -0.74164   0.06084  -0.08390   0.00122
           an2          0.72548  -0.29715  -0.68998   0.05747   0.00186
           an3         -0.03016   1.04210   0.04693  -0.58845  -0.00041
           an4          0.04832  -0.04964   0.62543  -0.10354  -0.00215
           ach          0.04518  -0.00339  -0.00221   0.04843  -0.00008
           anh         -0.10156   0.05519   0.00343   0.00092   0.00021
                          rnh       an1       an2       an3       an4
           rnh          0.48730
           an1          0.00115   4.53790
           an2          0.00189  -2.67325   6.03260
           an3         -0.00056  -0.03630  -3.19656   4.47416
           an4         -0.00217  -0.13105  -0.07716  -1.15995   2.59794
           ach         -0.00024  -0.10380   0.00145  -0.00060   0.07152
           anh          0.00025   0.03568  -0.09006   0.00013  -0.00064
                          ach       anh
           ach          0.31963
           anh          0.00024   0.31998
 ITU=  1  0
     Eigenvalues ---    0.00000   0.15188   0.27570   0.33795   0.37529
     Eigenvalues ---    0.39344   0.48731   0.73546   1.20995   2.98744
     Eigenvalues ---    5.09356   9.63967
 RFO step:  Lambda=-1.07567460D-03 EMin=-1.07437814D-06
 Quartic linear search produced a step of  0.05910.
 Variable       Old X    -DE/DX   Delta X   Delta X   Delta X     New X
                                 (Linear)    (Quad)   (Total)
   rn1        2.37158  -0.00034   0.00138   0.09531   0.09669   2.46827
   rn2        2.63000   0.01438   0.00656   0.09330   0.09986   2.72986
   rn3        2.26664  -0.00002   0.00948  -0.06204  -0.05257   2.21407
   rn4        1.79139   0.01288   0.00241  -0.07351  -0.07111   1.72028
   rch        2.02754  -0.00039   0.00057  -0.00121  -0.00063   2.02690
   rnh        1.89029   0.00064   0.00069   0.00105   0.00174   1.89203
   an1        1.27858  -0.00879   0.00146  -0.04008  -0.03862   1.23996
   an2        2.36147  -0.01425   0.00165  -0.08684  -0.08519   2.27628
   an3        3.39927   0.00409   0.00031  -0.10042  -0.10010   3.29917
   an4        4.78527   0.01640  -0.00196  -0.03077  -0.03273   4.75254
   ach        2.19322   0.00165   0.00066  -0.00241  -0.00175   2.19147
   anh        2.10734  -0.00186  -0.00002  -0.01138  -0.01140   2.09594
         Item               Value     Threshold  Converged?
 Maximum Force            0.016401     0.000450     NO 
 RMS     Force            0.008876     0.000300     NO 
 Maximum Displacement     0.100102     0.001800     NO 
 RMS     Displacement     0.062662     0.001200     NO 
 Predicted change in Energy=-5.676303D-04
 GradGradGradGradGradGradGradGradGradGradGradGradGradGradGradGradGradGrad

 ---------------------------------------------------------------------------------------------------
                            Z-MATRIX (ANGSTROMS AND DEGREES)
   CD    Cent   Atom    N1       Length/X        N2       Alpha/Y        N3        Beta/Z          J
 ---------------------------------------------------------------------------------------------------
      1         X 
      2         X        1   1.000000(     1)
      3      1  C        1   1.000000(     2)      2   90.000(     9)
      4      2  N        1   1.306152(     3)      2   90.000(    10)      3   71.044(    16)      0
      5      3  N        1   1.444582(     4)      2   90.000(    11)      3  130.421(    17)      0
      6      4  N        1   1.171637(     5)      2   90.000(    12)      3  189.029(    18)      0
      7      5  N        1   0.910335(     6)      2   90.000(    13)      3  272.301(    19)      0
      8      6  H        3   1.072590(     7)      4  125.562(    14)      5  180.000(    20)      0
      9      7  H        4   1.001221(     8)      5  120.089(    15)      6  180.000(    21)      0
 ---------------------------------------------------------------------------------------------------
                         Z-Matrix orientation:                         
 ---------------------------------------------------------------------
 Center     Atomic      Atomic             Coordinates (Angstroms)
 Number     Number       Type             X           Y           Z
 ---------------------------------------------------------------------
      1         -1           0        0.000000    0.000000    0.000000
      2         -1           0        0.000000    0.000000    1.000000
      3          6           0        1.000000    0.000000    0.000000
      4          7           0        0.424286   -1.235320    0.000000
      5          7           0       -0.936671   -1.099757    0.000000
      6          7           0       -1.157120    0.183864    0.000000
      7          7           0        0.036545    0.909601    0.000000
      8          1           0        2.054375    0.196830    0.000000
      9          1           0        0.837897   -2.147114    0.000000
 ---------------------------------------------------------------------
                    Distance matrix (angstroms):
                    1          2          3          4          5
     1  X    0.000000
     2  X    1.000000   0.000000
     3  C    1.000000   1.414214   0.000000
     4  N    1.306152   1.645003   1.362888   0.000000
     5  N    1.444582   1.756934   2.227142   1.367692   0.000000
     6  N    1.171637   1.540368   2.164942   2.124836   1.302413
     7  N    0.910335   1.352298   1.324998   2.179686   2.232637
     8  H    2.063783   2.293295   1.072590   2.169849   3.259984
     9  H    2.304815   2.512404   2.153225   1.001221   2.060595
                    6          7          8          9
     6  N    0.000000
     7  N    1.396972   0.000000
     8  H    3.211521   2.140019   0.000000
     9  H    3.068151   3.160012   2.640813   0.000000
 Stoichiometry    CH2N4
 Framework group  CS[SG(CH2N4)]
 Deg. of freedom    11
 Full point group                 CS      NOp   2
 Largest Abelian subgroup         CS      NOp   2
 Largest concise Abelian subgroup C1      NOp   1
                         Standard orientation:                         
 ---------------------------------------------------------------------
 Center     Atomic      Atomic             Coordinates (Angstroms)
 Number     Number       Type             X           Y           Z
 ---------------------------------------------------------------------
      1          6           0        1.084949    0.237195    0.000000
      2          7           0        0.000000    1.062027    0.000000
      3          7           0       -1.141067    0.308005    0.000000
      4          7           0       -0.738089   -0.930497    0.000000
      5          7           0        0.656231   -1.016528    0.000000
      6          1           0        2.109603    0.554266    0.000000
      7          1           0       -0.058826    2.061518    0.000000
 ---------------------------------------------------------------------
 Rotational constants (GHZ):     10.3778553      9.9805733      5.0876690
 Standard basis: 6-31G (6D, 7F)
 There are    39 symmetry adapted cartesian basis functions of A'  symmetry.
 There are    10 symmetry adapted cartesian basis functions of A"  symmetry.
 There are    39 symmetry adapted basis functions of A'  symmetry.
 There are    10 symmetry adapted basis functions of A"  symmetry.
    49 basis functions,   118 primitive gaussians,    49 cartesian basis functions
    18 alpha electrons       18 beta electrons
       nuclear repulsion energy       164.7089779066 Hartrees.
 NAtoms=    7 NActive=    7 NUniq=    7 SFac= 1.00D+00 NAtFMM=   60 NAOKFM=F Big=F
 Integral buffers will be    131072 words long.
 Raffenetti 1 integral format.
 Two-electron integral symmetry is turned on.
 One-electron integrals computed using PRISM.
 NBasis=    49 RedAO= T EigKep=  7.10D-03  NBF=    39    10
 NBsUse=    49 1.00D-06 EigRej= -1.00D+00 NBFU=    39    10
 Initial guess from the checkpoint file:  "/tmp/rdj3/g09-16833/Gau-25935.chk"
 B after Tr=     0.000000    0.000000    0.000000
         Rot=    0.999997    0.000000    0.000000    0.002265 Ang=   0.26 deg.
 Initial guess orbital symmetries:
       Occupied  (A') (A') (A') (A') (A') (A') (A') (A') (A') (A')
                 (A') (A') (A") (A') (A') (A') (A") (A")
       Virtual   (A') (A') (A') (A') (A') (A') (A') (A') (A') (A')
                 (A') (A') (A') (A') (A') (A') (A') (A') (A') (A')
                 (A') (A') (A') (A') (A") (A") (A") (A") (A") (A")
                 (A")
 ExpMin= 1.61D-01 ExpMax= 4.17D+03 ExpMxC= 6.27D+02 IAcc=1 IRadAn=         1 AccDes= 0.00D+00
 Harris functional with IExCor=  205 and IRadAn=       1 diagonalized for initial guess.
 HarFok:  IExCor=  205 AccDes= 0.00D+00 IRadAn=         1 IDoV= 1 UseB2=F ITyADJ=14
 ICtDFT=  3500011 ScaDFX=  1.000000  1.000000  1.000000  1.000000
 FoFCou: FMM=F IPFlag=           0 FMFlag=      100000 FMFlg1=           0
         NFxFlg=           0 DoJE=T BraDBF=F KetDBF=T FulRan=T
         wScrn=  0.000000 ICntrl=     500 IOpCl=  0 I1Cent=   200000004 NGrid=           0
         NMat0=    1 NMatS0=      1 NMatT0=    0 NMatD0=    1 NMtDS0=    0 NMtDT0=    0
 Petite list used in FoFCou.
 Keep R1 ints in memory in symmetry-blocked form, NReq=1603079.
 Requested convergence on RMS density matrix=1.00D-08 within 128 cycles.
 Requested convergence on MAX density matrix=1.00D-06.
 Requested convergence on             energy=1.00D-06.
 No special actions if energy rises.
 SCF Done:  E(RHF) =  -256.587665851     A.U. after   13 cycles
            NFock= 13  Conv=0.79D-08     -V/T= 2.0005
 ExpMin= 1.61D-01 ExpMax= 4.17D+03 ExpMxC= 6.27D+02 IAcc=3 IRadAn=         5 AccDes= 0.00D+00
 HarFok:  IExCor=  205 AccDes= 0.00D+00 IRadAn=         5 IDoV=-2 UseB2=F ITyADJ=14
 ICtDFT= 12500011 ScaDFX=  1.000000  1.000000  1.000000  1.000000
 Range of M.O.s used for correlation:     6    49
 NBasis=    49 NAE=    18 NBE=    18 NFC=     5 NFV=     0
 NROrb=     44 NOA=    13 NOB=    13 NVA=    31 NVB=    31
 Semi-Direct transformation.
 ModeAB=           2 MOrb=            13 LenV=     435851232
 LASXX=       227383 LTotXX=      227383 LenRXX=      227383
 LTotAB=      247599 MaxLAS=      700700 LenRXY=      700700
 NonZer=      732160 LenScr=     1646592 LnRSAI=           0
 LnScr1=           0 LExtra=           0 Total=      2574675
 MaxDsk=          -1 SrtSym=           F ITran=            4
 JobTyp=0 Pass  1:  I=   1 to  13.
 (rs|ai) integrals will be sorted in core.
 Spin components of T(2) and E(2):
     alpha-alpha T2 =       0.3065896102D-01 E2=     -0.7428161052D-01
     alpha-beta  T2 =       0.1636715994D+00 E2=     -0.4023514648D+00
     beta-beta   T2 =       0.3065896102D-01 E2=     -0.7428161052D-01
 ANorm=    0.1106792447D+01
 E2 =    -0.5509146858D+00 EUMP2 =    -0.25713858053667D+03
 Keep R2 and R3 ints in memory in symmetry-blocked form, NReq=1654951.
 Iterations=  50 Convergence= 0.100D-07
 Iteration Nr.   1
 **********************
 DD1Dir will call FoFMem   1 times, MxPair=       182
 NAB=    91 NAA=     0 NBB=     0.
 E3=        0.13470440D-01        EUMP3=      -0.25712511010D+03
 DE(CI)=     -0.44128075     E(CI)=       -257.02894660    
 NORM(A)=   0.10748030D+01
 Iteration Nr.   2
 **********************
 DD1Dir will call FoFMem   1 times, MxPair=       182
 NAB=    91 NAA=     0 NBB=     0.
 DE(CI)=     -0.46924174     E(CI)=       -257.05690759    
 NORM(A)=   0.10775038D+01
 Iteration Nr.   3
 **********************
 DD1Dir will call FoFMem   1 times, MxPair=       182
 NAB=    91 NAA=     0 NBB=     0.
 DE(CI)=     -0.46805563     E(CI)=       -257.05572148    
 NORM(A)=   0.10773939D+01
 Iteration Nr.   4
 **********************
 DD1Dir will call FoFMem   1 times, MxPair=       182
 NAB=    91 NAA=     0 NBB=     0.
 DE(CI)=     -0.46864791     E(CI)=       -257.05631376    
 NORM(A)=   0.10776241D+01
 Iteration Nr.   5
 **********************
 DD1Dir will call FoFMem   1 times, MxPair=       182
 NAB=    91 NAA=     0 NBB=     0.
 DE(CI)=     -0.46867727     E(CI)=       -257.05634312    
 NORM(A)=   0.10776493D+01
 Iteration Nr.   6
 **********************
 DD1Dir will call FoFMem   1 times, MxPair=       182
 NAB=    91 NAA=     0 NBB=     0.
 DE(CI)=     -0.46867636     E(CI)=       -257.05634221    
 NORM(A)=   0.10776461D+01
 Iteration Nr.   7
 **********************
 DD1Dir will call FoFMem   1 times, MxPair=       182
 NAB=    91 NAA=     0 NBB=     0.
 DE(CI)=     -0.46867396     E(CI)=       -257.05633981    
 NORM(A)=   0.10776454D+01
 Iteration Nr.   8
 **********************
 DD1Dir will call FoFMem   1 times, MxPair=       182
 NAB=    91 NAA=     0 NBB=     0.
 DE(CI)=     -0.46867516     E(CI)=       -257.05634101    
 NORM(A)=   0.10776457D+01
 Iteration Nr.   9
 **********************
 DD1Dir will call FoFMem   1 times, MxPair=       182
 NAB=    91 NAA=     0 NBB=     0.
 DE(CI)=     -0.46867513     E(CI)=       -257.05634098    
 NORM(A)=   0.10776459D+01
 Iteration Nr.  10
 **********************
 DD1Dir will call FoFMem   1 times, MxPair=       182
 NAB=    91 NAA=     0 NBB=     0.
 DE(CI)=     -0.46867512     E(CI)=       -257.05634098    
 NORM(A)=   0.10776459D+01
 Iteration Nr.  11
 **********************
 DD1Dir will call FoFMem   1 times, MxPair=       182
 NAB=    91 NAA=     0 NBB=     0.
 DE(CI)=     -0.46867512     E(CI)=       -257.05634098    
 NORM(A)=   0.10776459D+01
 Iteration Nr.  12
 **********************
 DD1Dir will call FoFMem   1 times, MxPair=       182
 NAB=    91 NAA=     0 NBB=     0.
 DE(CI)=     -0.46867512     E(CI)=       -257.05634097    
 NORM(A)=   0.10776459D+01
 ***************************************************************
 Largest amplitude= 5.86D-02
 Discarding MO integrals.
          IDoAtm=1111111
          Differentiating once with respect to electric field.
                with respect to dipole field.
          Differentiating once with respect to nuclear coordinates.
 Keep R1 ints in memory in symmetry-blocked form, NReq=1586795.
          There are     1 degrees of freedom in the 1st order CPHF.  IDoFFX=0 NUNeed=     1.
 LinEq1:  Iter=  0 NonCon=     1 RMS=5.95D-03 Max=4.35D-02 NDo=     1
 AX will form     1 AO Fock derivatives at one time.
 LinEq1:  Iter=  1 NonCon=     1 RMS=1.46D-03 Max=9.24D-03 NDo=     1
 LinEq1:  Iter=  2 NonCon=     1 RMS=6.13D-04 Max=9.40D-03 NDo=     1
 LinEq1:  Iter=  3 NonCon=     1 RMS=2.34D-04 Max=1.89D-03 NDo=     1
 LinEq1:  Iter=  4 NonCon=     1 RMS=7.99D-05 Max=5.12D-04 NDo=     1
 LinEq1:  Iter=  5 NonCon=     1 RMS=4.03D-05 Max=4.94D-04 NDo=     1
 LinEq1:  Iter=  6 NonCon=     1 RMS=1.28D-05 Max=1.62D-04 NDo=     1
 LinEq1:  Iter=  7 NonCon=     1 RMS=6.24D-06 Max=8.93D-05 NDo=     1
 LinEq1:  Iter=  8 NonCon=     1 RMS=2.21D-06 Max=2.52D-05 NDo=     1
 LinEq1:  Iter=  9 NonCon=     1 RMS=3.52D-07 Max=2.38D-06 NDo=     1
 LinEq1:  Iter= 10 NonCon=     1 RMS=5.60D-08 Max=3.57D-07 NDo=     1
 LinEq1:  Iter= 11 NonCon=     1 RMS=2.92D-08 Max=1.53D-07 NDo=     1
 LinEq1:  Iter= 12 NonCon=     1 RMS=5.83D-09 Max=4.47D-08 NDo=     1
 LinEq1:  Iter= 13 NonCon=     1 RMS=7.87D-10 Max=7.59D-09 NDo=     1
 LinEq1:  Iter= 14 NonCon=     0 RMS=9.81D-11 Max=5.84D-10 NDo=     1
 Linear equations converged to 1.000D-10 1.000D-09 after    14 iterations.
 End of Minotr F.D. properties file   721 does not exist.
 End of Minotr F.D. properties file   722 does not exist.
 End of Minotr F.D. properties file   788 does not exist.
 Calling FoFJK, ICntrl=  10002127 FMM=F ISym2X=1 I1Cent= 0 IOpClX= 0 NMat=1 NMatS=1 NMatT=0.
 ***** Axes restored to original set *****
 -------------------------------------------------------------------
 Center     Atomic                   Forces (Hartrees/Bohr)
 Number     Number              X              Y              Z
 -------------------------------------------------------------------
      1        6           0.000246714   -0.004207792    0.000000000
      2        7           0.009207198   -0.001929432    0.000000000
      3        7           0.002460295    0.006699391    0.000000000
      4        7          -0.012951885    0.005406240    0.000000000
      5        7          -0.000214498   -0.005791488    0.000000000
      6        1           0.000295234   -0.000604614    0.000000000
      7        1           0.000956942    0.000427695    0.000000000
 -------------------------------------------------------------------
 Cartesian Forces:  Max     0.012951885 RMS     0.004305666
 -----------------------------------------------------------------------------------------------
                       Internal Coordinate Forces (Hartree/Bohr or radian)
  Cent   Atom   N1       Length/X         N2         Alpha/Y        N3         Beta/Z          J
 -----------------------------------------------------------------------------------------------
         X 
         X        1   0.000000(     1)
      1  C        1   0.001005(     2)      2   0.000000(     9)
      2  N        1   0.003670(     3)      2   0.000000(    10)      3  -0.022406(    16)     0
      3  N        1  -0.006065(     4)      2   0.000000(    11)      3   0.005552(    17)     0
      4  N        1   0.013640(     5)      2   0.000000(    12)      3   0.007321(    18)     0
      5  N        1  -0.005795(     6)      2   0.000000(    13)      3   0.000031(    19)     0
      6  H        3   0.000179(     7)      4  -0.001314(    14)      5   0.000000(    20)     0
      7  H        4   0.000006(     8)      5   0.001983(    15)      6   0.000000(    21)     0
 -----------------------------------------------------------------------------------------------
 Internal  Forces:  Max     0.022405918 RMS     0.006410700

 GradGradGradGradGradGradGradGradGradGradGradGradGradGradGradGradGradGrad
 Berny optimization.
 Search for a local minimum.
 Step number   3 out of a maximum of   22
 All quantities printed in internal units (Hartrees-Bohrs-Radians)
 Update second derivatives using D2CorN and points    1    2    3
 DE= -1.11D-04 DEPred=-5.68D-04 R= 1.95D-01
 Trust test= 1.95D-01 RLast= 2.17D-01 DXMaxT set to 5.05D-01
 The second derivative matrix:
                          rn1       rn2       rn3       rn4       rch
           rn1          0.64172
           rn2          0.00876   0.67705
           rn3          0.01701   0.02543   0.59259
           rn4          0.04194   0.00657   0.12598   0.61987
           rch         -0.00007  -0.00079   0.00113  -0.00098   0.37524
           rnh         -0.00049  -0.00242  -0.00156  -0.00172   0.00003
           an1          0.05866  -0.69495   0.07434  -0.10240   0.00259
           an2          0.72481  -0.30512  -0.67131   0.05676   0.00220
           an3         -0.03668   1.02051   0.06241  -0.58852  -0.00066
           an4          0.04658  -0.05973   0.62731  -0.10516  -0.00258
           ach          0.04652  -0.00176  -0.00293   0.04739  -0.00005
           anh         -0.10336   0.05166   0.00591   0.00173   0.00019
                          rnh       an1       an2       an3       an4
           rnh          0.48726
           an1          0.00353   4.52096
           an2          0.00205  -2.69382   6.04164
           an3         -0.00122  -0.06451  -3.18409   4.49472
           an4         -0.00271  -0.14667  -0.07490  -1.15208   2.60321
           ach         -0.00020  -0.10313   0.00054  -0.00243   0.07044
           anh          0.00017   0.03276  -0.08768   0.00365   0.00066
                          ach       anh
           ach          0.31965
           anh          0.00006   0.32052
 ITU=  0  1  0
     Eigenvalues ---   -0.00505   0.15546   0.28690   0.33932   0.37530
     Eigenvalues ---    0.40563   0.48724   0.72687   1.21005   2.98250
     Eigenvalues ---    5.09002   9.64018
 RFO step:  Lambda=-5.16186451D-03 EMin=-5.05216515D-03
 I=     1 Eig=   -5.05D-03 Dot1= -4.43D-04
 I=     1 Stepn= -6.00D-01 RXN=   6.00D-01 EDone=F
 Mixed    1 eigenvectors in step.  Raw Step.Grad=  4.43D-04.
 RFO eigenvector is Hessian eigenvector with negative curvature.
 Taking step of  6.00D-01 in eigenvector direction(s).  Step.Grad=  2.42D-03.
 Quartic linear search produced a step of -0.44249.
 Maximum step size (   0.505) exceeded in Quadratic search.
    -- Step size scaled by   0.841
 Variable       Old X    -DE/DX   Delta X   Delta X   Delta X     New X
                                 (Linear)    (Quad)   (Total)
   rn1        2.46827   0.00367  -0.04279   0.23785   0.19506   2.66333
   rn2        2.72986  -0.00606  -0.04419   0.13395   0.08977   2.81963
   rn3        2.21407   0.01364   0.02326  -0.00830   0.01496   2.22903
   rn4        1.72028  -0.00580   0.03146  -0.25236  -0.22089   1.49939
   rch        2.02690   0.00018   0.00028   0.00031   0.00059   2.02750
   rnh        1.89203   0.00001  -0.00077   0.00032  -0.00045   1.89158
   an1        1.23996  -0.02241   0.01709  -0.10926  -0.09217   1.14779
   an2        2.27628   0.00555   0.03770  -0.19099  -0.15330   2.12299
   an3        3.29917   0.00732   0.04429  -0.22933  -0.18504   3.11414
   an4        4.75254   0.00003   0.01448  -0.12212  -0.10764   4.64491
   ach        2.19147  -0.00131   0.00078  -0.00621  -0.00544   2.18603
   anh        2.09594   0.00198   0.00504   0.01812   0.02317   2.11911
         Item               Value     Threshold  Converged?
 Maximum Force            0.022406     0.000450     NO 
 RMS     Force            0.008476     0.000300     NO 
 Maximum Displacement     0.220894     0.001800     NO 
 RMS     Displacement     0.120247     0.001200     NO 
 Predicted change in Energy=-1.781093D-03
 GradGradGradGradGradGradGradGradGradGradGradGradGradGradGradGradGradGrad

 ---------------------------------------------------------------------------------------------------
                            Z-MATRIX (ANGSTROMS AND DEGREES)
   CD    Cent   Atom    N1       Length/X        N2       Alpha/Y        N3        Beta/Z          J
 ---------------------------------------------------------------------------------------------------
      1         X 
      2         X        1   1.000000(     1)
      3      1  C        1   1.000000(     2)      2   90.000(     9)
      4      2  N        1   1.409376(     3)      2   90.000(    10)      3   65.763(    16)      0
      5      3  N        1   1.492084(     4)      2   90.000(    11)      3  121.638(    17)      0
      6      4  N        1   1.179555(     5)      2   90.000(    12)      3  178.427(    18)      0
      7      5  N        1   0.793443(     6)      2   90.000(    13)      3  266.134(    19)      0
      8      6  H        3   1.072905(     7)      4  125.250(    14)      5  180.000(    20)      0
      9      7  H        4   1.000982(     8)      5  121.416(    15)      6  180.000(    21)      0
 ---------------------------------------------------------------------------------------------------
                         Z-Matrix orientation:                         
 ---------------------------------------------------------------------
 Center     Atomic      Atomic             Coordinates (Angstroms)
 Number     Number       Type             X           Y           Z
 ---------------------------------------------------------------------
      1         -1           0        0.000000    0.000000    0.000000
      2         -1           0        0.000000    0.000000    1.000000
      3          6           0        1.000000    0.000000    0.000000
      4          7           0        0.578559   -1.285150    0.000000
      5          7           0       -0.782676   -1.270328    0.000000
      6          7           0       -1.179110   -0.032381    0.000000
      7          7           0       -0.053503    0.791637    0.000000
      8          1           0        2.025506    0.315376    0.000000
      9          1           0        1.090987   -2.145023    0.000000
 ---------------------------------------------------------------------
                    Distance matrix (angstroms):
                    1          2          3          4          5
     1  X    0.000000
     2  X    1.000000   0.000000
     3  C    1.000000   1.414214   0.000000
     4  N    1.409376   1.728103   1.352487   0.000000
     5  N    1.492084   1.796195   2.188988   1.361316   0.000000
     6  N    1.179555   1.546399   2.179351   2.158432   1.299874
     7  N    0.793443   1.276539   1.317785   2.170840   2.187097
     8  H    2.049911   2.280819   1.072905   2.157623   3.224957
     9  H    2.406528   2.606027   2.146952   1.000982   2.067778
                    6          7          8          9
     6  N    0.000000
     7  N    1.394990   0.000000
     8  H    3.223429   2.132862   0.000000
     9  H    3.101064   3.151798   2.631899   0.000000
 Stoichiometry    CH2N4
 Framework group  CS[SG(CH2N4)]
 Deg. of freedom    11
 Full point group                 CS      NOp   2
 Largest Abelian subgroup         CS      NOp   2
 Largest concise Abelian subgroup C1      NOp   1
                         Standard orientation:                         
 ---------------------------------------------------------------------
 Center     Atomic      Atomic             Coordinates (Angstroms)
 Number     Number       Type             X           Y           Z
 ---------------------------------------------------------------------
      1          6           0        1.072964    0.248514    0.000000
      2          7           0        0.000000    1.071905    0.000000
      3          7           0       -1.115597    0.291761    0.000000
      4          7           0       -0.744572   -0.954038    0.000000
      5          7           0        0.649678   -0.999439    0.000000
      6          1           0        2.097625    0.566624    0.000000
      7          1           0       -0.061969    2.070966    0.000000
 ---------------------------------------------------------------------
 Rotational constants (GHZ):     10.3539733     10.1503794      5.1255828
 Standard basis: 6-31G (6D, 7F)
 There are    39 symmetry adapted cartesian basis functions of A'  symmetry.
 There are    10 symmetry adapted cartesian basis functions of A"  symmetry.
 There are    39 symmetry adapted basis functions of A'  symmetry.
 There are    10 symmetry adapted basis functions of A"  symmetry.
    49 basis functions,   118 primitive gaussians,    49 cartesian basis functions
    18 alpha electrons       18 beta electrons
       nuclear repulsion energy       165.2992298926 Hartrees.
 NAtoms=    7 NActive=    7 NUniq=    7 SFac= 1.00D+00 NAtFMM=   60 NAOKFM=F Big=F
 Integral buffers will be    131072 words long.
 Raffenetti 1 integral format.
 Two-electron integral symmetry is turned on.
 One-electron integrals computed using PRISM.
 NBasis=    49 RedAO= T EigKep=  6.93D-03  NBF=    39    10
 NBsUse=    49 1.00D-06 EigRej= -1.00D+00 NBFU=    39    10
 Initial guess from the checkpoint file:  "/tmp/rdj3/g09-16833/Gau-25935.chk"
 B after Tr=     0.000000    0.000000    0.000000
         Rot=    0.999996    0.000000    0.000000   -0.002920 Ang=  -0.33 deg.
 Initial guess orbital symmetries:
       Occupied  (A') (A') (A') (A') (A') (A') (A') (A') (A') (A')
                 (A') (A') (A") (A') (A') (A') (A") (A")
       Virtual   (A') (A') (A') (A') (A') (A') (A') (A') (A') (A')
                 (A') (A') (A') (A') (A') (A') (A') (A') (A') (A')
                 (A') (A') (A') (A') (A") (A") (A") (A") (A") (A")
                 (A")
 ExpMin= 1.61D-01 ExpMax= 4.17D+03 ExpMxC= 6.27D+02 IAcc=1 IRadAn=         1 AccDes= 0.00D+00
 Harris functional with IExCor=  205 and IRadAn=       1 diagonalized for initial guess.
 HarFok:  IExCor=  205 AccDes= 0.00D+00 IRadAn=         1 IDoV= 1 UseB2=F ITyADJ=14
 ICtDFT=  3500011 ScaDFX=  1.000000  1.000000  1.000000  1.000000
 FoFCou: FMM=F IPFlag=           0 FMFlag=      100000 FMFlg1=           0
         NFxFlg=           0 DoJE=T BraDBF=F KetDBF=T FulRan=T
         wScrn=  0.000000 ICntrl=     500 IOpCl=  0 I1Cent=   200000004 NGrid=           0
         NMat0=    1 NMatS0=      1 NMatT0=    0 NMatD0=    1 NMtDS0=    0 NMtDT0=    0
 Petite list used in FoFCou.
 Keep R1 ints in memory in symmetry-blocked form, NReq=1603106.
 Requested convergence on RMS density matrix=1.00D-08 within 128 cycles.
 Requested convergence on MAX density matrix=1.00D-06.
 Requested convergence on             energy=1.00D-06.
 No special actions if energy rises.
 SCF Done:  E(RHF) =  -256.588169597     A.U. after   12 cycles
            NFock= 12  Conv=0.94D-08     -V/T= 2.0002
 ExpMin= 1.61D-01 ExpMax= 4.17D+03 ExpMxC= 6.27D+02 IAcc=3 IRadAn=         5 AccDes= 0.00D+00
 HarFok:  IExCor=  205 AccDes= 0.00D+00 IRadAn=         5 IDoV=-2 UseB2=F ITyADJ=14
 ICtDFT= 12500011 ScaDFX=  1.000000  1.000000  1.000000  1.000000
 Range of M.O.s used for correlation:     6    49
 NBasis=    49 NAE=    18 NBE=    18 NFC=     5 NFV=     0
 NROrb=     44 NOA=    13 NOB=    13 NVA=    31 NVB=    31
 Semi-Direct transformation.
 ModeAB=           2 MOrb=            13 LenV=     435851232
 LASXX=       227383 LTotXX=      227383 LenRXX=      227383
 LTotAB=      247599 MaxLAS=      700700 LenRXY=      700700
 NonZer=      732160 LenScr=     1646592 LnRSAI=           0
 LnScr1=           0 LExtra=           0 Total=      2574675
 MaxDsk=          -1 SrtSym=           F ITran=            4
 JobTyp=0 Pass  1:  I=   1 to  13.
 (rs|ai) integrals will be sorted in core.
 Spin components of T(2) and E(2):
     alpha-alpha T2 =       0.3031340099D-01 E2=     -0.7385499115D-01
     alpha-beta  T2 =       0.1620392455D+00 E2=     -0.4004085012D+00
     beta-beta   T2 =       0.3031340099D-01 E2=     -0.7385499115D-01
 ANorm=    0.1105742306D+01
 E2 =    -0.5481184835D+00 EUMP2 =    -0.25713628808098D+03
 Keep R2 and R3 ints in memory in symmetry-blocked form, NReq=1654951.
 Iterations=  50 Convergence= 0.100D-07
 Iteration Nr.   1
 **********************
 DD1Dir will call FoFMem   1 times, MxPair=       182
 NAB=    91 NAA=     0 NBB=     0.
 E3=        0.12695725D-01        EUMP3=      -0.25712359236D+03
 DE(CI)=     -0.44040140     E(CI)=       -257.02857100    
 NORM(A)=   0.10743463D+01
 Iteration Nr.   2
 **********************
 DD1Dir will call FoFMem   1 times, MxPair=       182
 NAB=    91 NAA=     0 NBB=     0.
 DE(CI)=     -0.46780901     E(CI)=       -257.05597861    
 NORM(A)=   0.10770650D+01
 Iteration Nr.   3
 **********************
 DD1Dir will call FoFMem   1 times, MxPair=       182
 NAB=    91 NAA=     0 NBB=     0.
 DE(CI)=     -0.46668908     E(CI)=       -257.05485867    
 NORM(A)=   0.10769730D+01
 Iteration Nr.   4
 **********************
 DD1Dir will call FoFMem   1 times, MxPair=       182
 NAB=    91 NAA=     0 NBB=     0.
 DE(CI)=     -0.46726976     E(CI)=       -257.05543936    
 NORM(A)=   0.10771983D+01
 Iteration Nr.   5
 **********************
 DD1Dir will call FoFMem   1 times, MxPair=       182
 NAB=    91 NAA=     0 NBB=     0.
 DE(CI)=     -0.46729782     E(CI)=       -257.05546742    
 NORM(A)=   0.10772215D+01
 Iteration Nr.   6
 **********************
 DD1Dir will call FoFMem   1 times, MxPair=       182
 NAB=    91 NAA=     0 NBB=     0.
 DE(CI)=     -0.46729733     E(CI)=       -257.05546692    
 NORM(A)=   0.10772184D+01
 Iteration Nr.   7
 **********************
 DD1Dir will call FoFMem   1 times, MxPair=       182
 NAB=    91 NAA=     0 NBB=     0.
 DE(CI)=     -0.46729489     E(CI)=       -257.05546449    
 NORM(A)=   0.10772177D+01
 Iteration Nr.   8
 **********************
 DD1Dir will call FoFMem   1 times, MxPair=       182
 NAB=    91 NAA=     0 NBB=     0.
 DE(CI)=     -0.46729605     E(CI)=       -257.05546564    
 NORM(A)=   0.10772180D+01
 Iteration Nr.   9
 **********************
 DD1Dir will call FoFMem   1 times, MxPair=       182
 NAB=    91 NAA=     0 NBB=     0.
 DE(CI)=     -0.46729602     E(CI)=       -257.05546561    
 NORM(A)=   0.10772182D+01
 Iteration Nr.  10
 **********************
 DD1Dir will call FoFMem   1 times, MxPair=       182
 NAB=    91 NAA=     0 NBB=     0.
 DE(CI)=     -0.46729601     E(CI)=       -257.05546561    
 NORM(A)=   0.10772182D+01
 Iteration Nr.  11
 **********************
 DD1Dir will call FoFMem   1 times, MxPair=       182
 NAB=    91 NAA=     0 NBB=     0.
 DE(CI)=     -0.46729601     E(CI)=       -257.05546561    
 NORM(A)=   0.10772182D+01
 Iteration Nr.  12
 **********************
 DD1Dir will call FoFMem   1 times, MxPair=       182
 NAB=    91 NAA=     0 NBB=     0.
 DE(CI)=     -0.46729601     E(CI)=       -257.05546561    
 NORM(A)=   0.10772182D+01
 ***************************************************************
 Largest amplitude= 5.62D-02
 Discarding MO integrals.
          IDoAtm=1111111
          Differentiating once with respect to electric field.
                with respect to dipole field.
          Differentiating once with respect to nuclear coordinates.
 Keep R1 ints in memory in symmetry-blocked form, NReq=1586908.
          There are     1 degrees of freedom in the 1st order CPHF.  IDoFFX=0 NUNeed=     1.
 LinEq1:  Iter=  0 NonCon=     1 RMS=5.86D-03 Max=4.36D-02 NDo=     1
 AX will form     1 AO Fock derivatives at one time.
 LinEq1:  Iter=  1 NonCon=     1 RMS=1.41D-03 Max=8.78D-03 NDo=     1
 LinEq1:  Iter=  2 NonCon=     1 RMS=5.74D-04 Max=8.97D-03 NDo=     1
 LinEq1:  Iter=  3 NonCon=     1 RMS=2.18D-04 Max=1.60D-03 NDo=     1
 LinEq1:  Iter=  4 NonCon=     1 RMS=7.19D-05 Max=4.61D-04 NDo=     1
 LinEq1:  Iter=  5 NonCon=     1 RMS=3.42D-05 Max=4.57D-04 NDo=     1
 LinEq1:  Iter=  6 NonCon=     1 RMS=1.09D-05 Max=1.32D-04 NDo=     1
 LinEq1:  Iter=  7 NonCon=     1 RMS=5.48D-06 Max=7.69D-05 NDo=     1
 LinEq1:  Iter=  8 NonCon=     1 RMS=1.94D-06 Max=2.54D-05 NDo=     1
 LinEq1:  Iter=  9 NonCon=     1 RMS=3.22D-07 Max=2.32D-06 NDo=     1
 LinEq1:  Iter= 10 NonCon=     1 RMS=4.62D-08 Max=2.88D-07 NDo=     1
 LinEq1:  Iter= 11 NonCon=     1 RMS=2.34D-08 Max=1.26D-07 NDo=     1
 LinEq1:  Iter= 12 NonCon=     1 RMS=5.25D-09 Max=3.90D-08 NDo=     1
 LinEq1:  Iter= 13 NonCon=     1 RMS=7.10D-10 Max=6.97D-09 NDo=     1
 LinEq1:  Iter= 14 NonCon=     0 RMS=8.79D-11 Max=5.54D-10 NDo=     1
 Linear equations converged to 1.000D-10 1.000D-09 after    14 iterations.
 End of Minotr F.D. properties file   721 does not exist.
[...]
 IR Inten    --     27.0472                 6.8588               156.4954
  Atom  AN      X      Y      Z        X      Y      Z        X      Y      Z
     1   6     0.00   0.00   0.27     0.00   0.00   0.15     0.00   0.00   0.01
     2   7     0.00   0.00  -0.33     0.00   0.00   0.17     0.00   0.00   0.05
     3   7     0.00   0.00   0.22     0.00   0.00  -0.33     0.00   0.00   0.07
     4   7     0.00   0.00   0.01     0.00   0.00   0.43     0.00   0.00  -0.07
     5   7     0.00   0.00  -0.19     0.00   0.00  -0.38     0.00   0.00   0.01
     6   1     0.00   0.00   0.86     0.00   0.00   0.29     0.00   0.00   0.05
     7   1     0.00   0.00   0.04     0.00   0.00  -0.65     0.00   0.00  -0.99
                      4                      5                      6
                     A"                     A'                     A'
 Frequencies --    905.7969               910.7650              1025.6141
 Red. masses --      1.3838                 9.5008                 4.8801
 Frc consts  --      0.6689                 4.6432                 3.0244
 IR Inten    --     17.8865                 8.2620                22.7874
  Atom  AN      X      Y      Z        X      Y      Z        X      Y      Z
     1   6     0.00   0.00   0.18    -0.08   0.09   0.00     0.04   0.01   0.00
     2   7     0.00   0.00  -0.04     0.09   0.05   0.00     0.24   0.26   0.00
     3   7     0.00   0.00   0.01     0.10  -0.07   0.00    -0.32  -0.25   0.00
     4   7     0.00   0.00  -0.02     0.46  -0.16   0.00    -0.05  -0.03   0.00
     5   7     0.00   0.00  -0.03    -0.60   0.13   0.00     0.05   0.03   0.00
     6   1     0.00   0.00  -0.98     0.11  -0.57   0.00     0.24  -0.59   0.00
     7   1     0.00   0.00  -0.03    -0.01   0.05   0.00     0.46   0.29   0.00
                      7                      8                      9
                     A'                     A'                     A'
 Frequencies --   1051.8752              1083.4006              1188.9300
 Red. masses --      7.0453                 4.7779                 1.9841
 Frc consts  --      4.5928                 3.3042                 1.6525
 IR Inten    --      2.0070                14.1184                17.1123
  Atom  AN      X      Y      Z        X      Y      Z        X      Y      Z
     1   6     0.37   0.12   0.00    -0.08   0.01   0.00     0.11  -0.12   0.00
     2   7     0.08  -0.25   0.00    -0.03   0.30   0.00    -0.15   0.02   0.00
     3   7     0.03  -0.11   0.00     0.33  -0.08   0.00    -0.04  -0.01   0.00
     4   7    -0.30  -0.09   0.00    -0.21  -0.18   0.00     0.08   0.14   0.00
     5   7    -0.13   0.37   0.00     0.01  -0.03   0.00     0.03   0.01   0.00
     6   1     0.46  -0.08   0.00     0.06  -0.46   0.00     0.31  -0.73   0.00
     7   1    -0.45  -0.30   0.00    -0.65   0.28   0.00    -0.54   0.00   0.00
                     10                     11                     12
                     A'                     A'                     A'
 Frequencies --   1293.8545              1307.2654              1490.4742
 Red. masses --      3.7563                 3.6074                 2.9814
 Frc consts  --      3.7049                 3.6322                 3.9023
 IR Inten    --     13.3399                 3.6481                 8.0953
  Atom  AN      X      Y      Z        X      Y      Z        X      Y      Z
     1   6    -0.01  -0.03   0.00     0.29   0.06   0.00    -0.11   0.30   0.00
     2   7    -0.08  -0.01   0.00    -0.03   0.13   0.00     0.13  -0.12   0.00
     3   7    -0.08   0.28   0.00    -0.13   0.12   0.00    -0.04   0.06   0.00
     4   7     0.02  -0.30   0.00     0.02  -0.14   0.00    -0.01   0.02   0.00
     5   7     0.11   0.11   0.00    -0.09  -0.21   0.00     0.04  -0.16   0.00
     6   1     0.21  -0.73   0.00     0.15   0.66   0.00     0.18  -0.65   0.00
     7   1     0.47   0.03   0.00    -0.55   0.13   0.00    -0.58  -0.19   0.00
                     13                     14                     15
                     A'                     A'                     A'
 Frequencies --   1571.4085              3418.6452              3821.2702
 Red. masses --      2.1055                 1.1042                 1.0850
 Frc consts  --      3.0633                 7.6032                 9.3346
 IR Inten    --     46.1237                 4.0721               140.0980
  Atom  AN      X      Y      Z        X      Y      Z        X      Y      Z
     1   6    -0.10  -0.17   0.00     0.09   0.03   0.00     0.00   0.00   0.00
     2   7     0.16   0.00   0.00     0.00   0.00   0.00    -0.01   0.08   0.00
     3   7    -0.07   0.06   0.00     0.00   0.00   0.00     0.00   0.00   0.00
     4   7     0.04  -0.04   0.00     0.00   0.00   0.00     0.00   0.00   0.00
     5   7     0.04   0.11   0.00     0.00   0.00   0.00     0.00   0.00   0.00
     6   1    -0.27   0.23   0.00    -0.95  -0.30   0.00    -0.02   0.00   0.00
     7   1    -0.88  -0.07   0.00     0.01   0.02   0.00     0.06  -0.99   0.00

 -------------------
 - Thermochemistry -
 -------------------
 Temperature   298.150 Kelvin.  Pressure   1.00000 Atm.
 Atom     1 has atomic number  6 and mass  12.00000
 Atom     2 has atomic number  7 and mass  14.00307
 Atom     3 has atomic number  7 and mass  14.00307
 Atom     4 has atomic number  7 and mass  14.00307
 Atom     5 has atomic number  7 and mass  14.00307
 Atom     6 has atomic number  1 and mass   1.00783
 Atom     7 has atomic number  1 and mass   1.00783
 Molecular mass:    70.02795 amu.
 Principal axes and moments of inertia in atomic units:
                           1         2         3
     Eigenvalues --   175.45835 179.90664 355.36499
           X            0.99867   0.05165   0.00000
           Y           -0.05165   0.99867   0.00000
           Z            0.00000   0.00000   1.00000
 This molecule is an asymmetric top.
 Rotational symmetry number  1.
 Rotational temperatures (Kelvin)      0.49364     0.48144     0.24373
 Rotational constants (GHZ):          10.28587    10.03154     5.07856
 Zero-point vibrational energy     127111.6 (Joules/Mol)
                                   30.38041 (Kcal/Mol)
 Vibrational temperatures:    990.70  1069.36  1079.50  1303.24  1310.39
          (Kelvin)           1475.63  1513.41  1558.77  1710.60  1861.57
                             1880.86  2144.46  2260.90  4918.66  5497.95
 
 Zero-point correction=                           0.048414 (Hartree/Particle)
 Thermal correction to Energy=                    0.051798
 Thermal correction to Enthalpy=                  0.052742
 Thermal correction to Gibbs Free Energy=         0.022317
 Sum of electronic and zero-point Energies=           -257.008231
 Sum of electronic and thermal Energies=              -257.004848
 Sum of electronic and thermal Enthalpies=            -257.003903
 Sum of electronic and thermal Free Energies=         -257.034328
 
                     E (Thermal)             CV                S
                      KCal/Mol        Cal/Mol-Kelvin    Cal/Mol-Kelvin
 Total                   32.504             10.887             64.034
 Electronic               0.000              0.000              0.000
 Translational            0.889              2.981             38.656
 Rotational               0.889              2.981             23.932
 Vibrational             30.726              4.926              1.446
                       Q            Log10(Q)             Ln(Q)
 Total Bot       0.542947D-10        -10.265242        -23.636594
 Total V=0       0.100862D+13         12.003727         27.639603
 Vib (Bot)       0.621729D-22        -22.206399        -51.132123
 Vib (V=0)       0.115497D+01          0.062570          0.144074
 Electronic      0.100000D+01          0.000000          0.000000
 Translational   0.230336D+08          7.362362         16.952466
 Rotational      0.379135D+05          4.578794         10.543064
 ***** Axes restored to original set *****
 -------------------------------------------------------------------
 Center     Atomic                   Forces (Hartrees/Bohr)
 Number     Number              X              Y              Z
 -------------------------------------------------------------------
      1        6          -0.000004691   -0.000003140    0.000000000
      2        7           0.000013116    0.000005889    0.000000000
      3        7          -0.000012058    0.000009181    0.000000000
      4        7          -0.000000176   -0.000006906    0.000000000
      5        7           0.000004282   -0.000006286    0.000000000
      6        1          -0.000000141    0.000000891    0.000000000
      7        1          -0.000000333    0.000000371    0.000000000
 -------------------------------------------------------------------
 Cartesian Forces:  Max     0.000013116 RMS     0.000005232
 -----------------------------------------------------------------------------------------------
                       Internal Coordinate Forces (Hartree/Bohr or radian)
  Cent   Atom   N1       Length/X         N2         Alpha/Y        N3         Beta/Z          J
 -----------------------------------------------------------------------------------------------
         X 
         X        1   0.000000(     1)
      1  C        1  -0.000005(     2)      2   0.000000(     9)
      2  N        1  -0.000001(     3)      2   0.000000(    10)      3  -0.000038(    16)     0
      3  N        1   0.000000(     4)      2   0.000000(    11)      3   0.000043(    17)     0
      4  N        1   0.000000(     5)      2   0.000000(    12)      3  -0.000015(    18)     0
      5  N        1  -0.000006(     6)      2   0.000000(    13)      3   0.000007(    19)     0
      6  H        3   0.000000(     7)      4   0.000002(    14)      5   0.000000(    20)     0
      7  H        4   0.000000(     8)      5   0.000000(    15)      6   0.000000(    21)     0
 -----------------------------------------------------------------------------------------------
 Internal  Forces:  Max     0.000042531 RMS     0.000013062

 GradGradGradGradGradGradGradGradGradGradGradGradGradGradGradGradGradGrad
 Berny optimization.
 Search for a local minimum.
 Step number   1 out of a maximum of    2
 All quantities printed in internal units (Hartrees-Bohrs-Radians)
 Second derivative matrix not updated -- analytic derivatives used.
 The second derivative matrix:
                          rn1       rn2       rn3       rn4       rch
           rn1          0.61357
           rn2         -0.07739   0.58439
           rn3          0.06280  -0.03893   0.50745
           rn4          0.10798   0.08953  -0.03384   0.55271
           rch         -0.00173  -0.00234   0.00006  -0.00395   0.40834
           rnh          0.00569  -0.00860  -0.00057  -0.00140   0.00093
           an1          0.12095  -0.30089  -0.25164   0.14157   0.01109
           an2          0.22883  -0.17031  -0.34053  -0.17151   0.00016
           an3          0.24974   0.48429   0.27471  -0.20465   0.00090
           an4         -0.11858   0.15115   0.20488  -0.19550  -0.00894
           ach          0.04098   0.01190  -0.01282   0.02779   0.00162
           anh         -0.06401   0.02432   0.02606  -0.02009  -0.00152
                          rnh       an1       an2       an3       an4
           rnh          0.51740
           an1         -0.00420   2.86426
           an2          0.00978  -1.18067   3.23880
           an3         -0.00713  -0.36871  -1.58476   2.25240
           an4          0.00210  -0.23638  -0.23001  -0.14121   1.10142
           ach          0.00086   0.00579  -0.02620  -0.00898   0.08641
           anh          0.00102  -0.04369  -0.01189   0.00799  -0.00650
                          ach       anh
           ach          0.23498
           anh          0.00026   0.24774
 ITU=  0
     Eigenvalues ---    0.00000   0.17898   0.23702   0.29604   0.40818
     Eigenvalues ---    0.51704   0.63909   0.65147   0.80406   1.41415
     Eigenvalues ---    3.20115   4.77628
 Eigenvalue     1 is  -5.59D-07 should be greater than     0.000000 Eigenvector:
                          rn4       an3       rn1       rn2       an2
   1                    0.47326   0.46279  -0.44001  -0.38244   0.35015
                          an4       an1       rn3       ach       anh
   1                    0.25544   0.18251   0.02848  -0.00001  -0.00001
 Angle between quadratic step and forces=  89.62 degrees.
 Linear search not attempted -- first point.
 Variable       Old X    -DE/DX   Delta X   Delta X   Delta X     New X
                                 (Linear)    (Quad)   (Total)
   rn1        2.56645   0.00000   0.00000  -0.00094  -0.00094   2.56551
   rn2        2.79782   0.00000   0.00000  -0.00082  -0.00082   2.79701
   rn3        2.22528   0.00000   0.00000   0.00006   0.00006   2.22534
   rn4        1.61251  -0.00001   0.00000   0.00101   0.00101   1.61351
   rch        2.02732   0.00000   0.00000   0.00000   0.00000   2.02732
   rnh        1.89177   0.00000   0.00000   0.00000   0.00000   1.89177
   an1        1.19337  -0.00004   0.00000   0.00038   0.00038   1.19375
   an2        2.20084   0.00004   0.00000   0.00076   0.00076   2.20160
   an3        3.20182  -0.00002   0.00000   0.00099   0.00099   3.20281
   an4        4.69549   0.00001   0.00000   0.00055   0.00055   4.69604
   ach        2.18980   0.00000   0.00000   0.00001   0.00001   2.18981
   anh        2.10160   0.00000   0.00000   0.00000   0.00000   2.10160
         Item               Value     Threshold  Converged?
 Maximum Force            0.000043     0.000450     YES
 RMS     Force            0.000017     0.000300     YES
 Maximum Displacement     0.001006     0.001800     YES
 RMS     Displacement     0.000617     0.001200     YES
 Predicted change in Energy=-4.225908D-10
 Optimization completed.
    -- Stationary point found.
                       ----------------------------
                       !   Optimized Parameters   !
                       ! (Angstroms and Degrees)  !
 ----------------------                            ----------------------
 !      Name          Value   Derivative information (Atomic Units)     !
 ------------------------------------------------------------------------
 !       rn1         1.3581   -DE/DX =    0.0                           !
 !       rn2         1.4805   -DE/DX =    0.0                           !
 !       rn3         1.1776   -DE/DX =    0.0                           !
 !       rn4         0.8533   -DE/DX =    0.0                           !
 !       rch         1.0728   -DE/DX =    0.0                           !
 !       rnh         1.0011   -DE/DX =    0.0                           !
 !       an1        68.3749   -DE/DX =    0.0                           !
 !       an2       126.0988   -DE/DX =    0.0                           !
 !       an3       183.451    -DE/DX =    0.0                           !
 !       an4       269.0315   -DE/DX =    0.0                           !
 !       ach       125.4665   -DE/DX =    0.0                           !
 !       anh       120.413    -DE/DX =    0.0                           !
 ------------------------------------------------------------------------
 GradGradGradGradGradGradGradGradGradGradGradGradGradGradGradGradGradGrad

 1\1\GINC-N353\Freq\RCID-FC\6-31G\C1H2N4\RDJ3\25-Nov-2013\1\\#N Geom=Al
 lCheck Guess=TCheck SCRF=Check GenChk RCID(FC)/6-31G Freq\\1H-tetrazol
 e CH2N4 casno=288948 state=1 config=1 method=14 basis=9\\0,1\X\X,1,1.\
 C,1,1.,2,90.\N,1,rn1,2,90.,3,an1,0\N,1,rn2,2,90.,3,an2,0\N,1,rn3,2,90.
 ,3,an3,0\N,1,rn4,2,90.,3,an4,0\H,3,rch,4,ach,5,180.,0\H,4,rnh,5,anh,6,
 180.,0\\rn1=1.35810505\rn2=1.48054516\rn3=1.17756665\rn4=0.85330306\rc
 h=1.072812\rnh=1.00108067\an1=68.37485012\an2=126.09883047\an3=183.450
 9699\an4=269.03152151\ach=125.46653833\anh=120.41295703\\Version=EM64L
 -G09RevD.01\State=1-A'\HF=-256.5877472\MP2=-257.1391704\MP3=-257.12550
 96\CID=-257.0566456\RMSD=5.923e-10\RMSF=5.232e-06\ZeroPoint=0.0484143\
 Thermal=0.051798\Dipole=2.0428233,-1.2076243,0.\DipoleDeriv=0.2113602,
 0.0241703,0.,-0.1434395,0.4597253,0.,0.,0.,0.1365336,-0.4539324,0.2666
 602,0.,0.2172249,-0.468825,0.,0.,0.,-0.3017157,0.2693489,-0.2274274,0.
 ,-0.2920808,-0.183749,0.,0.,0.,-0.0704076,0.1380476,0.0631212,0.,0.204
 899,-0.0635051,0.,0.,0.,-0.1747949,-0.506966,-0.0768364,0.,0.0530453,-
 0.2014786,0.,0.,0.,-0.2266636,0.0891324,-0.0045034,0.,0.0056595,0.1362
 298,0.,0.,0.,0.1956452,0.2529615,-0.0452039,0.,-0.0453385,0.3216672,0.
 ,0.,0.,0.4414598\Quadrupole=1.032245,-1.1063305,0.0740855,-1.4733388,0
 .,0.\QuadrupoleDeriv=2.249505,-1.2649734,-0.9845317,0.9448106,0.,0.,0.
 1607335,-0.1505643,-0.0101691,1.6096093,0.,0.,0.,0.,0.,0.,-0.2386525,-
 0.152523,0.8114837,-0.5854592,-0.2260246,-0.3293883,0.,0.,0.5973959,-0
 .8437947,0.2463988,0.4520722,0.,0.,0.,0.,0.,0.,-0.9111366,1.3003099,-1
 .1038426,0.8090335,0.2948092,-1.6970862,0.,0.,0.3389003,-0.7309738,0.3
 920735,-0.5143506,0.,0.,0.,0.,0.,0.,0.644022,0.7172648,-1.262253,0.933
 4341,0.3288189,0.7721108,0.,0.,-0.3729849,0.5572852,-0.1843003,-1.0923
 59,0.,0.,0.,0.,0.,0.,0.9671493,-0.3710941,0.2234645,-0.357923,0.134458
 6,0.1539664,0.,0.,-0.6363529,0.8999669,-0.263614,0.0304133,0.,0.,0.,0.
 ,0.,0.,-0.2646187,-1.3522228,0.877915,-0.4224378,-0.4554772,0.2016196,
 0.,0.,-0.1882496,0.361564,-0.1733144,0.8418001,0.,0.,0.,0.,0.,0.,0.933
 9503,0.2402793,0.9276368,-0.4737798,-0.4538571,-1.2536788,0.,0.,0.9055
 159,-1.7035556,0.7980397,0.7157203,0.,0.,0.,0.,0.,0.,0.9118178,-1.5899
 987\PG=CS [SG(C1H2N4)]\NImag=0\\1.03216122,0.05935417,0.62918329,0.,0.
 ,0.15457761,-0.17115682,-0.06365262,0.,0.62346838,-0.07909725,-0.29351
 870,0.,-0.18205481,1.02736624,0.,0.,-0.07288719,0.,0.,0.12017433,-0.08
 948768,-0.08960376,0.,-0.19359832,-0.04810291,0.,0.41471612,-0.0120838
 6,-0.04508288,0.,0.00530496,-0.11672005,0.,0.05979099,0.60271265,0.,0.
 ,0.02350726,0.,0.,-0.07703553,0.,0.,0.11876475,-0.13232424,0.05394043,
 0.,-0.10015216,0.03573854,0.,-0.11687474,0.01065191,0.,0.49242812,-0.0
 3961999,0.03674127,0.,0.10880335,-0.08852945,0.,0.08470226,-0.32566737
 ,0.,-0.12571276,0.46988523,0.,0.,0.01973030,0.,0.,0.02760980,0.,0.,-0.
 09824560,0.,0.,0.12522301,-0.27944032,0.13413950,0.,0.00812272,0.10254
 889,0.,-0.01404434,-0.10534413,0.,-0.12965628,-0.03004259,0.,0.4277315
 8,0.12950171,-0.24168699,0.,-0.01098738,-0.10358875,0.,-0.00382722,-0.
 11797860,0.,0.02605682,-0.09435618,0.,-0.12334987,0.54857258,0.,0.,-0.
 08416451,0.,0.,0.02234906,0.,0.,0.03598228,0.,0.,-0.09130339,0.,0.,0.1
 1340316,-0.37931119,-0.08064728,0.,0.00381498,0.00251588,0.,0.00119889
 ,0.00307588,0.,-0.00152300,0.00096459,0.,-0.01159894,-0.00732343,0.,0.
 38775263,-0.07738764,-0.07908888,0.,-0.03598761,-0.00173474,0.,0.00057
 901,-0.00687823,0.,0.00600270,-0.00220015,0.,0.02411775,0.01276645,0.,
 0.08249244,0.07775603,0.,0.,-0.03369999,0.,0.,-0.00203673,0.,0.,0.0061
 0805,0.,0.,0.00950533,0.,0.,-0.00457702,0.,0.,0.02536559,0.01955941,-0
 .01352331,0.,-0.17050354,0.16845287,0.,-0.00190091,0.03860054,0.,-0.01
 190169,0.00091224,0.,-0.00111201,-0.01007941,0.,-0.00033638,0.00018219
 ,0.,0.16619504,0.01933705,-0.00655765,0.,0.17857670,-0.42326534,0.,-0.
 00354862,0.00960764,0.,-0.00666508,0.00412946,0.,-0.00207840,-0.003724
 65,0.,-0.00107829,-0.00061992,0.,-0.18454513,0.42043140,0.,0.,-0.00706
 531,0.,0.,-0.01817700,0.,0.,-0.00906943,0.,0.,0.00747986,0.,0.,0.00830
 405,0.,0.,-0.00066589,0.,0.,0.01919479\\0.00000469,0.00000314,0.,-0.00
 001312,-0.00000589,0.,0.00001206,-0.00000918,0.,0.00000018,0.00000691,
 0.,-0.00000428,0.00000629,0.,0.00000014,-0.00000089,0.,0.00000033,-0.0
 0000037,0.\\\@


 THAT'S WHAT MAKES US A GREAT COUNTRY.
 THE LITTLE THINGS ARE SERIOUS AND THE BIG ONES ARE NOT.
           WILL ROGERS
 Job cpu time:       0 days  0 hours 39 minutes  8.1 seconds.
 File lengths (MBytes):  RWF=     98 Int=      0 D2E=      0 Chk=     39 Scr=      1
 Normal termination of Gaussian 09 at Mon Nov 25 18:32:45 2013.
