 Entering Gaussian System, Link 0=g09
 Initial command:
 /usr/local/gaussian/g09.d01.em64t.legacy.linda/g09/l1.exe "/tmp/rdj3/g09-9462/Gau-15489.inp" -scrdir="/tmp/rdj3/g09-9462/"
 Entering Link 1 = /usr/local/gaussian/g09.d01.em64t.legacy.linda/g09/l1.exe PID=     15490.
  
 Copyright (c) 1988,1990,1992,1993,1995,1998,2003,2009,2013,
            Gaussian, Inc.  All Rights Reserved.
  
 This is part of the Gaussian(R) 09 program.  It is based on
 the Gaussian(R) 03 system (copyright 2003, Gaussian, Inc.),
 the Gaussian(R) 98 system (copyright 1998, Gaussian, Inc.),
 the Gaussian(R) 94 system (copyright 1995, Gaussian, Inc.),
 the Gaussian 92(TM) system (copyright 1992, Gaussian, Inc.),
 the Gaussian 90(TM) system (copyright 1990, Gaussian, Inc.),
 the Gaussian 88(TM) system (copyright 1988, Gaussian, Inc.),
 the Gaussian 86(TM) system (copyright 1986, Carnegie Mellon
 University), and the Gaussian 82(TM) system (copyright 1983,
 Carnegie Mellon University). Gaussian is a federally registered
 trademark of Gaussian, Inc.
  
 This software contains proprietary and confidential information,
 including trade secrets, belonging to Gaussian, Inc.
  
 This software is provided under written license and may be
 used, copied, transmitted, or stored only in accord with that
 written license.
  
 The following legend is applicable only to US Government
 contracts under FAR:
  
                    RESTRICTED RIGHTS LEGEND
  
 Use, reproduction and disclosure by the US Government is
 subject to restrictions as set forth in subparagraphs (a)
 and (c) of the Commercial Computer Software - Restricted
 Rights clause in FAR 52.227-19.
  
 Gaussian, Inc.
 340 Quinnipiac St., Bldg. 40, Wallingford CT 06492
  
  
 ---------------------------------------------------------------
 Warning -- This program may not be used in any manner that
 competes with the business of Gaussian, Inc. or will provide
 assistance to any competitor of Gaussian, Inc.  The licensee
 of this program is prohibited from giving any competitor of
 Gaussian, Inc. access to this program.  By using this program,
 the user acknowledges that Gaussian, Inc. is engaged in the
 business of creating and licensing software in the field of
 computational chemistry and represents and warrants to the
 licensee that it is not a competitor of Gaussian, Inc. and that
 it will not use this program in any manner prohibited above.
 ---------------------------------------------------------------
  

 Cite this work as:
 Gaussian 09, Revision D.01,
 M. J. Frisch, G. W. Trucks, H. B. Schlegel, G. E. Scuseria, 
 M. A. Robb, J. R. Cheeseman, G. Scalmani, V. Barone, B. Mennucci, 
 G. A. Petersson, H. Nakatsuji, M. Caricato, X. Li, H. P. Hratchian, 
 A. F. Izmaylov, J. Bloino, G. Zheng, J. L. Sonnenberg, M. Hada, 
 M. Ehara, K. Toyota, R. Fukuda, J. Hasegawa, M. Ishida, T. Nakajima, 
 Y. Honda, O. Kitao, H. Nakai, T. Vreven, J. A. Montgomery, Jr., 
 J. E. Peralta, F. Ogliaro, M. Bearpark, J. J. Heyd, E. Brothers, 
 K. N. Kudin, V. N. Staroverov, T. Keith, R. Kobayashi, J. Normand, 
 K. Raghavachari, A. Rendell, J. C. Burant, S. S. Iyengar, J. Tomasi, 
 M. Cossi, N. Rega, J. M. Millam, M. Klene, J. E. Knox, J. B. Cross, 
 V. Bakken, C. Adamo, J. Jaramillo, R. Gomperts, R. E. Stratmann, 
 O. Yazyev, A. J. Austin, R. Cammi, C. Pomelli, J. W. Ochterski, 
 R. L. Martin, K. Morokuma, V. G. Zakrzewski, G. A. Voth, 
 P. Salvador, J. J. Dannenberg, S. Dapprich, A. D. Daniels, 
 O. Farkas, J. B. Foresman, J. V. Ortiz, J. Cioslowski, 
 and D. J. Fox, Gaussian, Inc., Wallingford CT, 2013.
 
 ******************************************
 Gaussian 09:  EM64L-G09RevD.01 24-Apr-2013
                16-Dec-2013 
 ******************************************
 %Nproc=8
 Will use up to    8 processors via shared memory.
 %mem=436000000
 ---------------------
 #CID/6-311G* opt freq
 ---------------------
 1/18=20,19=15,38=1/1,3;
 2/9=110,12=2,17=6,18=5,40=1/2;
 3/5=4,6=6,7=1,11=9,16=1,25=1,30=1,71=1/1,2,3;
 4//1;
 5/5=2,38=5/2;
 8/6=4,9=120000,10=2/1,4;
 9/5=1,15=1/13;
 11/28=-3,29=200,42=3/11;
 10/5=2/2;
 6/7=2,8=2,9=2,10=2/1;
 7/12=6/1,2,3,16;
 1/18=20,19=15/3(2);
 2/9=110/2;
 99//99;
 2/9=110/2;
 3/5=4,6=6,7=1,11=9,16=1,25=1,30=1,71=1/1,2,3;
 4/5=5,16=3,69=1/1;
 5/5=2,38=5/2;
 8/6=4,9=120000,10=2/1,4;
 9/5=1,15=1/13;
 11/28=-3,29=200,42=3/11;
 10/5=2/2;
 7/12=6/1,2,3,16;
 1/18=20,19=15/3(-9);
 2/9=110/2;
 6/7=2,8=2,9=2,10=2/1;
 99//99;
 ------------------------------------------------------------------
 1H-tetrazole CH2N4 casno=288948 state=1 config=1 method=14 basis=7
 ------------------------------------------------------------------
 Symbolic Z-matrix:
 Charge =  0 Multiplicity = 1
 X
 X                    1     1. 
 C                    1     1.       2     90. 
 N                    1    rn1      2     90.      3    an1      0
 N                    1    rn2      2     90.      3    an2      0
 N                    1    rn3      2     90.      3    an3      0
 N                    1    rn4      2     90.      3    an4      0
 H                    3    rch      4    ach      5     180.     0
 H                    4    rnh      5    anh      6     180.     0
       Variables:
  rn1                   1.2426                   
  rn2                   1.333                    
  rn3                   1.1146                   
  rn4                   0.9264                   
  rch                   1.0678                   
  rnh                   0.9941                   
  an1                  71.8427                   
  an2                 133.7028                   
  an3                 194.4597                   
  an4                 276.0768                   
  ach                 125.0248                   
  anh                 120.7626                   
 

 GradGradGradGradGradGradGradGradGradGradGradGradGradGradGradGradGradGrad
 Berny optimization.
 Initialization pass.
                           ----------------------------
                           !    Initial Parameters    !
                           ! (Angstroms and Degrees)  !
 --------------------------                            --------------------------
 ! Name  Definition              Value          Derivative Info.                !
 --------------------------------------------------------------------------------
 ! R1    R(1,2)                  1.3303         estimate D2E/DX2                !
 ! R2    R(1,5)                  1.2892         estimate D2E/DX2                !
 ! R3    R(1,6)                  1.0678         estimate D2E/DX2                !
 ! R4    R(2,3)                  1.3261         estimate D2E/DX2                !
 ! R5    R(2,7)                  0.9941         estimate D2E/DX2                !
 ! R6    R(3,4)                  1.252          estimate D2E/DX2                !
 ! R7    R(4,5)                  1.3414         estimate D2E/DX2                !
 ! A1    A(2,1,5)              108.177          estimate D2E/DX2                !
 ! A2    A(2,1,6)              125.0248         estimate D2E/DX2                !
 ! A3    A(5,1,6)              126.7982         estimate D2E/DX2                !
 ! A4    A(1,2,3)              108.008          estimate D2E/DX2                !
 ! A5    A(1,2,7)              131.2294         estimate D2E/DX2                !
 ! A6    A(3,2,7)              120.7626         estimate D2E/DX2                !
 ! A7    A(2,3,4)              106.684          estimate D2E/DX2                !
 ! A8    A(3,4,5)              111.3724         estimate D2E/DX2                !
 ! A9    A(1,5,4)              105.7586         estimate D2E/DX2                !
 ! D1    D(5,1,2,3)              0.0            estimate D2E/DX2                !
 ! D2    D(5,1,2,7)            180.0            estimate D2E/DX2                !
 ! D3    D(6,1,2,3)            180.0            estimate D2E/DX2                !
 ! D4    D(6,1,2,7)              0.0            estimate D2E/DX2                !
 ! D5    D(2,1,5,4)              0.0            estimate D2E/DX2                !
 ! D6    D(6,1,5,4)            180.0            estimate D2E/DX2                !
 ! D7    D(1,2,3,4)              0.0            estimate D2E/DX2                !
 ! D8    D(7,2,3,4)            180.0            estimate D2E/DX2                !
 ! D9    D(2,3,4,5)              0.0            estimate D2E/DX2                !
 ! D10   D(3,4,5,1)              0.0            estimate D2E/DX2                !
 --------------------------------------------------------------------------------
 Trust Radius=3.00D-01 FncErr=1.00D-07 GrdErr=1.00D-07
 Number of steps in this run=     36 maximum allowed number of steps=    100.
 GradGradGradGradGradGradGradGradGradGradGradGradGradGradGradGradGradGrad

                          Input orientation:                          
 ---------------------------------------------------------------------
 Center     Atomic      Atomic             Coordinates (Angstroms)
 Number     Number       Type             X           Y           Z
 ---------------------------------------------------------------------
      1          6           0        1.000000    0.000000    0.000000
      2          7           0        0.387228   -1.180724    0.000000
      3          7           0       -0.920993   -0.963670    0.000000
      4          7           0       -1.079293    0.278314    0.000000
      5          7           0        0.098070    0.921194    0.000000
      6          1           0        2.058429    0.141157    0.000000
      7          1           0        0.749017   -2.106652    0.000000
 ---------------------------------------------------------------------
                    Distance matrix (angstroms):
                    1          2          3          4          5
     1  C    0.000000
     2  N    1.330263   0.000000
     3  N    2.149157   1.326105   0.000000
     4  N    2.097837   2.068690   1.252032   0.000000
     5  N    1.289216   2.121715   2.142710   1.341447   0.000000
     6  H    1.067800   2.130794   3.177672   3.140719   2.109850
     7  H    2.121551   0.994100   2.023695   3.005127   3.097029
                    6          7
     6  H    0.000000
     7  H    2.601385   0.000000
 Stoichiometry    CH2N4
 Framework group  CS[SG(CH2N4)]
 Deg. of freedom    11
 Full point group                 CS      NOp   2
 Largest Abelian subgroup         CS      NOp   2
 Largest concise Abelian subgroup C1      NOp   1
                         Standard orientation:                         
 ---------------------------------------------------------------------
 Center     Atomic      Atomic             Coordinates (Angstroms)
 Number     Number       Type             X           Y           Z
 ---------------------------------------------------------------------
      1          6           0        1.052733    0.225621    0.000000
      2          7           0        0.000000    1.038857    0.000000
      3          7           0       -1.095416    0.291448    0.000000
      4          7           0       -0.716382   -0.901832    0.000000
      5          7           0        0.622191   -0.989579    0.000000
      6          1           0        2.072287    0.542964    0.000000
      7          1           0       -0.061439    2.031056    0.000000
 ---------------------------------------------------------------------
 Rotational constants (GHZ):     10.9201517     10.7345054      5.4132664
 Standard basis: 6-311G(d) (5D, 7F)
 There are    76 symmetry adapted cartesian basis functions of A'  symmetry.
 There are    25 symmetry adapted cartesian basis functions of A"  symmetry.
 There are    71 symmetry adapted basis functions of A'  symmetry.
 There are    25 symmetry adapted basis functions of A"  symmetry.
    96 basis functions,   170 primitive gaussians,   101 cartesian basis functions
    18 alpha electrons       18 beta electrons
       nuclear repulsion energy       169.8308489506 Hartrees.
 NAtoms=    7 NActive=    7 NUniq=    7 SFac= 1.00D+00 NAtFMM=   60 NAOKFM=F Big=F
 Integral buffers will be    131072 words long.
 Raffenetti 1 integral format.
 Two-electron integral symmetry is turned on.
 One-electron integrals computed using PRISM.
 NBasis=    96 RedAO= T EigKep=  4.27D-03  NBF=    71    25
 NBsUse=    96 1.00D-06 EigRej= -1.00D+00 NBFU=    71    25
 ExpMin= 1.03D-01 ExpMax= 6.29D+03 ExpMxC= 9.49D+02 IAcc=1 IRadAn=         1 AccDes= 0.00D+00
 Harris functional with IExCor=  205 and IRadAn=       1 diagonalized for initial guess.
 HarFok:  IExCor=  205 AccDes= 0.00D+00 IRadAn=         1 IDoV= 1 UseB2=F ITyADJ=14
 ICtDFT=  3500011 ScaDFX=  1.000000  1.000000  1.000000  1.000000
 FoFCou: FMM=F IPFlag=           0 FMFlag=      100000 FMFlg1=           0
         NFxFlg=           0 DoJE=T BraDBF=F KetDBF=T FulRan=T
         wScrn=  0.000000 ICntrl=     500 IOpCl=  0 I1Cent=   200000004 NGrid=           0
         NMat0=    1 NMatS0=      1 NMatT0=    0 NMatD0=    1 NMtDS0=    0 NMtDT0=    0
 Petite list used in FoFCou.
 Initial guess orbital symmetries:
       Occupied  (A') (A') (A') (A') (A') (A') (A') (A') (A') (A')
                 (A') (A') (A") (A') (A") (A') (A") (A')
       Virtual   (A") (A") (A') (A') (A') (A') (A') (A') (A') (A')
                 (A") (A') (A') (A') (A') (A") (A') (A") (A') (A')
                 (A') (A") (A") (A') (A') (A') (A') (A') (A') (A')
                 (A") (A') (A") (A') (A") (A") (A') (A") (A') (A')
                 (A') (A') (A") (A') (A') (A") (A') (A') (A") (A')
                 (A") (A') (A') (A") (A") (A') (A') (A') (A') (A')
                 (A') (A") (A") (A') (A") (A') (A') (A") (A') (A')
                 (A') (A') (A') (A') (A') (A') (A') (A')
 The electronic state of the initial guess is 1-A'.
 Keep R1 ints in memory in symmetry-blocked form, NReq=16630616.
 Requested convergence on RMS density matrix=1.00D-08 within 128 cycles.
 Requested convergence on MAX density matrix=1.00D-06.
 Requested convergence on             energy=1.00D-06.
 No special actions if energy rises.
 SCF Done:  E(RHF) =  -256.810747258     A.U. after   14 cycles
            NFock= 14  Conv=0.87D-08     -V/T= 1.9997
 ExpMin= 1.03D-01 ExpMax= 6.29D+03 ExpMxC= 9.49D+02 IAcc=3 IRadAn=         5 AccDes= 0.00D+00
 HarFok:  IExCor=  205 AccDes= 0.00D+00 IRadAn=         5 IDoV=-2 UseB2=F ITyADJ=14
 ICtDFT= 12500011 ScaDFX=  1.000000  1.000000  1.000000  1.000000
 Range of M.O.s used for correlation:     6    96
 NBasis=    96 NAE=    18 NBE=    18 NFC=     5 NFV=     0
 NROrb=     91 NOA=    13 NOB=    13 NVA=    78 NVB=    78
 Semi-Direct transformation.
 ModeAB=           2 MOrb=            13 LenV=     435677429
 LASXX=      2294379 LTotXX=     2294379 LenRXX=     2294379
 LTotAB=     2382106 MaxLAS=     6093633 LenRXY=     6093633
 NonZer=     6288828 LenScr=    10216960 LnRSAI=           0
 LnScr1=           0 LExtra=           0 Total=     18604972
 MaxDsk=          -1 SrtSym=           F ITran=            4
 JobTyp=0 Pass  1:  I=   1 to  13.
 (rs|ai) integrals will be sorted in core.
 Spin components of T(2) and E(2):
     alpha-alpha T2 =       0.3674312392D-01 E2=     -0.1127876108D+00
     alpha-beta  T2 =       0.1860683631D+00 E2=     -0.5849533666D+00
     beta-beta   T2 =       0.3674312392D-01 E2=     -0.1127876108D+00
 ANorm=    0.1122298806D+01
 E2 =    -0.8105285881D+00 EUMP2 =    -0.25762127584607D+03
 Keep R2 and R3 ints in memory in symmetry-blocked form, NReq=17195251.
 Iterations=  50 Convergence= 0.100D-07
 Iteration Nr.   1
 **********************
 DD1Dir will call FoFMem   1 times, MxPair=       182
 NAB=    91 NAA=     0 NBB=     0.
 E3=        0.45745174D-02        EUMP3=      -0.25761670133D+03
 DE(CI)=     -0.64729947     E(CI)=       -257.45804673    
 NORM(A)=   0.10828952D+01
 Iteration Nr.   2
 **********************
 DD1Dir will call FoFMem   1 times, MxPair=       182
 NAB=    91 NAA=     0 NBB=     0.
 DE(CI)=     -0.68583338     E(CI)=       -257.49658064    
 NORM(A)=   0.10838880D+01
 Iteration Nr.   3
 **********************
 DD1Dir will call FoFMem   1 times, MxPair=       182
 NAB=    91 NAA=     0 NBB=     0.
 DE(CI)=     -0.68183574     E(CI)=       -257.49258300    
 NORM(A)=   0.10830987D+01
 Iteration Nr.   4
 **********************
 DD1Dir will call FoFMem   1 times, MxPair=       182
 NAB=    91 NAA=     0 NBB=     0.
 DE(CI)=     -0.68262395     E(CI)=       -257.49337121    
 NORM(A)=   0.10831937D+01
 Iteration Nr.   5
 **********************
 DD1Dir will call FoFMem   1 times, MxPair=       182
 NAB=    91 NAA=     0 NBB=     0.
 DE(CI)=     -0.68258494     E(CI)=       -257.49333220    
 NORM(A)=   0.10832261D+01
 Iteration Nr.   6
 **********************
 DD1Dir will call FoFMem   1 times, MxPair=       182
 NAB=    91 NAA=     0 NBB=     0.
 DE(CI)=     -0.68259015     E(CI)=       -257.49333741    
 NORM(A)=   0.10832273D+01
 Iteration Nr.   7
 **********************
 DD1Dir will call FoFMem   1 times, MxPair=       182
 NAB=    91 NAA=     0 NBB=     0.
 DE(CI)=     -0.68258974     E(CI)=       -257.49333699    
 NORM(A)=   0.10832270D+01
 Iteration Nr.   8
 **********************
 DD1Dir will call FoFMem   1 times, MxPair=       182
 NAB=    91 NAA=     0 NBB=     0.
 DE(CI)=     -0.68259012     E(CI)=       -257.49333737    
 NORM(A)=   0.10832269D+01
 Iteration Nr.   9
 **********************
 DD1Dir will call FoFMem   1 times, MxPair=       182
 NAB=    91 NAA=     0 NBB=     0.
 DE(CI)=     -0.68259009     E(CI)=       -257.49333735    
 NORM(A)=   0.10832269D+01
 Iteration Nr.  10
 **********************
 DD1Dir will call FoFMem   1 times, MxPair=       182
 NAB=    91 NAA=     0 NBB=     0.
 DE(CI)=     -0.68259010     E(CI)=       -257.49333736    
 NORM(A)=   0.10832269D+01
 Iteration Nr.  11
 **********************
 DD1Dir will call FoFMem   1 times, MxPair=       182
 NAB=    91 NAA=     0 NBB=     0.
 DE(CI)=     -0.68259010     E(CI)=       -257.49333736    
 NORM(A)=   0.10832269D+01
 ***************************************************************
 Largest amplitude= 4.30D-02
 Discarding MO integrals.
          IDoAtm=1111111
          Differentiating once with respect to electric field.
                with respect to dipole field.
          Differentiating once with respect to nuclear coordinates.
 Keep R1 ints in memory in symmetry-blocked form, NReq=16581067.
          There are     1 degrees of freedom in the 1st order CPHF.  IDoFFX=0 NUNeed=     1.
 LinEq1:  Iter=  0 NonCon=     1 RMS=3.58D-03 Max=4.46D-02 NDo=     1
 AX will form     1 AO Fock derivatives at one time.
 LinEq1:  Iter=  1 NonCon=     1 RMS=1.07D-03 Max=1.18D-02 NDo=     1
 LinEq1:  Iter=  2 NonCon=     1 RMS=3.12D-04 Max=5.86D-03 NDo=     1
 LinEq1:  Iter=  3 NonCon=     1 RMS=9.68D-05 Max=1.11D-03 NDo=     1
 LinEq1:  Iter=  4 NonCon=     1 RMS=3.26D-05 Max=5.83D-04 NDo=     1
 LinEq1:  Iter=  5 NonCon=     1 RMS=1.15D-05 Max=1.64D-04 NDo=     1
 LinEq1:  Iter=  6 NonCon=     1 RMS=3.05D-06 Max=4.66D-05 NDo=     1
 LinEq1:  Iter=  7 NonCon=     1 RMS=1.86D-06 Max=3.26D-05 NDo=     1
 LinEq1:  Iter=  8 NonCon=     1 RMS=5.35D-07 Max=6.31D-06 NDo=     1
 LinEq1:  Iter=  9 NonCon=     1 RMS=2.11D-07 Max=2.18D-06 NDo=     1
 LinEq1:  Iter= 10 NonCon=     1 RMS=6.86D-08 Max=5.98D-07 NDo=     1
 LinEq1:  Iter= 11 NonCon=     1 RMS=1.99D-08 Max=1.90D-07 NDo=     1
 LinEq1:  Iter= 12 NonCon=     1 RMS=7.73D-09 Max=7.08D-08 NDo=     1
 LinEq1:  Iter= 13 NonCon=     1 RMS=2.16D-09 Max=2.42D-08 NDo=     1
 LinEq1:  Iter= 14 NonCon=     1 RMS=3.63D-10 Max=4.87D-09 NDo=     1
 LinEq1:  Iter= 15 NonCon=     0 RMS=6.27D-11 Max=8.46D-10 NDo=     1
 Linear equations converged to 1.000D-10 1.000D-09 after    15 iterations.
 End of Minotr F.D. properties file   721 does not exist.
 End of Minotr F.D. properties file   722 does not exist.
 End of Minotr F.D. properties file   788 does not exist.

 **********************************************************************

            Population analysis using the SCF density.

 **********************************************************************

 Orbital symmetries:
       Occupied  (A') (A') (A') (A') (A') (A') (A') (A') (A') (A')
                 (A') (A") (A') (A') (A') (A') (A") (A")
       Virtual   (A') (A") (A') (A") (A') (A') (A') (A') (A') (A")
                 (A') (A') (A') (A') (A") (A') (A') (A") (A') (A')
                 (A") (A') (A') (A") (A') (A') (A') (A') (A') (A')
                 (A") (A') (A") (A') (A") (A") (A') (A") (A') (A')
                 (A') (A') (A') (A") (A') (A") (A') (A') (A") (A')
                 (A") (A') (A') (A") (A") (A') (A') (A') (A') (A')
                 (A') (A") (A") (A') (A") (A') (A") (A') (A') (A')
                 (A') (A') (A') (A') (A') (A') (A') (A')
 The electronic state is 1-A'.
 Alpha  occ. eigenvalues --  -15.67713 -15.65365 -15.63406 -15.59254 -11.33180
 Alpha  occ. eigenvalues --   -1.52246  -1.26756  -1.21106  -0.91555  -0.89769
 Alpha  occ. eigenvalues --   -0.81135  -0.68989  -0.68524  -0.57403  -0.47666
 Alpha  occ. eigenvalues --   -0.46476  -0.45924  -0.42532
 Alpha virt. eigenvalues --    0.12846   0.14648   0.16911   0.19644   0.33644
 Alpha virt. eigenvalues --    0.36684   0.38213   0.48094   0.53717   0.56254
 Alpha virt. eigenvalues --    0.62088   0.64864   0.69295   0.74807   0.77436
 Alpha virt. eigenvalues --    0.78785   0.80030   0.81174   0.83669   0.88892
 Alpha virt. eigenvalues --    0.91717   0.94867   0.96191   0.96462   1.04954
 Alpha virt. eigenvalues --    1.08716   1.15734   1.21917   1.24832   1.41766
 Alpha virt. eigenvalues --    1.44218   1.45786   1.51104   1.61444   1.79320
 Alpha virt. eigenvalues --    1.96062   1.99137   2.03208   2.08315   2.13538
 Alpha virt. eigenvalues --    2.18554   2.36945   2.56039   2.56217   2.60199
 Alpha virt. eigenvalues --    2.66949   2.69613   2.79938   2.81834   2.96963
 Alpha virt. eigenvalues --    2.97222   3.03741   3.09663   3.14154   3.17902
 Alpha virt. eigenvalues --    3.22347   3.47421   3.54974   3.65133   3.72113
 Alpha virt. eigenvalues --    3.90753   3.99518   4.11612   4.26673   4.31475
 Alpha virt. eigenvalues --    4.39307   4.41899   4.42866   4.87668   5.00681
 Alpha virt. eigenvalues --    5.10067   5.38032   6.26779  24.95033  36.62741
 Alpha virt. eigenvalues --   36.86407  36.97579  37.04812
          Condensed to atoms (all electrons):
               1          2          3          4          5          6
     1  C    4.821736   0.356854  -0.105575  -0.149610   0.526195   0.387378
     2  N    0.356854   6.794431   0.209073  -0.093738  -0.068131  -0.026356
     3  N   -0.105575   0.209073   6.680432   0.355160  -0.106152   0.001742
     4  N   -0.149610  -0.093738   0.355160   6.636513   0.316561   0.001702
     5  N    0.526195  -0.068131  -0.106152   0.316561   6.639932  -0.014634
     6  H    0.387378  -0.026356   0.001742   0.001702  -0.014634   0.372376
     7  H   -0.028001   0.322179  -0.024057   0.005551   0.005658  -0.000130
               7
     1  C   -0.028001
     2  N    0.322179
     3  N   -0.024057
     4  N    0.005551
     5  N    0.005658
     6  H   -0.000130
     7  H    0.311239
 Mulliken charges:
               1
     1  C    0.191023
     2  N   -0.494313
     3  N   -0.010623
     4  N   -0.072139
     5  N   -0.299430
     6  H    0.277922
     7  H    0.407560
 Sum of Mulliken charges =   0.00000
 Mulliken charges with hydrogens summed into heavy atoms:
               1
     1  C    0.468945
     2  N   -0.086753
     3  N   -0.010623
     4  N   -0.072139
     5  N   -0.299430
 Electronic spatial extent (au):  <R**2>=            244.8028
 Charge=              0.0000 electrons
 Dipole moment (field-independent basis, Debye):
    X=              2.6557    Y=              4.9965    Z=              0.0000  Tot=              5.6584
 Quadrupole moment (field-independent basis, Debye-Ang):
   XX=            -28.7798   YY=            -26.6276   ZZ=            -28.5514
   XY=              2.0059   XZ=              0.0000   YZ=              0.0000
 Traceless Quadrupole moment (field-independent basis, Debye-Ang):
   XX=             -0.7935   YY=              1.3586   ZZ=             -0.5651
   XY=              2.0059   XZ=              0.0000   YZ=              0.0000
 Octapole moment (field-independent basis, Debye-Ang**2):
  XXX=             12.5920  YYY=             23.0400  ZZZ=              0.0000  XYY=             -0.6981
  XXY=              5.0243  XXZ=              0.0000  XZZ=             -0.6959  YZZ=              0.5820
  YYZ=              0.0000  XYZ=              0.0000
 Hexadecapole moment (field-independent basis, Debye-Ang**3):
 XXXX=           -137.8087 YYYY=           -116.9664 ZZZZ=            -25.8044 XXXY=              6.9273
 XXXZ=              0.0000 YYYX=             -0.0350 YYYZ=              0.0000 ZZZX=              0.0000
 ZZZY=              0.0000 XXYY=            -52.3630 XXZZ=            -29.8277 YYZZ=            -28.3653
 XXYZ=              0.0000 YYXZ=              0.0000 ZZXY=              0.0509
 N-N= 1.698308489506D+02 E-N=-9.416001683526D+02  KE= 2.568969754579D+02
 Symmetry A'   KE= 2.478624361474D+02
 Symmetry A"   KE= 9.034539310538D+00
 Calling FoFJK, ICntrl=  10002127 FMM=F ISym2X=1 I1Cent= 0 IOpClX= 0 NMat=1 NMatS=1 NMatT=0.
 ***** Axes restored to original set *****
 -------------------------------------------------------------------
 Center     Atomic                   Forces (Hartrees/Bohr)
 Number     Number              X              Y              Z
 -------------------------------------------------------------------
      1        6           0.008046446   -0.002772334    0.000000000
      2        7           0.001742896   -0.004756702    0.000000000
      3        7          -0.003615144   -0.021104894    0.000000000
      4        7          -0.009414693    0.017378240    0.000000000
      5        7          -0.001260457    0.014158206    0.000000000
      6        1           0.003467501    0.000515831    0.000000000
      7        1           0.001033452   -0.003418347    0.000000000
 -------------------------------------------------------------------
 Cartesian Forces:  Max     0.021104894 RMS     0.007477926

 GradGradGradGradGradGradGradGradGradGradGradGradGradGradGradGradGradGrad
 Berny optimization.
 FormGI is forming the generalized inverse of G from B-inverse, IUseBI=4.
 Internal  Forces:  Max     0.021177923 RMS     0.005662327
 Search for a local minimum.
 Step number   1 out of a maximum of   36
 All quantities printed in internal units (Hartrees-Bohrs-Radians)
 Mixed Optimization -- RFO/linear search
 Second derivative matrix not updated -- first step.
 ITU=  0
     Eigenvalues ---    0.02505   0.02639   0.02674   0.02834   0.16000
     Eigenvalues ---    0.16000   0.22605   0.24688   0.37510   0.48741
     Eigenvalues ---    0.50870   0.56601   0.58498   0.66939   0.78934
 RFO step:  Lambda=-1.17266727D-03 EMin= 2.50488176D-02
 Linear search not attempted -- first point.
 Iteration  1 RMS(Cart)=  0.00822553 RMS(Int)=  0.00000975
 Iteration  2 RMS(Cart)=  0.00000877 RMS(Int)=  0.00000387
 Iteration  3 RMS(Cart)=  0.00000000 RMS(Int)=  0.00000387
 ClnCor:  largest displacement from symmetrization is 9.97D-12 for atom     1.
 Variable       Old X    -DE/DX   Delta X   Delta X   Delta X     New X
                                 (Linear)    (Quad)   (Total)
    R1        2.51383   0.00898   0.00000   0.01386   0.01385   2.52769
    R2        2.43626   0.01310   0.00000   0.01811   0.01810   2.45437
    R3        2.01785   0.00351   0.00000   0.00932   0.00932   2.02717
    R4        2.50598   0.00623   0.00000   0.01012   0.01011   2.51609
    R5        1.87858   0.00356   0.00000   0.00729   0.00729   1.88586
    R6        2.36600   0.02118   0.00000   0.02645   0.02646   2.39245
    R7        2.53497   0.00762   0.00000   0.01430   0.01430   2.54927
    A1        1.88804   0.00202   0.00000   0.00427   0.00426   1.89231
    A2        2.18209  -0.00096   0.00000  -0.00180  -0.00180   2.18030
    A3        2.21305  -0.00106   0.00000  -0.00246  -0.00246   2.21058
    A4        1.88509   0.00106   0.00000   0.00089   0.00088   1.88598
    A5        2.29039  -0.00027   0.00000   0.00119   0.00120   2.29158
    A6        2.10770  -0.00079   0.00000  -0.00209  -0.00208   2.10562
    A7        1.86199  -0.00099   0.00000  -0.00179  -0.00179   1.86019
    A8        1.94382  -0.00108   0.00000   0.00076   0.00077   1.94459
    A9        1.84584  -0.00101   0.00000  -0.00413  -0.00412   1.84171
    D1        0.00000   0.00000   0.00000   0.00000   0.00000   0.00000
    D2        3.14159   0.00000   0.00000   0.00000   0.00000   3.14159
    D3        3.14159   0.00000   0.00000   0.00000   0.00000   3.14159
    D4        0.00000   0.00000   0.00000   0.00000   0.00000   0.00000
    D5        0.00000   0.00000   0.00000   0.00000   0.00000   0.00000
    D6        3.14159   0.00000   0.00000   0.00000   0.00000   3.14159
    D7        0.00000   0.00000   0.00000   0.00000   0.00000   0.00000
    D8        3.14159   0.00000   0.00000   0.00000   0.00000   3.14159
    D9        0.00000   0.00000   0.00000   0.00000   0.00000   0.00000
   D10        0.00000   0.00000   0.00000   0.00000   0.00000   0.00000
         Item               Value     Threshold  Converged?
 Maximum Force            0.021178     0.000450     NO 
 RMS     Force            0.005662     0.000300     NO 
 Maximum Displacement     0.021645     0.001800     NO 
 RMS     Displacement     0.008224     0.001200     NO 
 Predicted change in Energy=-5.873012D-04
 GradGradGradGradGradGradGradGradGradGradGradGradGradGradGradGradGradGrad

                          Input orientation:                          
 ---------------------------------------------------------------------
 Center     Atomic      Atomic             Coordinates (Angstroms)
 Number     Number       Type             X           Y           Z
 ---------------------------------------------------------------------
      1          6           0        1.002700    0.001826    0.000000
      2          7           0        0.387968   -1.186139    0.000000
      3          7           0       -0.925981   -0.970936    0.000000
      4          7           0       -1.086405    0.284891    0.000000
      5          7           0        0.096919    0.932649    0.000000
      6          1           0        2.066101    0.142990    0.000000
      7          1           0        0.751155   -2.115661    0.000000
 ---------------------------------------------------------------------
                    Distance matrix (angstroms):
                    1          2          3          4          5
     1  C    0.000000
     2  N    1.337594   0.000000
     3  N    2.160110   1.331456   0.000000
     4  N    2.108196   2.082716   1.266032   0.000000
     5  N    1.298796   2.138685   2.161008   1.349017   0.000000
     6  H    1.072730   2.140728   3.192709   3.155699   2.121613
     7  H    2.132376   0.997956   2.030562   3.023124   3.117726
                    6          7
     6  H    0.000000
     7  H    2.613539   0.000000
 Stoichiometry    CH2N4
 Framework group  CS[SG(CH2N4)]
 Deg. of freedom    11
 Full point group                 CS      NOp   2
 Largest Abelian subgroup         CS      NOp   2
 Largest concise Abelian subgroup C1      NOp   1
                         Standard orientation:                         
 ---------------------------------------------------------------------
 Center     Atomic      Atomic             Coordinates (Angstroms)
 Number     Number       Type             X           Y           Z
 ---------------------------------------------------------------------
      1          6           0        1.057137    0.226316    0.000000
      2          7           0        0.000000    1.045839    0.000000
      3          7           0       -1.101775    0.298265    0.000000
      4          7           0       -0.719464   -0.908663    0.000000
      5          7           0        0.626523   -0.999018    0.000000
      6          1           0        2.081368    0.545219    0.000000
      7          1           0       -0.061171    2.041919    0.000000
 ---------------------------------------------------------------------
 Rotational constants (GHZ):     10.7845646     10.5890982      5.3429688
 Standard basis: 6-311G(d) (5D, 7F)
 There are    76 symmetry adapted cartesian basis functions of A'  symmetry.
 There are    25 symmetry adapted cartesian basis functions of A"  symmetry.
 There are    71 symmetry adapted basis functions of A'  symmetry.
 There are    25 symmetry adapted basis functions of A"  symmetry.
    96 basis functions,   170 primitive gaussians,   101 cartesian basis functions
    18 alpha electrons       18 beta electrons
       nuclear repulsion energy       168.7207448234 Hartrees.
 NAtoms=    7 NActive=    7 NUniq=    7 SFac= 1.00D+00 NAtFMM=   60 NAOKFM=F Big=F
 Integral buffers will be    131072 words long.
 Raffenetti 1 integral format.
 Two-electron integral symmetry is turned on.
 One-electron integrals computed using PRISM.
 NBasis=    96 RedAO= T EigKep=  4.45D-03  NBF=    71    25
 NBsUse=    96 1.00D-06 EigRej= -1.00D+00 NBFU=    71    25
 Initial guess from the checkpoint file:  "/tmp/rdj3/g09-9462/Gau-15490.chk"
 B after Tr=     0.000000    0.000000    0.000000
         Rot=    1.000000    0.000000    0.000000    0.000376 Ang=   0.04 deg.
 Initial guess orbital symmetries:
       Occupied  (A') (A') (A') (A') (A') (A') (A') (A') (A') (A')
                 (A') (A") (A') (A') (A') (A') (A") (A")
       Virtual   (A') (A') (A') (A') (A') (A') (A') (A') (A') (A')
                 (A') (A') (A') (A') (A') (A') (A') (A') (A') (A')
                 (A') (A') (A') (A') (A') (A') (A') (A') (A') (A')
                 (A') (A') (A') (A') (A') (A') (A') (A') (A') (A')
                 (A') (A') (A') (A') (A') (A') (A') (A') (A') (A')
                 (A') (A') (A') (A') (A') (A') (A") (A") (A") (A")
                 (A") (A") (A") (A") (A") (A") (A") (A") (A") (A")
                 (A") (A") (A") (A") (A") (A") (A") (A")
 ExpMin= 1.03D-01 ExpMax= 6.29D+03 ExpMxC= 9.49D+02 IAcc=1 IRadAn=         1 AccDes= 0.00D+00
 Harris functional with IExCor=  205 and IRadAn=       1 diagonalized for initial guess.
 HarFok:  IExCor=  205 AccDes= 0.00D+00 IRadAn=         1 IDoV= 1 UseB2=F ITyADJ=14
 ICtDFT=  3500011 ScaDFX=  1.000000  1.000000  1.000000  1.000000
 FoFCou: FMM=F IPFlag=           0 FMFlag=      100000 FMFlg1=           0
         NFxFlg=           0 DoJE=T BraDBF=F KetDBF=T FulRan=T
         wScrn=  0.000000 ICntrl=     500 IOpCl=  0 I1Cent=   200000004 NGrid=           0
         NMat0=    1 NMatS0=      1 NMatT0=    0 NMatD0=    1 NMtDS0=    0 NMtDT0=    0
 Petite list used in FoFCou.
 Keep R1 ints in memory in symmetry-blocked form, NReq=16630616.
 Requested convergence on RMS density matrix=1.00D-08 within 128 cycles.
 Requested convergence on MAX density matrix=1.00D-06.
 Requested convergence on             energy=1.00D-06.
 No special actions if energy rises.
 SCF Done:  E(RHF) =  -256.809876343     A.U. after   11 cycles
            NFock= 11  Conv=0.54D-08     -V/T= 2.0003
 ExpMin= 1.03D-01 ExpMax= 6.29D+03 ExpMxC= 9.49D+02 IAcc=3 IRadAn=         5 AccDes= 0.00D+00
 HarFok:  IExCor=  205 AccDes= 0.00D+00 IRadAn=         5 IDoV=-2 UseB2=F ITyADJ=14
 ICtDFT= 12500011 ScaDFX=  1.000000  1.000000  1.000000  1.000000
 Range of M.O.s used for correlation:     6    96
 NBasis=    96 NAE=    18 NBE=    18 NFC=     5 NFV=     0
 NROrb=     91 NOA=    13 NOB=    13 NVA=    78 NVB=    78
 Semi-Direct transformation.
 ModeAB=           2 MOrb=            13 LenV=     435677527
 LASXX=      2294379 LTotXX=     2294379 LenRXX=     2294379
 LTotAB=     2382106 MaxLAS=     6093633 LenRXY=     6093633
 NonZer=     6288828 LenScr=    10216960 LnRSAI=           0
 LnScr1=           0 LExtra=           0 Total=     18604972
 MaxDsk=          -1 SrtSym=           F ITran=            4
 JobTyp=0 Pass  1:  I=   1 to  13.
 (rs|ai) integrals will be sorted in core.
 Spin components of T(2) and E(2):
     alpha-alpha T2 =       0.3725209771D-01 E2=     -0.1132424846D+00
     alpha-beta  T2 =       0.1888341905D+00 E2=     -0.5878396490D+00
     beta-beta   T2 =       0.3725209771D-01 E2=     -0.1132424846D+00
 ANorm=    0.1123983268D+01
 E2 =    -0.8143246181D+00 EUMP2 =    -0.25762420096077D+03
 Keep R2 and R3 ints in memory in symmetry-blocked form, NReq=17195251.
 Iterations=  50 Convergence= 0.100D-07
 Iteration Nr.   1
 **********************
 DD1Dir will call FoFMem   1 times, MxPair=       182
 NAB=    91 NAA=     0 NBB=     0.
 E3=        0.55846244D-02        EUMP3=      -0.25761861634D+03
 DE(CI)=     -0.64784152     E(CI)=       -257.45771786    
 NORM(A)=   0.10836297D+01
 Iteration Nr.   2
 **********************
 DD1Dir will call FoFMem   1 times, MxPair=       182
 NAB=    91 NAA=     0 NBB=     0.
 DE(CI)=     -0.68741845     E(CI)=       -257.49729479    
 NORM(A)=   0.10845826D+01
 Iteration Nr.   3
 **********************
 DD1Dir will call FoFMem   1 times, MxPair=       182
 NAB=    91 NAA=     0 NBB=     0.
 DE(CI)=     -0.68325525     E(CI)=       -257.49313159    
 NORM(A)=   0.10837493D+01
 Iteration Nr.   4
 **********************
 DD1Dir will call FoFMem   1 times, MxPair=       182
 NAB=    91 NAA=     0 NBB=     0.
 DE(CI)=     -0.68407527     E(CI)=       -257.49395161    
 NORM(A)=   0.10838429D+01
 Iteration Nr.   5
 **********************
 DD1Dir will call FoFMem   1 times, MxPair=       182
 NAB=    91 NAA=     0 NBB=     0.
 DE(CI)=     -0.68403384     E(CI)=       -257.49391018    
 NORM(A)=   0.10838776D+01
 Iteration Nr.   6
 **********************
 DD1Dir will call FoFMem   1 times, MxPair=       182
 NAB=    91 NAA=     0 NBB=     0.
 DE(CI)=     -0.68403927     E(CI)=       -257.49391561    
 NORM(A)=   0.10838790D+01
 Iteration Nr.   7
 **********************
 DD1Dir will call FoFMem   1 times, MxPair=       182
 NAB=    91 NAA=     0 NBB=     0.
 DE(CI)=     -0.68403888     E(CI)=       -257.49391523    
 NORM(A)=   0.10838788D+01
 Iteration Nr.   8
 **********************
 DD1Dir will call FoFMem   1 times, MxPair=       182
 NAB=    91 NAA=     0 NBB=     0.
 DE(CI)=     -0.68403927     E(CI)=       -257.49391562    
 NORM(A)=   0.10838786D+01
 Iteration Nr.   9
 **********************
 DD1Dir will call FoFMem   1 times, MxPair=       182
 NAB=    91 NAA=     0 NBB=     0.
 DE(CI)=     -0.68403925     E(CI)=       -257.49391559    
 NORM(A)=   0.10838786D+01
 Iteration Nr.  10
 **********************
 DD1Dir will call FoFMem   1 times, MxPair=       182
 NAB=    91 NAA=     0 NBB=     0.
 DE(CI)=     -0.68403926     E(CI)=       -257.49391560    
 NORM(A)=   0.10838786D+01
 Iteration Nr.  11
 **********************
 DD1Dir will call FoFMem   1 times, MxPair=       182
 NAB=    91 NAA=     0 NBB=     0.
 DE(CI)=     -0.68403926     E(CI)=       -257.49391560    
 NORM(A)=   0.10838786D+01
 ***************************************************************
 Largest amplitude= 4.41D-02
 Discarding MO integrals.
          IDoAtm=1111111
          Differentiating once with respect to electric field.
                with respect to dipole field.
          Differentiating once with respect to nuclear coordinates.
 Keep R1 ints in memory in symmetry-blocked form, NReq=16581067.
          There are     1 degrees of freedom in the 1st order CPHF.  IDoFFX=0 NUNeed=     1.
 LinEq1:  Iter=  0 NonCon=     1 RMS=3.62D-03 Max=4.52D-02 NDo=     1
 AX will form     1 AO Fock derivatives at one time.
 LinEq1:  Iter=  1 NonCon=     1 RMS=1.09D-03 Max=1.17D-02 NDo=     1
 LinEq1:  Iter=  2 NonCon=     1 RMS=3.19D-04 Max=6.10D-03 NDo=     1
 LinEq1:  Iter=  3 NonCon=     1 RMS=9.97D-05 Max=1.03D-03 NDo=     1
 LinEq1:  Iter=  4 NonCon=     1 RMS=3.49D-05 Max=6.54D-04 NDo=     1
 LinEq1:  Iter=  5 NonCon=     1 RMS=1.19D-05 Max=1.71D-04 NDo=     1
 LinEq1:  Iter=  6 NonCon=     1 RMS=2.91D-06 Max=4.05D-05 NDo=     1
 LinEq1:  Iter=  7 NonCon=     1 RMS=1.76D-06 Max=3.41D-05 NDo=     1
 LinEq1:  Iter=  8 NonCon=     1 RMS=5.44D-07 Max=6.77D-06 NDo=     1
 LinEq1:  Iter=  9 NonCon=     1 RMS=2.20D-07 Max=3.04D-06 NDo=     1
 LinEq1:  Iter= 10 NonCon=     1 RMS=7.44D-08 Max=5.87D-07 NDo=     1
 LinEq1:  Iter= 11 NonCon=     1 RMS=2.20D-08 Max=2.38D-07 NDo=     1
 LinEq1:  Iter= 12 NonCon=     1 RMS=8.49D-09 Max=7.42D-08 NDo=     1
 LinEq1:  Iter= 13 NonCon=     1 RMS=2.42D-09 Max=2.68D-08 NDo=     1
 LinEq1:  Iter= 14 NonCon=     1 RMS=4.15D-10 Max=5.15D-09 NDo=     1
 LinEq1:  Iter= 15 NonCon=     0 RMS=7.17D-11 Max=8.93D-10 NDo=     1
 Linear equations converged to 1.000D-10 1.000D-09 after    15 iterations.
 End of Minotr F.D. properties file   721 does not exist.
 End of Minotr F.D. properties file   722 does not exist.
 End of Minotr F.D. properties file   788 does not exist.
 Calling FoFJK, ICntrl=  10002127 FMM=F ISym2X=1 I1Cent= 0 IOpClX= 0 NMat=1 NMatS=1 NMatT=0.
 ***** Axes restored to original set *****
 -------------------------------------------------------------------
 Center     Atomic                   Forces (Hartrees/Bohr)
 Number     Number              X              Y              Z
 -------------------------------------------------------------------
      1        6           0.000914185   -0.000965651    0.000000000
      2        7          -0.000682935    0.002837162    0.000000000
      3        7           0.000771597   -0.003075683    0.000000000
      4        7          -0.000269493    0.002822040    0.000000000
      5        7          -0.000334726   -0.001812795    0.000000000
      6        1          -0.000311826   -0.000055282    0.000000000
      7        1          -0.000086802    0.000250208    0.000000000
 -------------------------------------------------------------------
 Cartesian Forces:  Max     0.003075683 RMS     0.001233356

 GradGradGradGradGradGradGradGradGradGradGradGradGradGradGradGradGradGrad
 Berny optimization.
 Using GEDIIS/GDIIS optimizer.
 FormGI is forming the generalized inverse of G from B-inverse, IUseBI=4.
 Internal  Forces:  Max     0.001923923 RMS     0.000705356
 Search for a local minimum.
 Step number   2 out of a maximum of   36
 All quantities printed in internal units (Hartrees-Bohrs-Radians)
 Mixed Optimization -- En-DIIS/RFO-DIIS
 Update second derivatives using D2CorX and points    1    2
 DE= -5.78D-04 DEPred=-5.87D-04 R= 9.85D-01
 TightC=F SS=  1.41D+00  RLast= 4.15D-02 DXNew= 5.0454D-01 1.2446D-01
 Trust test= 9.85D-01 RLast= 4.15D-02 DXMaxT set to 3.00D-01
 ITU=  1  0
 Use linear search instead of GDIIS.
     Eigenvalues ---    0.02505   0.02640   0.02674   0.02834   0.16000
     Eigenvalues ---    0.16001   0.22672   0.24794   0.37687   0.48825
     Eigenvalues ---    0.50411   0.56693   0.61505   0.68509   0.73411
 RFO step:  Lambda=-3.34036350D-05 EMin= 2.50534929D-02
 Quartic linear search produced a step of -0.00254.
 Iteration  1 RMS(Cart)=  0.00186475 RMS(Int)=  0.00000280
 Iteration  2 RMS(Cart)=  0.00000274 RMS(Int)=  0.00000055
 Iteration  3 RMS(Cart)=  0.00000000 RMS(Int)=  0.00000055
 ClnCor:  largest displacement from symmetrization is 1.30D-12 for atom     1.
 Variable       Old X    -DE/DX   Delta X   Delta X   Delta X     New X
                                 (Linear)    (Quad)   (Total)
    R1        2.52769  -0.00154  -0.00004  -0.00251  -0.00254   2.52514
    R2        2.45437  -0.00045  -0.00005  -0.00022  -0.00027   2.45410
    R3        2.02717  -0.00032  -0.00002  -0.00055  -0.00058   2.02659
    R4        2.51609  -0.00062  -0.00003  -0.00076  -0.00078   2.51530
    R5        1.88586  -0.00026  -0.00002  -0.00032  -0.00033   1.88553
    R6        2.39245   0.00192  -0.00007   0.00338   0.00331   2.39577
    R7        2.54927  -0.00050  -0.00004  -0.00017  -0.00021   2.54906
    A1        1.89231  -0.00064  -0.00001  -0.00416  -0.00417   1.88813
    A2        2.18030   0.00031   0.00000   0.00200   0.00201   2.18230
    A3        2.21058   0.00033   0.00001   0.00216   0.00216   2.21275
    A4        1.88598   0.00134   0.00000   0.00500   0.00499   1.89097
    A5        2.29158  -0.00068   0.00000  -0.00251  -0.00251   2.28907
    A6        2.10562  -0.00066   0.00001  -0.00249  -0.00248   2.10314
    A7        1.86019  -0.00075   0.00000  -0.00240  -0.00239   1.85780
    A8        1.94459  -0.00097   0.00000  -0.00236  -0.00236   1.94223
    A9        1.84171   0.00102   0.00001   0.00392   0.00393   1.84564
    D1        0.00000   0.00000   0.00000   0.00000   0.00000   0.00000
    D2        3.14159   0.00000   0.00000   0.00000   0.00000   3.14159
    D3        3.14159   0.00000   0.00000   0.00000   0.00000   3.14159
    D4        0.00000   0.00000   0.00000   0.00000   0.00000   0.00000
    D5        0.00000   0.00000   0.00000   0.00000   0.00000   0.00000
    D6        3.14159   0.00000   0.00000   0.00000   0.00000   3.14159
    D7        0.00000   0.00000   0.00000   0.00000   0.00000   0.00000
    D8        3.14159   0.00000   0.00000   0.00000   0.00000   3.14159
    D9        0.00000   0.00000   0.00000   0.00000   0.00000   0.00000
   D10        0.00000   0.00000   0.00000   0.00000   0.00000   0.00000
         Item               Value     Threshold  Converged?
 Maximum Force            0.001924     0.000450     NO 
 RMS     Force            0.000705     0.000300     NO 
 Maximum Displacement     0.004601     0.001800     NO 
 RMS     Displacement     0.001864     0.001200     NO 
 Predicted change in Energy=-1.670668D-05
 GradGradGradGradGradGradGradGradGradGradGradGradGradGradGradGradGradGrad

                          Input orientation:                          
 ---------------------------------------------------------------------
 Center     Atomic      Atomic             Coordinates (Angstroms)
 Number     Number       Type             X           Y           Z
 ---------------------------------------------------------------------
      1          6           0        1.004279    0.001417    0.000000
      2          7           0        0.387474   -1.183957    0.000000
      3          7           0       -0.926647   -0.972402    0.000000
      4          7           0       -1.087713    0.285110    0.000000
      5          7           0        0.096826    0.930414    0.000000
      6          1           0        2.067415    0.142263    0.000000
      7          1           0        0.750822   -2.113226    0.000000
 ---------------------------------------------------------------------
                    Distance matrix (angstroms):
                    1          2          3          4          5
     1  C    0.000000
     2  N    1.336248   0.000000
     3  N    2.162590   1.331041   0.000000
     4  N    2.111140   2.081907   1.267785   0.000000
     5  N    1.298656   2.134254   2.160603   1.348907   0.000000
     6  H    1.072425   2.140341   3.194821   3.158360   2.122357
     7  H    2.129778   0.997779   2.028640   3.021958   3.113111
                    6          7
     6  H    0.000000
     7  H    2.611637   0.000000
 Stoichiometry    CH2N4
 Framework group  CS[SG(CH2N4)]
 Deg. of freedom    11
 Full point group                 CS      NOp   2
 Largest Abelian subgroup         CS      NOp   2
 Largest concise Abelian subgroup C1      NOp   1
                         Standard orientation:                         
 ---------------------------------------------------------------------
 Center     Atomic      Atomic             Coordinates (Angstroms)
 Number     Number       Type             X           Y           Z
 ---------------------------------------------------------------------
      1          6           0        1.058532    0.227973    0.000000
      2          7           0        0.000000    1.043491    0.000000
      3          7           0       -1.102913    0.298339    0.000000
      4          7           0       -0.719583   -0.910105    0.000000
      5          7           0        0.626540   -0.996727    0.000000
      6          1           0        2.082153    0.547810    0.000000
      7          1           0       -0.061656    2.039363    0.000000
 ---------------------------------------------------------------------
 Rotational constants (GHZ):     10.7846235     10.5929086      5.3439532
 Standard basis: 6-311G(d) (5D, 7F)
 There are    76 symmetry adapted cartesian basis functions of A'  symmetry.
 There are    25 symmetry adapted cartesian basis functions of A"  symmetry.
 There are    71 symmetry adapted basis functions of A'  symmetry.
 There are    25 symmetry adapted basis functions of A"  symmetry.
    96 basis functions,   170 primitive gaussians,   101 cartesian basis functions
    18 alpha electrons       18 beta electrons
       nuclear repulsion energy       168.7297611885 Hartrees.
 NAtoms=    7 NActive=    7 NUniq=    7 SFac= 1.00D+00 NAtFMM=   60 NAOKFM=F Big=F
 Integral buffers will be    131072 words long.
 Raffenetti 1 integral format.
 Two-electron integral symmetry is turned on.
 One-electron integrals computed using PRISM.
 NBasis=    96 RedAO= T EigKep=  4.46D-03  NBF=    71    25
 NBsUse=    96 1.00D-06 EigRej= -1.00D+00 NBFU=    71    25
 Initial guess from the checkpoint file:  "/tmp/rdj3/g09-9462/Gau-15490.chk"
 B after Tr=     0.000000    0.000000    0.000000
         Rot=    1.000000    0.000000    0.000000   -0.000321 Ang=  -0.04 deg.
 Initial guess orbital symmetries:
       Occupied  (A') (A') (A') (A') (A') (A') (A') (A') (A') (A')
                 (A') (A") (A') (A') (A') (A') (A") (A")
       Virtual   (A') (A') (A') (A') (A') (A') (A') (A') (A') (A')
                 (A') (A') (A') (A') (A') (A') (A') (A') (A') (A')
                 (A') (A') (A') (A') (A') (A') (A') (A') (A') (A')
                 (A') (A') (A') (A') (A') (A') (A') (A') (A') (A')
                 (A') (A') (A') (A') (A') (A') (A') (A') (A') (A')
                 (A') (A') (A') (A') (A') (A') (A") (A") (A") (A")
                 (A") (A") (A") (A") (A") (A") (A") (A") (A") (A")
                 (A") (A") (A") (A") (A") (A") (A") (A")
 Keep R1 ints in memory in symmetry-blocked form, NReq=16630616.
 Requested convergence on RMS density matrix=1.00D-08 within 128 cycles.
 Requested convergence on MAX density matrix=1.00D-06.
 Requested convergence on             energy=1.00D-06.
 No special actions if energy rises.
 SCF Done:  E(RHF) =  -256.809836987     A.U. after   10 cycles
            NFock= 10  Conv=0.43D-08     -V/T= 2.0003
 ExpMin= 1.03D-01 ExpMax= 6.29D+03 ExpMxC= 9.49D+02 IAcc=3 IRadAn=         5 AccDes= 0.00D+00
 HarFok:  IExCor=  205 AccDes= 0.00D+00 IRadAn=         5 IDoV=-2 UseB2=F ITyADJ=14
 ICtDFT= 12500011 ScaDFX=  1.000000  1.000000  1.000000  1.000000
 Range of M.O.s used for correlation:     6    96
 NBasis=    96 NAE=    18 NBE=    18 NFC=     5 NFV=     0
 NROrb=     91 NOA=    13 NOB=    13 NVA=    78 NVB=    78
 Semi-Direct transformation.
 ModeAB=           2 MOrb=            13 LenV=     435677544
 LASXX=      2294379 LTotXX=     2294379 LenRXX=     2294379
 LTotAB=     2382106 MaxLAS=     6093633 LenRXY=     6093633
 NonZer=     6288828 LenScr=    10216960 LnRSAI=           0
 LnScr1=           0 LExtra=           0 Total=     18604972
 MaxDsk=          -1 SrtSym=           F ITran=            4
 JobTyp=0 Pass  1:  I=   1 to  13.
 (rs|ai) integrals will be sorted in core.
 Spin components of T(2) and E(2):
     alpha-alpha T2 =       0.3727277215D-01 E2=     -0.1132728285D+00
     alpha-beta  T2 =       0.1888935676D+00 E2=     -0.5879107751D+00
     beta-beta   T2 =       0.3727277215D-01 E2=     -0.1132728285D+00
 ANorm=    0.1124028074D+01
 E2 =    -0.8144564322D+00 EUMP2 =    -0.25762429341869D+03
 Keep R2 and R3 ints in memory in symmetry-blocked form, NReq=17195251.
 Iterations=  50 Convergence= 0.100D-07
 Iteration Nr.   1
 **********************
 DD1Dir will call FoFMem   1 times, MxPair=       182
 NAB=    91 NAA=     0 NBB=     0.
 E3=        0.56411912D-02        EUMP3=      -0.25761865223D+03
 DE(CI)=     -0.64786316     E(CI)=       -257.45770014    
 NORM(A)=   0.10836422D+01
 Iteration Nr.   2
 **********************
 DD1Dir will call FoFMem   1 times, MxPair=       182
 NAB=    91 NAA=     0 NBB=     0.
 DE(CI)=     -0.68747574     E(CI)=       -257.49731273    
 NORM(A)=   0.10845930D+01
 Iteration Nr.   3
 **********************
 DD1Dir will call FoFMem   1 times, MxPair=       182
 NAB=    91 NAA=     0 NBB=     0.
 DE(CI)=     -0.68330714     E(CI)=       -257.49314413    
 NORM(A)=   0.10837583D+01
 Iteration Nr.   4
 **********************
 DD1Dir will call FoFMem   1 times, MxPair=       182
 NAB=    91 NAA=     0 NBB=     0.
 DE(CI)=     -0.68412801     E(CI)=       -257.49396499    
 NORM(A)=   0.10838518D+01
 Iteration Nr.   5
 **********************
 DD1Dir will call FoFMem   1 times, MxPair=       182
 NAB=    91 NAA=     0 NBB=     0.
 DE(CI)=     -0.68408652     E(CI)=       -257.49392350    
 NORM(A)=   0.10838865D+01
 Iteration Nr.   6
 **********************
 DD1Dir will call FoFMem   1 times, MxPair=       182
 NAB=    91 NAA=     0 NBB=     0.
 DE(CI)=     -0.68409193     E(CI)=       -257.49392892    
 NORM(A)=   0.10838879D+01
 Iteration Nr.   7
 **********************
 DD1Dir will call FoFMem   1 times, MxPair=       182
 NAB=    91 NAA=     0 NBB=     0.
 DE(CI)=     -0.68409156     E(CI)=       -257.49392854    
 NORM(A)=   0.10838876D+01
 Iteration Nr.   8
 **********************
 DD1Dir will call FoFMem   1 times, MxPair=       182
 NAB=    91 NAA=     0 NBB=     0.
 DE(CI)=     -0.68409195     E(CI)=       -257.49392893    
 NORM(A)=   0.10838875D+01
 Iteration Nr.   9
 **********************
 DD1Dir will call FoFMem   1 times, MxPair=       182
 NAB=    91 NAA=     0 NBB=     0.
 DE(CI)=     -0.68409192     E(CI)=       -257.49392891    
 NORM(A)=   0.10838875D+01
 Iteration Nr.  10
 **********************
 DD1Dir will call FoFMem   1 times, MxPair=       182
 NAB=    91 NAA=     0 NBB=     0.
 DE(CI)=     -0.68409193     E(CI)=       -257.49392892    
 NORM(A)=   0.10838875D+01
 Iteration Nr.  11
 **********************
 DD1Dir will call FoFMem   1 times, MxPair=       182
 NAB=    91 NAA=     0 NBB=     0.
 DE(CI)=     -0.68409193     E(CI)=       -257.49392892    
 NORM(A)=   0.10838875D+01
 ***************************************************************
 Largest amplitude= 4.43D-02
 Discarding MO integrals.
          IDoAtm=1111111
          Differentiating once with respect to electric field.
                with respect to dipole field.
          Differentiating once with respect to nuclear coordinates.
 Keep R1 ints in memory in symmetry-blocked form, NReq=16581067.
          There are     1 degrees of freedom in the 1st order CPHF.  IDoFFX=0 NUNeed=     1.
 LinEq1:  Iter=  0 NonCon=     1 RMS=3.62D-03 Max=4.53D-02 NDo=     1
 AX will form     1 AO Fock derivatives at one time.
 LinEq1:  Iter=  1 NonCon=     1 RMS=1.08D-03 Max=1.17D-02 NDo=     1
 LinEq1:  Iter=  2 NonCon=     1 RMS=3.18D-04 Max=6.13D-03 NDo=     1
 LinEq1:  Iter=  3 NonCon=     1 RMS=9.98D-05 Max=1.03D-03 NDo=     1
 LinEq1:  Iter=  4 NonCon=     1 RMS=3.50D-05 Max=6.58D-04 NDo=     1
 LinEq1:  Iter=  5 NonCon=     1 RMS=1.19D-05 Max=1.71D-04 NDo=     1
 LinEq1:  Iter=  6 NonCon=     1 RMS=2.88D-06 Max=3.80D-05 NDo=     1
 LinEq1:  Iter=  7 NonCon=     1 RMS=1.72D-06 Max=3.37D-05 NDo=     1
 LinEq1:  Iter=  8 NonCon=     1 RMS=5.33D-07 Max=6.60D-06 NDo=     1
 LinEq1:  Iter=  9 NonCon=     1 RMS=2.22D-07 Max=3.22D-06 NDo=     1
 LinEq1:  Iter= 10 NonCon=     1 RMS=7.42D-08 Max=5.85D-07 NDo=     1
 LinEq1:  Iter= 11 NonCon=     1 RMS=2.26D-08 Max=2.58D-07 NDo=     1
 LinEq1:  Iter= 12 NonCon=     1 RMS=8.78D-09 Max=7.42D-08 NDo=     1
 LinEq1:  Iter= 13 NonCon=     1 RMS=2.43D-09 Max=2.73D-08 NDo=     1
 LinEq1:  Iter= 14 NonCon=     1 RMS=4.17D-10 Max=5.09D-09 NDo=     1
 LinEq1:  Iter= 15 NonCon=     0 RMS=7.18D-11 Max=8.88D-10 NDo=     1
 Linear equations converged to 1.000D-10 1.000D-09 after    15 iterations.
 End of Minotr F.D. properties file   721 does not exist.
 End of Minotr F.D. properties file   722 does not exist.
 End of Minotr F.D. properties file   788 does not exist.
 Calling FoFJK, ICntrl=  10002127 FMM=F ISym2X=1 I1Cent= 0 IOpClX= 0 NMat=1 NMatS=1 NMatT=0.
 ***** Axes restored to original set *****
 -------------------------------------------------------------------
 Center     Atomic                   Forces (Hartrees/Bohr)
 Number     Number              X              Y              Z
 -------------------------------------------------------------------
      1        6          -0.000873944   -0.000532389    0.000000000
      2        7          -0.000511236   -0.000297446    0.000000000
      3        7           0.001297514   -0.000792699    0.000000000
      4        7           0.001188829    0.001224880    0.000000000
      5        7          -0.000937917    0.000403925    0.000000000
      6        1          -0.000164154   -0.000002534    0.000000000
      7        1           0.000000909   -0.000003737    0.000000000
 -------------------------------------------------------------------
 Cartesian Forces:  Max     0.001297514 RMS     0.000605232

 GradGradGradGradGradGradGradGradGradGradGradGradGradGradGradGradGradGrad
 Berny optimization.
 Using GEDIIS/GDIIS optimizer.
 FormGI is forming the generalized inverse of G from B-inverse, IUseBI=4.
 Internal  Forces:  Max     0.001247246 RMS     0.000464189
 Search for a local minimum.
 Step number   3 out of a maximum of   36
 All quantities printed in internal units (Hartrees-Bohrs-Radians)
 Mixed Optimization -- En-DIIS/RFO-DIIS
 Swapping is turned off.
 Update second derivatives using D2CorX and points    1    2    3
 DE= -1.33D-05 DEPred=-1.67D-05 R= 7.97D-01
 TightC=F SS=  1.41D+00  RLast= 1.04D-02 DXNew= 5.0454D-01 3.1306D-02
 Trust test= 7.97D-01 RLast= 1.04D-02 DXMaxT set to 3.00D-01
 ITU=  1  1  0
     Eigenvalues ---    0.02505   0.02639   0.02674   0.02834   0.16000
     Eigenvalues ---    0.16001   0.23990   0.31370   0.37552   0.44437
     Eigenvalues ---    0.48872   0.53788   0.65777   0.69752   0.72049
 En-DIIS/RFO-DIIS IScMMF=        0 using points:     3    2
 RFO step:  Lambda=-7.24793327D-06.
 DidBck=F Rises=F RFO-DIIS coefs:    0.83187    0.16813
 Iteration  1 RMS(Cart)=  0.00084964 RMS(Int)=  0.00000027
 Iteration  2 RMS(Cart)=  0.00000023 RMS(Int)=  0.00000013
 ClnCor:  largest displacement from symmetrization is 4.06D-13 for atom     1.
 Variable       Old X    -DE/DX   Delta X   Delta X   Delta X     New X
                                 (Linear)    (Quad)   (Total)
    R1        2.52514  -0.00019   0.00043  -0.00133  -0.00090   2.52424
    R2        2.45410   0.00026   0.00004   0.00024   0.00028   2.45439
    R3        2.02659  -0.00016   0.00010  -0.00057  -0.00048   2.02611
    R4        2.51530  -0.00118   0.00013  -0.00192  -0.00179   2.51351
    R5        1.88553   0.00000   0.00006  -0.00011  -0.00005   1.88548
    R6        2.39577   0.00094  -0.00056   0.00247   0.00191   2.39768
    R7        2.54906  -0.00125   0.00003  -0.00184  -0.00180   2.54726
    A1        1.88813   0.00072   0.00070   0.00080   0.00150   1.88964
    A2        2.18230  -0.00034  -0.00034  -0.00033  -0.00067   2.18163
    A3        2.21275  -0.00038  -0.00036  -0.00047  -0.00083   2.21192
    A4        1.89097  -0.00047  -0.00084   0.00021  -0.00063   1.89034
    A5        2.28907   0.00024   0.00042  -0.00010   0.00032   2.28940
    A6        2.10314   0.00024   0.00042  -0.00011   0.00031   2.10345
    A7        1.85780   0.00015   0.00040  -0.00041  -0.00001   1.85779
    A8        1.94223   0.00025   0.00040   0.00001   0.00040   1.94263
    A9        1.84564  -0.00065  -0.00066  -0.00060  -0.00126   1.84438
    D1        0.00000   0.00000   0.00000   0.00000   0.00000   0.00000
    D2        3.14159   0.00000   0.00000   0.00000   0.00000   3.14159
    D3        3.14159   0.00000   0.00000   0.00000   0.00000   3.14159
    D4        0.00000   0.00000   0.00000   0.00000   0.00000   0.00000
    D5        0.00000   0.00000   0.00000   0.00000   0.00000   0.00000
    D6        3.14159   0.00000   0.00000   0.00000   0.00000   3.14159
    D7        0.00000   0.00000   0.00000   0.00000   0.00000   0.00000
    D8        3.14159   0.00000   0.00000   0.00000   0.00000   3.14159
    D9        0.00000   0.00000   0.00000   0.00000   0.00000   0.00000
   D10        0.00000   0.00000   0.00000   0.00000   0.00000   0.00000
         Item               Value     Threshold  Converged?
 Maximum Force            0.001247     0.000450     NO 
 RMS     Force            0.000464     0.000300     NO 
 Maximum Displacement     0.002146     0.001800     NO 
 RMS     Displacement     0.000850     0.001200     YES
 Predicted change in Energy=-4.747353D-06
 GradGradGradGradGradGradGradGradGradGradGradGradGradGradGradGradGradGrad

                          Input orientation:                          
 ---------------------------------------------------------------------
 Center     Atomic      Atomic             Coordinates (Angstroms)
 Number     Number       Type             X           Y           Z
 ---------------------------------------------------------------------
      1          6           0        1.003383    0.001135    0.000000
      2          7           0        0.387507   -1.184183    0.000000
      3          7           0       -0.925672   -0.972731    0.000000
      4          7           0       -1.086806    0.285792    0.000000
      5          7           0        0.096665    0.931060    0.000000
      6          1           0        2.066279    0.141872    0.000000
      7          1           0        0.751101   -2.113326    0.000000
 ---------------------------------------------------------------------
                    Distance matrix (angstroms):
                    1          2          3          4          5
     1  C    0.000000
     2  N    1.335770   0.000000
     3  N    2.160941   1.330094   0.000000
     4  N    2.109483   2.081928   1.268797   0.000000
     5  N    1.298807   2.135145   2.160924   1.347952   0.000000
     6  H    1.072173   2.139322   3.192822   3.156368   2.121838
     7  H    2.129458   0.997751   2.027936   3.022196   3.113932
                    6          7
     6  H    0.000000
     7  H    2.610673   0.000000
 Stoichiometry    CH2N4
 Framework group  CS[SG(CH2N4)]
 Deg. of freedom    11
 Full point group                 CS      NOp   2
 Largest Abelian subgroup         CS      NOp   2
 Largest concise Abelian subgroup C1      NOp   1
                         Standard orientation:                         
 ---------------------------------------------------------------------
 Center     Atomic      Atomic             Coordinates (Angstroms)
 Number     Number       Type             X           Y           Z
 ---------------------------------------------------------------------
      1          6           0        1.057466    0.227603    0.000000
      2          7           0        0.000000    1.043721    0.000000
      3          7           0       -1.102284    0.299329    0.000000
      4          7           0       -0.718886   -0.910155    0.000000
      5          7           0        0.626232   -0.997524    0.000000
      6          1           0        2.080902    0.547187    0.000000
      7          1           0       -0.061136    2.039597    0.000000
 ---------------------------------------------------------------------
 Rotational constants (GHZ):     10.7879982     10.5972958      5.3458984
 Standard basis: 6-311G(d) (5D, 7F)
 There are    76 symmetry adapted cartesian basis functions of A'  symmetry.
 There are    25 symmetry adapted cartesian basis functions of A"  symmetry.
 There are    71 symmetry adapted basis functions of A'  symmetry.
 There are    25 symmetry adapted basis functions of A"  symmetry.
    96 basis functions,   170 primitive gaussians,   101 cartesian basis functions
    18 alpha electrons       18 beta electrons
       nuclear repulsion energy       168.7580747984 Hartrees.
 NAtoms=    7 NActive=    7 NUniq=    7 SFac= 1.00D+00 NAtFMM=   60 NAOKFM=F Big=F
 Integral buffers will be    131072 words long.
 Raffenetti 1 integral format.
 Two-electron integral symmetry is turned on.
 One-electron integrals computed using PRISM.
 NBasis=    96 RedAO= T EigKep=  4.46D-03  NBF=    71    25
 NBsUse=    96 1.00D-06 EigRej= -1.00D+00 NBFU=    71    25
 Initial guess from the checkpoint file:  "/tmp/rdj3/g09-9462/Gau-15490.chk"
 B after Tr=     0.000000    0.000000    0.000000
         Rot=    1.000000    0.000000    0.000000    0.000121 Ang=   0.01 deg.
 Initial guess orbital symmetries:
       Occupied  (A') (A') (A') (A') (A') (A') (A') (A') (A') (A')
                 (A') (A") (A') (A') (A') (A') (A") (A")
       Virtual   (A') (A') (A') (A') (A') (A') (A') (A') (A') (A')
                 (A') (A') (A') (A') (A') (A') (A') (A') (A') (A')
                 (A') (A') (A') (A') (A') (A') (A') (A') (A') (A')
                 (A') (A') (A') (A') (A') (A') (A') (A') (A') (A')
                 (A') (A') (A') (A') (A') (A') (A') (A') (A') (A')
                 (A') (A') (A') (A') (A') (A') (A") (A") (A") (A")
                 (A") (A") (A") (A") (A") (A") (A") (A") (A") (A")
                 (A") (A") (A") (A") (A") (A") (A") (A")
 Keep R1 ints in memory in symmetry-blocked form, NReq=16630616.
 Requested convergence on RMS density matrix=1.00D-08 within 128 cycles.
 Requested convergence on MAX density matrix=1.00D-06.
 Requested convergence on             energy=1.00D-06.
 No special actions if energy rises.
 SCF Done:  E(RHF) =  -256.809827930     A.U. after    9 cycles
            NFock=  9  Conv=0.81D-08     -V/T= 2.0003
 ExpMin= 1.03D-01 ExpMax= 6.29D+03 ExpMxC= 9.49D+02 IAcc=3 IRadAn=         5 AccDes= 0.00D+00
 HarFok:  IExCor=  205 AccDes= 0.00D+00 IRadAn=         5 IDoV=-2 UseB2=F ITyADJ=14
 ICtDFT= 12500011 ScaDFX=  1.000000  1.000000  1.000000  1.000000
 Range of M.O.s used for correlation:     6    96
 NBasis=    96 NAE=    18 NBE=    18 NFC=     5 NFV=     0
 NROrb=     91 NOA=    13 NOB=    13 NVA=    78 NVB=    78
 Semi-Direct transformation.
 ModeAB=           2 MOrb=            13 LenV=     435677527
 LASXX=      2294379 LTotXX=     2294379 LenRXX=     2294379
 LTotAB=     2382106 MaxLAS=     6093633 LenRXY=     6093633
 NonZer=     6288828 LenScr=    10216960 LnRSAI=           0
 LnScr1=           0 LExtra=           0 Total=     18604972
 MaxDsk=          -1 SrtSym=           F ITran=            4
 JobTyp=0 Pass  1:  I=   1 to  13.
 (rs|ai) integrals will be sorted in core.
 Spin components of T(2) and E(2):
     alpha-alpha T2 =       0.3727647504D-01 E2=     -0.1132873629D+00
     alpha-beta  T2 =       0.1888839923D+00 E2=     -0.5879121528D+00
     beta-beta   T2 =       0.3727647504D-01 E2=     -0.1132873629D+00
 ANorm=    0.1124027109D+01
 E2 =    -0.8144868785D+00 EUMP2 =    -0.25762431480812D+03
 Keep R2 and R3 ints in memory in symmetry-blocked form, NReq=17195251.
 Iterations=  50 Convergence= 0.100D-07
 Iteration Nr.   1
 **********************
 DD1Dir will call FoFMem   1 times, MxPair=       182
 NAB=    91 NAA=     0 NBB=     0.
 E3=        0.56693745D-02        EUMP3=      -0.25761864543D+03
 DE(CI)=     -0.64787076     E(CI)=       -257.45769869    
 NORM(A)=   0.10836361D+01
 Iteration Nr.   2
 **********************
 DD1Dir will call FoFMem   1 times, MxPair=       182
 NAB=    91 NAA=     0 NBB=     0.
 DE(CI)=     -0.68749147     E(CI)=       -257.49731940    
 NORM(A)=   0.10845863D+01
 Iteration Nr.   3
 **********************
 DD1Dir will call FoFMem   1 times, MxPair=       182
 NAB=    91 NAA=     0 NBB=     0.
 DE(CI)=     -0.68332110     E(CI)=       -257.49314903    
 NORM(A)=   0.10837511D+01
 Iteration Nr.   4
 **********************
 DD1Dir will call FoFMem   1 times, MxPair=       182
 NAB=    91 NAA=     0 NBB=     0.
 DE(CI)=     -0.68414239     E(CI)=       -257.49397032    
 NORM(A)=   0.10838446D+01
 Iteration Nr.   5
 **********************
 DD1Dir will call FoFMem   1 times, MxPair=       182
 NAB=    91 NAA=     0 NBB=     0.
 DE(CI)=     -0.68410079     E(CI)=       -257.49392872    
 NORM(A)=   0.10838793D+01
 Iteration Nr.   6
 **********************
 DD1Dir will call FoFMem   1 times, MxPair=       182
 NAB=    91 NAA=     0 NBB=     0.
 DE(CI)=     -0.68410621     E(CI)=       -257.49393414    
 NORM(A)=   0.10838807D+01
 Iteration Nr.   7
 **********************
 DD1Dir will call FoFMem   1 times, MxPair=       182
 NAB=    91 NAA=     0 NBB=     0.
 DE(CI)=     -0.68410584     E(CI)=       -257.49393377    
 NORM(A)=   0.10838804D+01
 Iteration Nr.   8
 **********************
 DD1Dir will call FoFMem   1 times, MxPair=       182
 NAB=    91 NAA=     0 NBB=     0.
 DE(CI)=     -0.68410623     E(CI)=       -257.49393416    
 NORM(A)=   0.10838803D+01
 Iteration Nr.   9
 **********************
 DD1Dir will call FoFMem   1 times, MxPair=       182
 NAB=    91 NAA=     0 NBB=     0.
 DE(CI)=     -0.68410620     E(CI)=       -257.49393413    
 NORM(A)=   0.10838803D+01
 Iteration Nr.  10
 **********************
 DD1Dir will call FoFMem   1 times, MxPair=       182
 NAB=    91 NAA=     0 NBB=     0.
 DE(CI)=     -0.68410621     E(CI)=       -257.49393414    
 NORM(A)=   0.10838803D+01
 Iteration Nr.  11
 **********************
 DD1Dir will call FoFMem   1 times, MxPair=       182
 NAB=    91 NAA=     0 NBB=     0.
 DE(CI)=     -0.68410621     E(CI)=       -257.49393414    
 NORM(A)=   0.10838803D+01
 ***************************************************************
 Largest amplitude= 4.44D-02
 Discarding MO integrals.
          IDoAtm=1111111
          Differentiating once with respect to electric field.
                with respect to dipole field.
          Differentiating once with respect to nuclear coordinates.
 Keep R1 ints in memory in symmetry-blocked form, NReq=16581067.
          There are     1 degrees of freedom in the 1st order CPHF.  IDoFFX=0 NUNeed=     1.
 LinEq1:  Iter=  0 NonCon=     1 RMS=3.62D-03 Max=4.52D-02 NDo=     1
 AX will form     1 AO Fock derivatives at one time.
 LinEq1:  Iter=  1 NonCon=     1 RMS=1.08D-03 Max=1.16D-02 NDo=     1
 LinEq1:  Iter=  2 NonCon=     1 RMS=3.18D-04 Max=6.13D-03 NDo=     1
 LinEq1:  Iter=  3 NonCon=     1 RMS=9.99D-05 Max=1.02D-03 NDo=     1
 LinEq1:  Iter=  4 NonCon=     1 RMS=3.50D-05 Max=6.63D-04 NDo=     1
 LinEq1:  Iter=  5 NonCon=     1 RMS=1.19D-05 Max=1.72D-04 NDo=     1
 LinEq1:  Iter=  6 NonCon=     1 RMS=2.87D-06 Max=3.74D-05 NDo=     1
 LinEq1:  Iter=  7 NonCon=     1 RMS=1.70D-06 Max=3.36D-05 NDo=     1
 LinEq1:  Iter=  8 NonCon=     1 RMS=5.29D-07 Max=6.55D-06 NDo=     1
 LinEq1:  Iter=  9 NonCon=     1 RMS=2.21D-07 Max=3.30D-06 NDo=     1
 LinEq1:  Iter= 10 NonCon=     1 RMS=7.41D-08 Max=5.89D-07 NDo=     1
 LinEq1:  Iter= 11 NonCon=     1 RMS=2.26D-08 Max=2.63D-07 NDo=     1
 LinEq1:  Iter= 12 NonCon=     1 RMS=8.79D-09 Max=7.34D-08 NDo=     1
 LinEq1:  Iter= 13 NonCon=     1 RMS=2.43D-09 Max=2.79D-08 NDo=     1
 LinEq1:  Iter= 14 NonCon=     1 RMS=4.16D-10 Max=5.13D-09 NDo=     1
 LinEq1:  Iter= 15 NonCon=     0 RMS=7.17D-11 Max=8.93D-10 NDo=     1
 Linear equations converged to 1.000D-10 1.000D-09 after    15 iterations.
 End of Minotr F.D. properties file   721 does not exist.
 End of Minotr F.D. properties file   722 does not exist.
 End of Minotr F.D. properties file   788 does not exist.
 Calling FoFJK, ICntrl=  10002127 FMM=F ISym2X=1 I1Cent= 0 IOpClX= 0 NMat=1 NMatS=1 NMatT=0.
 ***** Axes restored to original set *****
 -------------------------------------------------------------------
 Center     Atomic                   Forces (Hartrees/Bohr)
 Number     Number              X              Y              Z
 -------------------------------------------------------------------
      1        6           0.000191244   -0.000041119    0.000000000
      2        7          -0.000344524   -0.000084609    0.000000000
      3        7           0.000262537    0.000100070    0.000000000
      4        7           0.000403725    0.000219999    0.000000000
      5        7          -0.000615185   -0.000199631    0.000000000
      6        1           0.000055795    0.000020024    0.000000000
      7        1           0.000046408   -0.000014733    0.000000000
 -------------------------------------------------------------------
 Cartesian Forces:  Max     0.000615185 RMS     0.000204549

 GradGradGradGradGradGradGradGradGradGradGradGradGradGradGradGradGradGrad
 Berny optimization.
 Using GEDIIS/GDIIS optimizer.
 FormGI is forming the generalized inverse of G from B-inverse, IUseBI=4.
 Internal  Forces:  Max     0.000501177 RMS     0.000121597
 Search for a local minimum.
 Step number   4 out of a maximum of   36
 All quantities printed in internal units (Hartrees-Bohrs-Radians)
 Mixed Optimization -- En-DIIS/RFO-DIIS
 Swapping is turned off.
 Update second derivatives using D2CorX and points    1    2    3    4
 DE= -5.22D-06 DEPred=-4.75D-06 R= 1.10D+00
 TightC=F SS=  1.41D+00  RLast= 4.12D-03 DXNew= 5.0454D-01 1.2366D-02
 Trust test= 1.10D+00 RLast= 4.12D-03 DXMaxT set to 3.00D-01
 ITU=  1  1  1  0
     Eigenvalues ---    0.02505   0.02639   0.02674   0.02834   0.15965
     Eigenvalues ---    0.16005   0.24426   0.27498   0.37833   0.48042
     Eigenvalues ---    0.48840   0.53353   0.61966   0.68780   0.71321
 En-DIIS/RFO-DIIS IScMMF=        0 using points:     4    3    2
 RFO step:  Lambda=-5.80783411D-07.
 DidBck=F Rises=F RFO-DIIS coefs:    1.13129   -0.10516   -0.02614
 Iteration  1 RMS(Cart)=  0.00021541 RMS(Int)=  0.00000003
 Iteration  2 RMS(Cart)=  0.00000003 RMS(Int)=  0.00000002
 ClnCor:  largest displacement from symmetrization is 7.39D-13 for atom     1.
 Variable       Old X    -DE/DX   Delta X   Delta X   Delta X     New X
                                 (Linear)    (Quad)   (Total)
    R1        2.52424   0.00006  -0.00019   0.00019   0.00000   2.52424
    R2        2.45439   0.00017   0.00003   0.00031   0.00034   2.45473
    R3        2.02611   0.00006  -0.00008   0.00020   0.00012   2.02623
    R4        2.51351  -0.00022  -0.00026  -0.00033  -0.00059   2.51293
    R5        1.88548   0.00003  -0.00002   0.00008   0.00006   1.88554
    R6        2.39768  -0.00003   0.00034  -0.00005   0.00029   2.39796
    R7        2.54726  -0.00050  -0.00024  -0.00094  -0.00118   2.54608
    A1        1.88964  -0.00011   0.00009  -0.00046  -0.00037   1.88926
    A2        2.18163   0.00007  -0.00004   0.00031   0.00028   2.18191
    A3        2.21192   0.00004  -0.00005   0.00014   0.00009   2.21201
    A4        1.89034  -0.00008   0.00005  -0.00008  -0.00004   1.89030
    A5        2.28940   0.00000  -0.00002  -0.00021  -0.00023   2.28917
    A6        2.10345   0.00007  -0.00002   0.00029   0.00027   2.10372
    A7        1.85779   0.00010  -0.00006   0.00029   0.00022   1.85801
    A8        1.94263   0.00002  -0.00001  -0.00020  -0.00021   1.94242
    A9        1.84438   0.00007  -0.00006   0.00046   0.00039   1.84478
    D1        0.00000   0.00000   0.00000   0.00000   0.00000   0.00000
    D2        3.14159   0.00000   0.00000   0.00000   0.00000   3.14159
    D3        3.14159   0.00000   0.00000   0.00000   0.00000   3.14159
    D4        0.00000   0.00000   0.00000   0.00000   0.00000   0.00000
    D5        0.00000   0.00000   0.00000   0.00000   0.00000   0.00000
    D6        3.14159   0.00000   0.00000   0.00000   0.00000   3.14159
    D7        0.00000   0.00000   0.00000   0.00000   0.00000   0.00000
    D8        3.14159   0.00000   0.00000   0.00000   0.00000   3.14159
    D9        0.00000   0.00000   0.00000   0.00000   0.00000   0.00000
   D10        0.00000   0.00000   0.00000   0.00000   0.00000   0.00000
         Item               Value     Threshold  Converged?
 Maximum Force            0.000501     0.000450     NO 
 RMS     Force            0.000122     0.000300     YES
 Maximum Displacement     0.000644     0.001800     YES
 RMS     Displacement     0.000215     0.001200     YES
 Predicted change in Energy=-4.570963D-07
 GradGradGradGradGradGradGradGradGradGradGradGradGradGradGradGradGradGrad

                          Input orientation:                          
 ---------------------------------------------------------------------
 Center     Atomic      Atomic             Coordinates (Angstroms)
 Number     Number       Type             X           Y           Z
 ---------------------------------------------------------------------
      1          6           0        1.003408    0.001020    0.000000
      2          7           0        0.387398   -1.184229    0.000000
      3          7           0       -0.925442   -0.972629    0.000000
      4          7           0       -1.086687    0.286033    0.000000
      5          7           0        0.096324    0.930841    0.000000
      6          1           0        2.066344    0.141942    0.000000
      7          1           0        0.751112   -2.113361    0.000000
 ---------------------------------------------------------------------
                    Distance matrix (angstroms):
                    1          2          3          4          5
     1  C    0.000000
     2  N    1.335770   0.000000
     3  N    2.160661   1.329784   0.000000
     4  N    2.109438   2.081970   1.268948   0.000000
     5  N    1.298987   2.135004   2.160371   1.347328   0.000000
     6  H    1.072237   2.139530   3.192656   3.156321   2.122107
     7  H    2.129380   0.997785   2.027832   3.022349   3.113826
                    6          7
     6  H    0.000000
     7  H    2.610791   0.000000
 Stoichiometry    CH2N4
 Framework group  CS[SG(CH2N4)]
 Deg. of freedom    11
 Full point group                 CS      NOp   2
 Largest Abelian subgroup         CS      NOp   2
 Largest concise Abelian subgroup C1      NOp   1
                         Standard orientation:                         
 ---------------------------------------------------------------------
 Center     Atomic      Atomic             Coordinates (Angstroms)
 Number     Number       Type             X           Y           Z
 ---------------------------------------------------------------------
      1          6           0        1.057477    0.227615    0.000000
      2          7           0        0.000000    1.043719    0.000000
      3          7           0       -1.101990    0.299446    0.000000
      4          7           0       -0.718754   -0.910249    0.000000
      5          7           0        0.625744   -0.997528    0.000000
      6          1           0        2.081059    0.546946    0.000000
      7          1           0       -0.060923    2.039642    0.000000
 ---------------------------------------------------------------------
 Rotational constants (GHZ):     10.7874401     10.6013865      5.3468020
 Standard basis: 6-311G(d) (5D, 7F)
 There are    76 symmetry adapted cartesian basis functions of A'  symmetry.
 There are    25 symmetry adapted cartesian basis functions of A"  symmetry.
 There are    71 symmetry adapted basis functions of A'  symmetry.
 There are    25 symmetry adapted basis functions of A"  symmetry.
    96 basis functions,   170 primitive gaussians,   101 cartesian basis functions
    18 alpha electrons       18 beta electrons
       nuclear repulsion energy       168.7713986191 Hartrees.
 NAtoms=    7 NActive=    7 NUniq=    7 SFac= 1.00D+00 NAtFMM=   60 NAOKFM=F Big=F
 Integral buffers will be    131072 words long.
 Raffenetti 1 integral format.
 Two-electron integral symmetry is turned on.
 One-electron integrals computed using PRISM.
 NBasis=    96 RedAO= T EigKep=  4.45D-03  NBF=    71    25
 NBsUse=    96 1.00D-06 EigRej= -1.00D+00 NBFU=    71    25
 Initial guess from the checkpoint file:  "/tmp/rdj3/g09-9462/Gau-15490.chk"
 B after Tr=     0.000000    0.000000    0.000000
         Rot=    1.000000    0.000000    0.000000    0.000044 Ang=   0.01 deg.
[...]
 activities (A**4/AMU), depolarization ratios for plane and unpolarized
 incident light, reduced masses (AMU), force constants (mDyne/A),
 and normal coordinates:
                      1                      2                      3
                     A"                     A"                     A"
 Frequencies --    626.2221               730.6577               780.0925
 Red. masses --      1.8948                 1.8576                 7.6290
 Frc consts  --      0.4378                 0.5843                 2.7353
 IR Inten    --    101.5738                13.8799                11.1260
  Atom  AN      X      Y      Z        X      Y      Z        X      Y      Z
     1   6     0.00   0.00  -0.10     0.00   0.00   0.16     0.00   0.00  -0.08
     2   7     0.00   0.00   0.22     0.00   0.00  -0.08     0.00   0.00  -0.12
     3   7     0.00   0.00  -0.09     0.00   0.00   0.08     0.00   0.00   0.41
     4   7     0.00   0.00   0.00     0.00   0.00   0.04     0.00   0.00  -0.48
     5   7     0.00   0.00   0.04     0.00   0.00  -0.17     0.00   0.00   0.31
     6   1     0.00   0.00  -0.27     0.00   0.00   0.49     0.00   0.00  -0.10
     7   1     0.00   0.00  -0.92     0.00   0.00  -0.83     0.00   0.00  -0.69
                      4                      5                      6
                     A"                     A'                     A'
 Frequencies --    933.7267              1045.7489              1073.9719
 Red. masses --      1.3688                 4.6204                 6.5007
 Frc consts  --      0.7031                 2.9770                 4.4177
 IR Inten    --     16.9252                 2.7007                 1.9309
  Atom  AN      X      Y      Z        X      Y      Z        X      Y      Z
     1   6     0.00   0.00   0.17     0.14   0.12   0.00    -0.36  -0.05   0.00
     2   7     0.00   0.00  -0.03     0.09   0.02   0.00    -0.02   0.40   0.00
     3   7     0.00   0.00   0.00     0.15  -0.14   0.00     0.23  -0.04   0.00
     4   7     0.00   0.00  -0.01    -0.04  -0.19   0.00     0.20  -0.10   0.00
     5   7     0.00   0.00  -0.03    -0.31   0.25   0.00    -0.08  -0.21   0.00
     6   1     0.00   0.00  -0.98     0.37  -0.62   0.00    -0.23  -0.57   0.00
     7   1     0.00   0.00  -0.05    -0.44  -0.01   0.00    -0.11   0.42   0.00
                      7                      8                      9
                     A'                     A'                     A'
 Frequencies --   1152.4186              1174.8052              1218.5595
 Red. masses --      3.8748                 2.8123                 2.1173
 Frc consts  --      3.0320                 2.2869                 1.8523
 IR Inten    --     22.5679                34.5699                10.0584
  Atom  AN      X      Y      Z        X      Y      Z        X      Y      Z
     1   6    -0.11   0.06   0.00     0.05  -0.02   0.00     0.08  -0.10   0.00
     2   7    -0.05  -0.23   0.00    -0.11   0.00   0.00    -0.16  -0.05   0.00
     3   7     0.15   0.14   0.00     0.26   0.07   0.00    -0.03   0.06   0.00
     4   7     0.23   0.01   0.00    -0.20  -0.02   0.00     0.15   0.13   0.00
     5   7    -0.23  -0.01   0.00     0.08  -0.05   0.00    -0.01   0.00   0.00
     6   1    -0.35   0.77   0.00    -0.08   0.39   0.00     0.27  -0.71   0.00
     7   1     0.12  -0.24   0.00    -0.84  -0.05   0.00    -0.57  -0.08   0.00
                     10                     11                     12
                     A'                     A'                     A'
 Frequencies --   1368.8893              1443.9743              1575.0225
 Red. masses --      3.0140                 7.7064                 3.3663
 Frc consts  --      3.3276                 9.4672                 4.9202
 IR Inten    --      0.2587                24.7734                12.9087
  Atom  AN      X      Y      Z        X      Y      Z        X      Y      Z
     1   6     0.23   0.03   0.00     0.16   0.08   0.00    -0.15   0.29   0.00
     2   7     0.05   0.14   0.00    -0.17   0.05   0.00     0.20  -0.13   0.00
     3   7    -0.14  -0.04   0.00    -0.10   0.45   0.00    -0.07   0.08   0.00
     4   7     0.07   0.01   0.00     0.03  -0.49   0.00    -0.02  -0.01   0.00
     5   7    -0.14  -0.20   0.00     0.05  -0.07   0.00     0.06  -0.15   0.00
     6   1     0.06   0.70   0.00     0.31  -0.30   0.00     0.08  -0.50   0.00
     7   1    -0.58   0.13   0.00     0.53   0.12   0.00    -0.71  -0.21   0.00
                     13                     14                     15
                     A'                     A'                     A'
 Frequencies --   1635.6948              3406.7663              3848.4666
 Red. masses --      3.3215                 1.1033                 1.0845
 Frc consts  --      5.2358                 7.5446                 9.4639
 IR Inten    --     22.4089                 0.8017               114.9418
  Atom  AN      X      Y      Z        X      Y      Z        X      Y      Z
     1   6    -0.11  -0.26   0.00     0.09   0.03   0.00     0.00   0.00   0.00
     2   7     0.18   0.02   0.00     0.00   0.00   0.00    -0.01   0.08   0.00
     3   7    -0.11   0.11   0.00     0.00   0.00   0.00     0.00   0.00   0.00
     4   7     0.06  -0.12   0.00     0.00   0.00   0.00     0.00   0.00   0.00
     5   7     0.05   0.19   0.00     0.00   0.00   0.00     0.00   0.00   0.00
     6   1    -0.33   0.31   0.00    -0.95  -0.29   0.00    -0.01   0.00   0.00
     7   1    -0.78  -0.04   0.00     0.01   0.02   0.00     0.06  -0.99   0.00

 -------------------
 - Thermochemistry -
 -------------------
 Temperature   298.150 Kelvin.  Pressure   1.00000 Atm.
 Atom     1 has atomic number  6 and mass  12.00000
 Atom     2 has atomic number  7 and mass  14.00307
 Atom     3 has atomic number  7 and mass  14.00307
 Atom     4 has atomic number  7 and mass  14.00307
 Atom     5 has atomic number  7 and mass  14.00307
 Atom     6 has atomic number  1 and mass   1.00783
 Atom     7 has atomic number  1 and mass   1.00783
 Molecular mass:    70.02795 amu.
 Principal axes and moments of inertia in atomic units:
                           1         2         3
     Eigenvalues --   167.30023 170.23634 337.53657
           X            0.85657   0.51603   0.00000
           Y           -0.51603   0.85657   0.00000
           Z            0.00000   0.00000   1.00000
 This molecule is an asymmetric top.
 Rotational symmetry number  1.
 Rotational temperatures (Kelvin)      0.51771     0.50879     0.25661
 Rotational constants (GHZ):          10.78744    10.60139     5.34680
 Zero-point vibrational energy     131679.0 (Joules/Mol)
                                   31.47205 (Kcal/Mol)
 Vibrational temperatures:    900.99  1051.25  1122.38  1343.42  1504.60
          (Kelvin)           1545.20  1658.07  1690.28  1753.23  1969.52
                             2077.55  2266.10  2353.40  4901.57  5537.08
 
 Zero-point correction=                           0.050154 (Hartree/Particle)
 Thermal correction to Energy=                    0.053499
 Thermal correction to Enthalpy=                  0.054443
 Thermal correction to Gibbs Free Energy=         0.024134
 Sum of electronic and zero-point Energies=           -257.443781
 Sum of electronic and thermal Energies=              -257.440435
 Sum of electronic and thermal Enthalpies=            -257.439491
 Sum of electronic and thermal Free Energies=         -257.469801
 
                     E (Thermal)             CV                S
                      KCal/Mol        Cal/Mol-Kelvin    Cal/Mol-Kelvin
 Total                   33.571             10.448             63.792
 Electronic               0.000              0.000              0.000
 Translational            0.889              2.981             38.656
 Rotational               0.889              2.981             23.779
 Vibrational             31.794              4.486              1.357
                       Q            Log10(Q)             Ln(Q)
 Total Bot       0.792826D-11        -11.100822        -25.560588
 Total V=0       0.929652D+12         11.968320         27.558076
 Vib (Bot)       0.980696D-23        -23.008466        -52.978950
 Vib (V=0)       0.114994D+01          0.060677          0.139714
 Electronic      0.100000D+01          0.000000          0.000000
 Translational   0.230336D+08          7.362362         16.952466
 Rotational      0.350979D+05          4.545281         10.465897
 ***** Axes restored to original set *****
 -------------------------------------------------------------------
 Center     Atomic                   Forces (Hartrees/Bohr)
 Number     Number              X              Y              Z
 -------------------------------------------------------------------
      1        6           0.000125518    0.000053719    0.000000000
      2        7          -0.000121631   -0.000010208    0.000000000
      3        7          -0.000083370   -0.000008048    0.000000000
      4        7           0.000235226   -0.000061534    0.000000000
      5        7          -0.000154776    0.000015709    0.000000000
      6        1          -0.000002048    0.000009376    0.000000000
      7        1           0.000001081    0.000000986    0.000000000
 -------------------------------------------------------------------
 Cartesian Forces:  Max     0.000235226 RMS     0.000076833
 FormGI is forming the generalized inverse of G from B-inverse, IUseBI=4.

 GradGradGradGradGradGradGradGradGradGradGradGradGradGradGradGradGradGrad
 Berny optimization.
 Internal  Forces:  Max     0.000145094 RMS     0.000050115
 Search for a local minimum.
 Step number   1 out of a maximum of    2
 All quantities printed in internal units (Hartrees-Bohrs-Radians)
 Second derivative matrix not updated -- analytic derivatives used.
 ITU=  0
     Eigenvalues ---    0.00942   0.02901   0.07851   0.08454   0.11349
     Eigenvalues ---    0.11936   0.23967   0.30494   0.40220   0.40604
     Eigenvalues ---    0.50387   0.52551   0.54249   0.65177   0.71522
 Angle between quadratic step and forces=  24.99 degrees.
 Linear search not attempted -- first point.
 Iteration  1 RMS(Cart)=  0.00009112 RMS(Int)=  0.00000001
 Iteration  2 RMS(Cart)=  0.00000001 RMS(Int)=  0.00000000
 ClnCor:  largest displacement from symmetrization is 1.90D-11 for atom     1.
 Variable       Old X    -DE/DX   Delta X   Delta X   Delta X     New X
                                 (Linear)    (Quad)   (Total)
    R1        2.52424   0.00011   0.00000   0.00016   0.00016   2.52440
    R2        2.45473   0.00002   0.00000   0.00014   0.00014   2.45487
    R3        2.02623   0.00000   0.00000  -0.00001  -0.00001   2.02622
    R4        2.51293  -0.00003   0.00000  -0.00004  -0.00004   2.51288
    R5        1.88554   0.00000   0.00000   0.00000   0.00000   1.88554
    R6        2.39796  -0.00006   0.00000  -0.00005  -0.00005   2.39791
    R7        2.54608  -0.00011   0.00000  -0.00038  -0.00038   2.54570
    A1        1.88926  -0.00005   0.00000  -0.00019  -0.00019   1.88908
    A2        2.18191   0.00004   0.00000   0.00014   0.00014   2.18205
    A3        2.21201   0.00002   0.00000   0.00005   0.00005   2.21206
    A4        1.89030   0.00003   0.00000   0.00011   0.00011   1.89041
    A5        2.28917  -0.00002   0.00000  -0.00012  -0.00012   2.28905
    A6        2.10372  -0.00002   0.00000   0.00001   0.00001   2.10373
    A7        1.85801  -0.00009   0.00000  -0.00020  -0.00020   1.85781
    A8        1.94242   0.00015   0.00000   0.00027   0.00027   1.94269
    A9        1.84478  -0.00004   0.00000   0.00001   0.00001   1.84478
    D1        0.00000   0.00000   0.00000   0.00000   0.00000   0.00000
    D2        3.14159   0.00000   0.00000   0.00000   0.00000   3.14159
    D3        3.14159   0.00000   0.00000   0.00000   0.00000   3.14159
    D4        0.00000   0.00000   0.00000   0.00000   0.00000   0.00000
    D5        0.00000   0.00000   0.00000   0.00000   0.00000   0.00000
    D6        3.14159   0.00000   0.00000   0.00000   0.00000   3.14159
    D7        0.00000   0.00000   0.00000   0.00000   0.00000   0.00000
    D8        3.14159   0.00000   0.00000   0.00000   0.00000   3.14159
    D9        0.00000   0.00000   0.00000   0.00000   0.00000   0.00000
   D10        0.00000   0.00000   0.00000   0.00000   0.00000   0.00000
         Item               Value     Threshold  Converged?
 Maximum Force            0.000145     0.000450     YES
 RMS     Force            0.000050     0.000300     YES
 Maximum Displacement     0.000302     0.001800     YES
 RMS     Displacement     0.000091     0.001200     YES
 Predicted change in Energy=-7.265439D-08
 Optimization completed.
    -- Stationary point found.
                           ----------------------------
                           !   Optimized Parameters   !
                           ! (Angstroms and Degrees)  !
 --------------------------                            --------------------------
 ! Name  Definition              Value          Derivative Info.                !
 --------------------------------------------------------------------------------
 ! R1    R(1,2)                  1.3358         -DE/DX =    0.0001              !
 ! R2    R(1,5)                  1.299          -DE/DX =    0.0                 !
 ! R3    R(1,6)                  1.0722         -DE/DX =    0.0                 !
 ! R4    R(2,3)                  1.3298         -DE/DX =    0.0                 !
 ! R5    R(2,7)                  0.9978         -DE/DX =    0.0                 !
 ! R6    R(3,4)                  1.2689         -DE/DX =   -0.0001              !
 ! R7    R(4,5)                  1.3473         -DE/DX =   -0.0001              !
 ! A1    A(2,1,5)              108.2469         -DE/DX =   -0.0001              !
 ! A2    A(2,1,6)              125.0144         -DE/DX =    0.0                 !
 ! A3    A(5,1,6)              126.7387         -DE/DX =    0.0                 !
 ! A4    A(1,2,3)              108.3062         -DE/DX =    0.0                 !
 ! A5    A(1,2,7)              131.1596         -DE/DX =    0.0                 !
 ! A6    A(3,2,7)              120.5342         -DE/DX =    0.0                 !
 ! A7    A(2,3,4)              106.4563         -DE/DX =   -0.0001              !
 ! A8    A(3,4,5)              111.2926         -DE/DX =    0.0001              !
 ! A9    A(1,5,4)              105.698          -DE/DX =    0.0                 !
 ! D1    D(5,1,2,3)              0.0            -DE/DX =    0.0                 !
 ! D2    D(5,1,2,7)            180.0            -DE/DX =    0.0                 !
 ! D3    D(6,1,2,3)            180.0            -DE/DX =    0.0                 !
 ! D4    D(6,1,2,7)              0.0            -DE/DX =    0.0                 !
 ! D5    D(2,1,5,4)              0.0            -DE/DX =    0.0                 !
 ! D6    D(6,1,5,4)            180.0            -DE/DX =    0.0                 !
 ! D7    D(1,2,3,4)              0.0            -DE/DX =    0.0                 !
 ! D8    D(7,2,3,4)            180.0            -DE/DX =    0.0                 !
 ! D9    D(2,3,4,5)              0.0            -DE/DX =    0.0                 !
 ! D10   D(3,4,5,1)              0.0            -DE/DX =    0.0                 !
 --------------------------------------------------------------------------------
 GradGradGradGradGradGradGradGradGradGradGradGradGradGradGradGradGradGrad

 1\1\GINC-N755\Freq\RCID-FC\6-311G(d)\C1H2N4\RDJ3\16-Dec-2013\0\\#N Geo
 m=AllCheck Guess=TCheck SCRF=Check GenChk RCID(FC)/6-311G(d) Freq\\1H-
 tetrazole CH2N4 casno=288948 state=1 config=1 method=14 basis=7\\0,1\C
 ,1.0034080931,0.0010199167,0.\N,0.3873980907,-1.1842287402,0.\N,-0.925
 4424536,-0.9726286238,0.\N,-1.0866867636,0.2860334538,0.\N,0.096324354
 6,0.9308410223,0.\H,2.0663437307,0.1419424935,0.\H,0.751111736,-2.1133
 608764,0.\\Version=EM64L-G09RevD.01\State=1-A'\HF=-256.8098319\MP2=-25
 7.6243084\MP3=-257.6186362\CID=-257.4939346\RMSD=2.772e-09\RMSF=7.683e
 -05\ZeroPoint=0.0501539\Thermal=0.0534992\Dipole=1.7485615,-1.3438547,
 0.\DipoleDeriv=0.2671717,0.0560583,0.,-0.0944621,0.5119675,0.,0.,0.,0.
 1232926,-0.2824394,0.2739823,0.,0.2044392,-0.4159537,0.,0.,0.,-0.18505
 3,0.1194616,-0.3574767,0.,-0.3490065,-0.1661806,0.,0.,0.,-0.0918678,0.
 0831508,0.1567293,0.,0.223401,-0.026848,0.,0.,0.,-0.1588738,-0.4666144
 ,-0.0968258,0.,0.0389016,-0.3314256,0.,0.,0.,-0.2320088,0.0535226,0.00
 74649,0.,-0.0008541,0.1242127,0.,0.,0.,0.1740733,0.2257366,-0.0400719,
 0.,-0.02251,0.3041757,0.,0.,0.,0.3705581\Quadrupole=0.6861599,-0.32127
 81,-0.3648818,-1.5915714,0.,0.\QuadrupoleDeriv=2.6866319,-1.6814546,-1
 .0051773,0.7831766,0.,0.,0.210175,-0.1661293,-0.0440457,1.4603647,0.,0
 .,0.,0.,0.,0.,-0.1237098,-0.0227484,0.6822115,-0.5886564,-0.0935551,-0
 .7287817,0.,0.,0.6285992,-0.9834225,0.3548233,0.3999261,0.,0.,0.,0.,0.
 ,0.,-0.5950429,0.9060666,-1.3917043,1.1745487,0.2171556,-1.238185,0.,0
 .,0.5247831,-0.8125229,0.2877398,-0.4523383,0.,0.,0.,0.,0.,0.,0.595850
 8,0.6160199,-1.1319463,0.8916113,0.240335,0.6955045,0.,0.,-0.7391604,0
 .9873226,-0.2481621,-1.0289438,0.,0.,0.,0.,0.,0.,0.7960003,-0.3974619,
 0.0811269,-0.2909669,0.20984,0.2643824,0.,0.,-0.4516218,0.5716406,-0.1
 200188,0.0712824,0.,0.,0.,0.,0.,0.,-0.4289372,-1.0895376,0.695093,-0.2
 797612,-0.4153318,0.1099461,0.,0.,-0.1395633,0.2389898,-0.0994265,0.84
 68666,0.,0.,0.,0.,0.,0.,0.8726779,0.122204,0.7104509,-0.3916494,-0.318
 8015,-1.2302087,0.,0.,0.8628955,-1.6279758,0.7650803,0.4522879,0.,0.,0
 .,0.,0.,0.,0.6315215,-1.4786191\PG=CS [SG(C1H2N4)]\NImag=0\\1.06296578
 ,0.00815145,0.70060021,0.,0.,0.16115416,-0.19275156,-0.09524617,0.,0.6
 9661090,-0.11679325,-0.31642567,0.,-0.12554462,1.12403114,0.,0.,-0.069
 44709,0.,0.,0.10306204,-0.10087028,-0.08920410,0.,-0.29992601,-0.03220
 239,0.,0.55144755,0.00403147,-0.03595474,0.,0.01400224,-0.12226918,0.,
 0.06172904,0.71303351,0.,0.,0.02271579,0.,0.,-0.07593842,0.,0.,0.12848
 894,-0.12858051,0.08080780,0.,-0.07966759,0.03546622,0.,-0.13660862,0.
 01060292,0.,0.58417160,-0.03497556,0.04447172,0.,0.12452322,-0.1134835
 7,0.,0.07064531,-0.44569609,0.,-0.10840452,0.64958750,0.,0.,0.02077238
 ,0.,0.,0.02974743,0.,0.,-0.10826745,0.,0.,0.13843472,-0.27585473,0.154
 16820,0.,0.01284845,0.10255558,0.,-0.01648924,-0.13169728,0.,-0.224649
 22,-0.05721335,0.,0.51779548,0.16685000,-0.31603418,0.,-0.02781358,-0.
 11325471,0.,-0.01078476,-0.10677738,0.,-0.02214205,-0.13620823,0.,-0.0
 9077553,0.66350593,0.,0.,-0.08870226,0.,0.,0.02315331,0.,0.,0.03951092
 ,0.,0.,-0.09947436,0.,0.,0.12155350,-0.38490578,-0.04608408,0.,-0.0018
 6962,0.00304406,0.,0.00101747,0.00112201,0.,-0.00159944,0.00148202,0.,
 -0.01197757,-0.00531175,0.,0.39987698,-0.04242196,-0.06934456,0.,-0.03
 509874,0.00371562,0.,-0.00120917,-0.00750839,0.,0.00686770,-0.00294754
 ,0.,0.02517430,0.01289831,0.,0.04638819,0.06336437,0.,0.,-0.03634916,0
 .,0.,-0.00183885,0.,0.,0.00685541,0.,0.,0.01005047,0.,0.,-0.00463255,0
 .,0.,0.02693015,0.02000793,-0.01257559,0.,-0.13525749,0.13346030,0.,0.
 00144446,0.04020086,0.,-0.01307658,0.00395032,0.,-0.00167230,-0.010028
 43,0.,-0.00054652,0.00030082,0.,0.12910121,0.01517406,-0.00736815,0.,0
 .14518877,-0.46227014,0.,0.00101254,0.00514011,0.,-0.00316068,0.004302
 59,0.,-0.00226537,-0.00411270,0.,-0.00064073,-0.00017638,0.,-0.1553057
 3,0.46448384,0.,0.,-0.01014419,0.,0.,-0.00874078,0.,0.,-0.01335639,0.,
 0.,0.00873912,0.,0.,0.00857899,0.,0.,-0.00101307,0.,0.,0.01593801\\-0.
 00012552,-0.00005372,0.,0.00012163,0.00001021,0.,0.00008337,0.00000805
 ,0.,-0.00023523,0.00006153,0.,0.00015478,-0.00001571,0.,0.00000205,-0.
 00000938,0.,-0.00000108,-0.00000099,0.\\\@


 THERE'S A SUCKER BORN EVERY MINUTE

              -- PHINEAS TAYLOR (P.T.) BARNUM
 Job cpu time:       0 days  6 hours 54 minutes  8.1 seconds.
 File lengths (MBytes):  RWF=   1121 Int=      0 D2E=      0 Chk=     40 Scr=      1
 Normal termination of Gaussian 09 at Mon Dec 16 15:02:33 2013.
