 Entering Gaussian System, Link 0=g09
 Initial command:
 /usr/local/gaussian/g09.d01.em64t.legacy.linda/g09/l1.exe "/tmp/rdj3/g09-16833/Gau-10371.inp" -scrdir="/tmp/rdj3/g09-16833/"
 Entering Link 1 = /usr/local/gaussian/g09.d01.em64t.legacy.linda/g09/l1.exe PID=     10372.
  
 Copyright (c) 1988,1990,1992,1993,1995,1998,2003,2009,2013,
            Gaussian, Inc.  All Rights Reserved.
  
 This is part of the Gaussian(R) 09 program.  It is based on
 the Gaussian(R) 03 system (copyright 2003, Gaussian, Inc.),
 the Gaussian(R) 98 system (copyright 1998, Gaussian, Inc.),
 the Gaussian(R) 94 system (copyright 1995, Gaussian, Inc.),
 the Gaussian 92(TM) system (copyright 1992, Gaussian, Inc.),
 the Gaussian 90(TM) system (copyright 1990, Gaussian, Inc.),
 the Gaussian 88(TM) system (copyright 1988, Gaussian, Inc.),
 the Gaussian 86(TM) system (copyright 1986, Carnegie Mellon
 University), and the Gaussian 82(TM) system (copyright 1983,
 Carnegie Mellon University). Gaussian is a federally registered
 trademark of Gaussian, Inc.
  
 This software contains proprietary and confidential information,
 including trade secrets, belonging to Gaussian, Inc.
  
 This software is provided under written license and may be
 used, copied, transmitted, or stored only in accord with that
 written license.
  
 The following legend is applicable only to US Government
 contracts under FAR:
  
                    RESTRICTED RIGHTS LEGEND
  
 Use, reproduction and disclosure by the US Government is
 subject to restrictions as set forth in subparagraphs (a)
 and (c) of the Commercial Computer Software - Restricted
 Rights clause in FAR 52.227-19.
  
 Gaussian, Inc.
 340 Quinnipiac St., Bldg. 40, Wallingford CT 06492
  
  
 ---------------------------------------------------------------
 Warning -- This program may not be used in any manner that
 competes with the business of Gaussian, Inc. or will provide
 assistance to any competitor of Gaussian, Inc.  The licensee
 of this program is prohibited from giving any competitor of
 Gaussian, Inc. access to this program.  By using this program,
 the user acknowledges that Gaussian, Inc. is engaged in the
 business of creating and licensing software in the field of
 computational chemistry and represents and warrants to the
 licensee that it is not a competitor of Gaussian, Inc. and that
 it will not use this program in any manner prohibited above.
 ---------------------------------------------------------------
  

 Cite this work as:
 Gaussian 09, Revision D.01,
 M. J. Frisch, G. W. Trucks, H. B. Schlegel, G. E. Scuseria, 
 M. A. Robb, J. R. Cheeseman, G. Scalmani, V. Barone, B. Mennucci, 
 G. A. Petersson, H. Nakatsuji, M. Caricato, X. Li, H. P. Hratchian, 
 A. F. Izmaylov, J. Bloino, G. Zheng, J. L. Sonnenberg, M. Hada, 
 M. Ehara, K. Toyota, R. Fukuda, J. Hasegawa, M. Ishida, T. Nakajima, 
 Y. Honda, O. Kitao, H. Nakai, T. Vreven, J. A. Montgomery, Jr., 
 J. E. Peralta, F. Ogliaro, M. Bearpark, J. J. Heyd, E. Brothers, 
 K. N. Kudin, V. N. Staroverov, T. Keith, R. Kobayashi, J. Normand, 
 K. Raghavachari, A. Rendell, J. C. Burant, S. S. Iyengar, J. Tomasi, 
 M. Cossi, N. Rega, J. M. Millam, M. Klene, J. E. Knox, J. B. Cross, 
 V. Bakken, C. Adamo, J. Jaramillo, R. Gomperts, R. E. Stratmann, 
 O. Yazyev, A. J. Austin, R. Cammi, C. Pomelli, J. W. Ochterski, 
 R. L. Martin, K. Morokuma, V. G. Zakrzewski, G. A. Voth, 
 P. Salvador, J. J. Dannenberg, S. Dapprich, A. D. Daniels, 
 O. Farkas, J. B. Foresman, J. V. Ortiz, J. Cioslowski, 
 and D. J. Fox, Gaussian, Inc., Wallingford CT, 2013.
 
 ******************************************
 Gaussian 09:  EM64L-G09RevD.01 24-Apr-2013
                25-Nov-2013 
 ******************************************
 %Nproc=8
 Will use up to    8 processors via shared memory.
 %mem=436000000
 -----------------------------
 #CISD/6-31G opt=z-matrix freq
 -----------------------------
 1/10=7,18=40,38=1/1,3;
 2/12=2,17=6,18=5,29=3,40=1/2;
 3/5=1,6=6,11=9,16=1,25=1,30=1,71=1/1,2,3;
 4//1;
 5/5=2,38=5/2;
 8/6=4,9=120000,10=2/1,4;
 9/15=1/13;
 11/28=-4,29=200,42=3/11;
 10/5=3/2;
 6/7=2,8=2,9=2,10=2/1;
 7/12=6,29=1/1,2,3,16;
 1/10=7,18=40/3(2);
 2/29=3/2;
 99//99;
 2/29=3/2;
 3/5=1,6=6,11=9,16=1,25=1,30=1,71=1/1,2,3;
 4/5=5,16=3,69=1/1;
 5/5=2,38=5/2;
 8/6=4,9=120000,10=2/1,4;
 9/15=1/13;
 11/28=-4,29=200,42=3/11;
 10/5=3/2;
 7/12=6/1,2,3,16;
 1/18=40/3(-9);
 2/29=3/2;
 6/7=2,8=2,9=2,10=2/1;
 99//99;
 ------------------------------------------------------------------
 1H-tetrazole CH2N4 casno=288948 state=1 config=1 method=15 basis=9
 ------------------------------------------------------------------
 Symbolic Z-matrix:
 Charge =  0 Multiplicity = 1
 X
 X                    1     1. 
 C                    1     1.       2     90. 
 N                    1    rn1      2     90.      3    an1      0
 N                    1    rn2      2     90.      3    an2      0
 N                    1    rn3      2     90.      3    an3      0
 N                    1    rn4      2     90.      3    an4      0
 H                    3    rch      4    ach      5     180.     0
 H                    4    rnh      5    anh      6     180.     0
       Variables:
  rn1                   1.2426                   
  rn2                   1.333                    
  rn3                   1.1146                   
  rn4                   0.9264                   
  rch                   1.0678                   
  rnh                   0.9941                   
  an1                  71.8427                   
  an2                 133.7028                   
  an3                 194.4597                   
  an4                 276.0768                   
  ach                 125.0248                   
  anh                 120.7626                   
 

 GradGradGradGradGradGradGradGradGradGradGradGradGradGradGradGradGradGrad
 Berny optimization.
 Initialization pass.
                       ----------------------------
                       !    Initial Parameters    !
                       ! (Angstroms and Degrees)  !
 ----------------------                            ----------------------
 !      Name          Value   Derivative information (Atomic Units)     !
 ------------------------------------------------------------------------
 !       rn1         1.2426   estimate D2E/DX2                          !
 !       rn2         1.333    estimate D2E/DX2                          !
 !       rn3         1.1146   estimate D2E/DX2                          !
 !       rn4         0.9264   estimate D2E/DX2                          !
 !       rch         1.0678   estimate D2E/DX2                          !
 !       rnh         0.9941   estimate D2E/DX2                          !
 !       an1        71.8427   estimate D2E/DX2                          !
 !       an2       133.7028   estimate D2E/DX2                          !
 !       an3       194.4597   estimate D2E/DX2                          !
 !       an4       276.0768   estimate D2E/DX2                          !
 !       ach       125.0248   estimate D2E/DX2                          !
 !       anh       120.7626   estimate D2E/DX2                          !
 ------------------------------------------------------------------------
 Trust Radius=3.00D-01 FncErr=1.00D-07 GrdErr=1.00D-07
 Number of steps in this run=     22 maximum allowed number of steps=    100.
 GradGradGradGradGradGradGradGradGradGradGradGradGradGradGradGradGradGrad

 ---------------------------------------------------------------------------------------------------
                            Z-MATRIX (ANGSTROMS AND DEGREES)
   CD    Cent   Atom    N1       Length/X        N2       Alpha/Y        N3        Beta/Z          J
 ---------------------------------------------------------------------------------------------------
      1         X 
      2         X        1   1.000000(     1)
      3      1  C        1   1.000000(     2)      2   90.000(     9)
      4      2  N        1   1.242600(     3)      2   90.000(    10)      3   71.843(    16)      0
      5      3  N        1   1.333000(     4)      2   90.000(    11)      3  133.703(    17)      0
      6      4  N        1   1.114600(     5)      2   90.000(    12)      3  194.460(    18)      0
      7      5  N        1   0.926400(     6)      2   90.000(    13)      3  276.077(    19)      0
      8      6  H        3   1.067800(     7)      4  125.025(    14)      5  180.000(    20)      0
      9      7  H        4   0.994100(     8)      5  120.763(    15)      6  180.000(    21)      0
 ---------------------------------------------------------------------------------------------------
                         Z-Matrix orientation:                         
 ---------------------------------------------------------------------
 Center     Atomic      Atomic             Coordinates (Angstroms)
 Number     Number       Type             X           Y           Z
 ---------------------------------------------------------------------
      1         -1           0        0.000000    0.000000    0.000000
      2         -1           0        0.000000    0.000000    1.000000
      3          6           0        1.000000    0.000000    0.000000
      4          7           0        0.387228   -1.180724    0.000000
      5          7           0       -0.920993   -0.963670    0.000000
      6          7           0       -1.079293    0.278314    0.000000
      7          7           0        0.098070    0.921194    0.000000
      8          1           0        2.058429    0.141157    0.000000
      9          1           0        0.749017   -2.106652    0.000000
 ---------------------------------------------------------------------
                    Distance matrix (angstroms):
                    1          2          3          4          5
     1  X    0.000000
     2  X    1.000000   0.000000
     3  C    1.000000   1.414214   0.000000
     4  N    1.242600   1.595009   1.330263   0.000000
     5  N    1.333000   1.666400   2.149157   1.326105   0.000000
     6  N    1.114600   1.497442   2.097837   2.068690   1.252032
     7  N    0.926400   1.363164   1.289216   2.121715   2.142710
     8  H    2.063263   2.292827   1.067800   2.130794   3.177672
     9  H    2.235847   2.449288   2.121551   0.994100   2.023695
                    6          7          8          9
     6  N    0.000000
     7  N    1.341447   0.000000
     8  H    3.140719   2.109850   0.000000
     9  H    3.005127   3.097029   2.601385   0.000000
 Stoichiometry    CH2N4
 Framework group  CS[SG(CH2N4)]
 Deg. of freedom    11
 Full point group                 CS      NOp   2
 Largest Abelian subgroup         CS      NOp   2
 Largest concise Abelian subgroup C1      NOp   1
                         Standard orientation:                         
 ---------------------------------------------------------------------
 Center     Atomic      Atomic             Coordinates (Angstroms)
 Number     Number       Type             X           Y           Z
 ---------------------------------------------------------------------
      1          6           0        1.052733    0.225621    0.000000
      2          7           0        0.000000    1.038857    0.000000
      3          7           0       -1.095416    0.291448    0.000000
      4          7           0       -0.716382   -0.901832    0.000000
      5          7           0        0.622191   -0.989579    0.000000
      6          1           0        2.072287    0.542964    0.000000
      7          1           0       -0.061439    2.031056    0.000000
 ---------------------------------------------------------------------
 Rotational constants (GHZ):     10.9201517     10.7345054      5.4132664
 Standard basis: 6-31G (6D, 7F)
 There are    39 symmetry adapted cartesian basis functions of A'  symmetry.
 There are    10 symmetry adapted cartesian basis functions of A"  symmetry.
 There are    39 symmetry adapted basis functions of A'  symmetry.
 There are    10 symmetry adapted basis functions of A"  symmetry.
    49 basis functions,   118 primitive gaussians,    49 cartesian basis functions
    18 alpha electrons       18 beta electrons
       nuclear repulsion energy       169.8308489506 Hartrees.
 NAtoms=    7 NActive=    7 NUniq=    7 SFac= 1.00D+00 NAtFMM=   60 NAOKFM=F Big=F
 Integral buffers will be    131072 words long.
 Raffenetti 1 integral format.
 Two-electron integral symmetry is turned on.
 One-electron integrals computed using PRISM.
 NBasis=    49 RedAO= T EigKep=  6.07D-03  NBF=    39    10
 NBsUse=    49 1.00D-06 EigRej= -1.00D+00 NBFU=    39    10
 ExpMin= 1.61D-01 ExpMax= 4.17D+03 ExpMxC= 6.27D+02 IAcc=1 IRadAn=         1 AccDes= 0.00D+00
 Harris functional with IExCor=  205 and IRadAn=       1 diagonalized for initial guess.
 HarFok:  IExCor=  205 AccDes= 0.00D+00 IRadAn=         1 IDoV= 1 UseB2=F ITyADJ=14
 ICtDFT=  3500011 ScaDFX=  1.000000  1.000000  1.000000  1.000000
 FoFCou: FMM=F IPFlag=           0 FMFlag=      100000 FMFlg1=           0
         NFxFlg=           0 DoJE=T BraDBF=F KetDBF=T FulRan=T
         wScrn=  0.000000 ICntrl=     500 IOpCl=  0 I1Cent=   200000004 NGrid=           0
         NMat0=    1 NMatS0=      1 NMatT0=    0 NMatD0=    1 NMtDS0=    0 NMtDT0=    0
 Petite list used in FoFCou.
 Initial guess orbital symmetries:
       Occupied  (A') (A') (A') (A') (A') (A') (A') (A') (A') (A')
                 (A') (A') (A") (A') (A") (A') (A") (A')
       Virtual   (A") (A") (A') (A') (A') (A') (A') (A') (A') (A")
                 (A') (A') (A') (A') (A") (A') (A') (A") (A') (A")
                 (A") (A') (A') (A') (A') (A') (A') (A') (A') (A')
                 (A')
 The electronic state of the initial guess is 1-A'.
 Keep R1 ints in memory in symmetry-blocked form, NReq=1603297.
 Requested convergence on RMS density matrix=1.00D-08 within 128 cycles.
 Requested convergence on MAX density matrix=1.00D-06.
 Requested convergence on             energy=1.00D-06.
 No special actions if energy rises.
 SCF Done:  E(RHF) =  -256.588556245     A.U. after   15 cycles
            NFock= 15  Conv=0.17D-08     -V/T= 1.9978
 ExpMin= 1.61D-01 ExpMax= 4.17D+03 ExpMxC= 6.27D+02 IAcc=3 IRadAn=         5 AccDes= 0.00D+00
 HarFok:  IExCor=  205 AccDes= 0.00D+00 IRadAn=         5 IDoV=-2 UseB2=F ITyADJ=14
 ICtDFT= 12500011 ScaDFX=  1.000000  1.000000  1.000000  1.000000
 Range of M.O.s used for correlation:     6    49
 NBasis=    49 NAE=    18 NBE=    18 NFC=     5 NFV=     0
 NROrb=     44 NOA=    13 NOB=    13 NVA=    31 NVB=    31
 Semi-Direct transformation.
 ModeAB=           2 MOrb=            13 LenV=     435851028
 LASXX=       227383 LTotXX=      227383 LenRXX=      227383
 LTotAB=      247599 MaxLAS=      700700 LenRXY=      700700
 NonZer=      732732 LenScr=     1648128 LnRSAI=           0
 LnScr1=           0 LExtra=           0 Total=      2576211
 MaxDsk=          -1 SrtSym=           F ITran=            4
 JobTyp=0 Pass  1:  I=   1 to  13.
 (rs|ai) integrals will be sorted in core.
 Spin components of T(2) and E(2):
     alpha-alpha T2 =       0.2798526156D-01 E2=     -0.7100615089D-01
     alpha-beta  T2 =       0.1500906748D+00 E2=     -0.3860448901D+00
     beta-beta   T2 =       0.2798526156D-01 E2=     -0.7100615089D-01
 ANorm=    0.1098208176D+01
 E2 =    -0.5280571919D+00 EUMP2 =    -0.25711661343668D+03
 Keep R2 and R3 ints in memory in symmetry-blocked form, NReq=1654951.
 Iterations=  50 Convergence= 0.100D-07
 Iteration Nr.   1
 **********************
 DD1Dir will call FoFMem   1 times, MxPair=       182
 NAB=    91 NAA=     0 NBB=     0.
 E3=        0.70953221D-02        EUMP3=      -0.25710951811D+03
 DE(CI)=     -0.43401091     E(CI)=       -257.02256715    
 NORM(A)=   0.10718604D+01
 Iteration Nr.   2
 **********************
 DD1Dir will call FoFMem   1 times, MxPair=       182
 NAB=    91 NAA=     0 NBB=     0.
 DE(CI)=     -0.46045576     E(CI)=       -257.04901200    
 NORM(A)=   0.10759434D+01
 Iteration Nr.   3
 **********************
 DD1Dir will call FoFMem   1 times, MxPair=       182
 NAB=    91 NAA=     0 NBB=     0.
 DE(CI)=     -0.45947636     E(CI)=       -257.04803261    
 NORM(A)=   0.10761250D+01
 Iteration Nr.   4
 **********************
 DD1Dir will call FoFMem   1 times, MxPair=       182
 NAB=    91 NAA=     0 NBB=     0.
 DE(CI)=     -0.46022508     E(CI)=       -257.04878132    
 NORM(A)=   0.10763615D+01
 Iteration Nr.   5
 **********************
 DD1Dir will call FoFMem   1 times, MxPair=       182
 NAB=    91 NAA=     0 NBB=     0.
 DE(CI)=     -0.46020309     E(CI)=       -257.04875934    
 NORM(A)=   0.10763899D+01
 Iteration Nr.   6
 **********************
 DD1Dir will call FoFMem   1 times, MxPair=       182
 NAB=    91 NAA=     0 NBB=     0.
 DE(CI)=     -0.46023091     E(CI)=       -257.04878716    
 NORM(A)=   0.10763877D+01
 Iteration Nr.   7
 **********************
 DD1Dir will call FoFMem   1 times, MxPair=       182
 NAB=    91 NAA=     0 NBB=     0.
 DE(CI)=     -0.46022288     E(CI)=       -257.04877913    
 NORM(A)=   0.10763868D+01
 Iteration Nr.   8
 **********************
 DD1Dir will call FoFMem   1 times, MxPair=       182
 NAB=    91 NAA=     0 NBB=     0.
 DE(CI)=     -0.46022407     E(CI)=       -257.04878031    
 NORM(A)=   0.10763871D+01
 Iteration Nr.   9
 **********************
 DD1Dir will call FoFMem   1 times, MxPair=       182
 NAB=    91 NAA=     0 NBB=     0.
 DE(CI)=     -0.46022422     E(CI)=       -257.04878047    
 NORM(A)=   0.10763875D+01
 Iteration Nr.  10
 **********************
 DD1Dir will call FoFMem   1 times, MxPair=       182
 NAB=    91 NAA=     0 NBB=     0.
 DE(CI)=     -0.46022424     E(CI)=       -257.04878048    
 NORM(A)=   0.10763875D+01
 Iteration Nr.  11
 **********************
 DD1Dir will call FoFMem   1 times, MxPair=       182
 NAB=    91 NAA=     0 NBB=     0.
 DE(CI)=     -0.46022426     E(CI)=       -257.04878051    
 NORM(A)=   0.10763875D+01
 Iteration Nr.  12
 **********************
 DD1Dir will call FoFMem   1 times, MxPair=       182
 NAB=    91 NAA=     0 NBB=     0.
 DE(CI)=     -0.46022426     E(CI)=       -257.04878051    
 NORM(A)=   0.10763875D+01
 Iteration Nr.  13
 **********************
 DD1Dir will call FoFMem   1 times, MxPair=       182
 NAB=    91 NAA=     0 NBB=     0.
 DE(CI)=     -0.46022427     E(CI)=       -257.04878051    
 NORM(A)=   0.10763875D+01
 ***************************************************************
 Largest amplitude= 5.72D-02
 Discarding MO integrals.
          IDoAtm=1111111
          Differentiating once with respect to electric field.
                with respect to dipole field.
          Differentiating once with respect to nuclear coordinates.
 Keep R1 ints in memory in symmetry-blocked form, NReq=1587184.
          There are     1 degrees of freedom in the 1st order CPHF.  IDoFFX=0 NUNeed=     1.
 LinEq1:  Iter=  0 NonCon=     1 RMS=5.51D-03 Max=4.05D-02 NDo=     1
 AX will form     1 AO Fock derivatives at one time.
 LinEq1:  Iter=  1 NonCon=     1 RMS=1.21D-03 Max=7.25D-03 NDo=     1
 LinEq1:  Iter=  2 NonCon=     1 RMS=4.40D-04 Max=6.44D-03 NDo=     1
 LinEq1:  Iter=  3 NonCon=     1 RMS=1.35D-04 Max=6.37D-04 NDo=     1
 LinEq1:  Iter=  4 NonCon=     1 RMS=4.75D-05 Max=3.14D-04 NDo=     1
 LinEq1:  Iter=  5 NonCon=     1 RMS=1.59D-05 Max=1.97D-04 NDo=     1
 LinEq1:  Iter=  6 NonCon=     1 RMS=6.05D-06 Max=4.66D-05 NDo=     1
 LinEq1:  Iter=  7 NonCon=     1 RMS=2.15D-06 Max=2.83D-05 NDo=     1
 LinEq1:  Iter=  8 NonCon=     1 RMS=1.04D-06 Max=1.43D-05 NDo=     1
 LinEq1:  Iter=  9 NonCon=     1 RMS=1.99D-07 Max=1.64D-06 NDo=     1
 LinEq1:  Iter= 10 NonCon=     1 RMS=5.42D-08 Max=3.86D-07 NDo=     1
 LinEq1:  Iter= 11 NonCon=     1 RMS=2.00D-08 Max=1.09D-07 NDo=     1
 LinEq1:  Iter= 12 NonCon=     1 RMS=3.18D-09 Max=2.51D-08 NDo=     1
 LinEq1:  Iter= 13 NonCon=     1 RMS=3.87D-10 Max=3.72D-09 NDo=     1
 LinEq1:  Iter= 14 NonCon=     0 RMS=4.73D-11 Max=2.95D-10 NDo=     1
 Linear equations converged to 1.000D-10 1.000D-09 after    14 iterations.
 End of Minotr F.D. properties file   721 does not exist.
 End of Minotr F.D. properties file   722 does not exist.
 End of Minotr F.D. properties file   788 does not exist.

 **********************************************************************

            Population analysis using the SCF density.

 **********************************************************************

 Orbital symmetries:
       Occupied  (A') (A') (A') (A') (A') (A') (A') (A') (A') (A')
                 (A') (A") (A') (A') (A') (A") (A') (A")
       Virtual   (A") (A") (A') (A') (A') (A') (A') (A') (A') (A")
                 (A') (A') (A') (A") (A') (A") (A') (A') (A') (A")
                 (A") (A') (A') (A') (A') (A') (A') (A') (A') (A')
                 (A')
 The electronic state is 1-A'.
 Alpha  occ. eigenvalues --  -15.69781 -15.68462 -15.66056 -15.62499 -11.35688
 Alpha  occ. eigenvalues --   -1.57700  -1.29978  -1.24930  -0.93279  -0.91600
 Alpha  occ. eigenvalues --   -0.82843  -0.71012  -0.69666  -0.57771  -0.48222
 Alpha  occ. eigenvalues --   -0.47708  -0.46520  -0.44225
 Alpha virt. eigenvalues --    0.12975   0.18577   0.19300   0.24772   0.36666
 Alpha virt. eigenvalues --    0.38082   0.47316   0.49956   0.66588   0.73013
 Alpha virt. eigenvalues --    0.77419   0.85713   0.89161   0.91182   0.93172
 Alpha virt. eigenvalues --    0.96240   0.96795   0.97302   1.01327   1.04290
 Alpha virt. eigenvalues --    1.08631   1.09212   1.13577   1.16103   1.27903
 Alpha virt. eigenvalues --    1.32712   1.40248   1.47063   1.62131   1.78876
 Alpha virt. eigenvalues --    1.85896
          Condensed to atoms (all electrons):
               1          2          3          4          5          6
     1  C    5.014118   0.108503  -0.097967  -0.164905   0.380137   0.378363
     2  N    0.108503   7.510282   0.047240  -0.139717  -0.075401  -0.040552
     3  N   -0.097967   0.047240   6.972432   0.207847  -0.160166   0.001620
     4  N   -0.164905  -0.139717   0.207847   6.905366   0.265752   0.004525
     5  N    0.380137  -0.075401  -0.160166   0.265752   6.970510  -0.018517
     6  H    0.378363  -0.040552   0.001620   0.004525  -0.018517   0.387016
     7  H   -0.012105   0.308050  -0.019387   0.006193   0.003857   0.001891
               7
     1  C   -0.012105
     2  N    0.308050
     3  N   -0.019387
     4  N    0.006193
     5  N    0.003857
     6  H    0.001891
     7  H    0.269753
 Mulliken charges:
               1
     1  C    0.393857
     2  N   -0.718406
     3  N    0.048381
     4  N   -0.085061
     5  N   -0.366172
     6  H    0.285654
     7  H    0.441748
 Sum of Mulliken charges =   0.00000
 Mulliken charges with hydrogens summed into heavy atoms:
               1
     1  C    0.679511
     2  N   -0.276658
     3  N    0.048381
     4  N   -0.085061
     5  N   -0.366172
 Electronic spatial extent (au):  <R**2>=            247.0706
 Charge=              0.0000 electrons
 Dipole moment (field-independent basis, Debye):
    X=              2.9921    Y=              5.4129    Z=              0.0000  Tot=              6.1848
 Quadrupole moment (field-independent basis, Debye-Ang):
   XX=            -30.0880   YY=            -28.0652   ZZ=            -28.8558
   XY=              2.1537   XZ=              0.0000   YZ=              0.0000
 Traceless Quadrupole moment (field-independent basis, Debye-Ang):
   XX=             -1.0850   YY=              0.9378   ZZ=              0.1472
   XY=              2.1537   XZ=              0.0000   YZ=              0.0000
 Octapole moment (field-independent basis, Debye-Ang**2):
  XXX=             14.3034  YYY=             25.1335  ZZZ=              0.0000  XYY=             -0.5248
  XXY=              5.6047  XXZ=              0.0000  XZZ=             -0.5184  YZZ=              0.5844
  YYZ=              0.0000  XYZ=              0.0000
 Hexadecapole moment (field-independent basis, Debye-Ang**3):
 XXXX=           -139.4523 YYYY=           -118.4100 ZZZZ=            -25.8218 XXXY=              7.4628
 XXXZ=              0.0000 YYYX=             -0.0204 YYYZ=              0.0000 ZZZX=              0.0000
 ZZZY=              0.0000 XXYY=            -53.5811 XXZZ=            -29.9293 YYZZ=            -28.6726
 XXYZ=              0.0000 YYXZ=              0.0000 ZZXY=              0.0491
 N-N= 1.698308489506D+02 E-N=-9.406331984147D+02  KE= 2.571531859266D+02
 Symmetry A'   KE= 2.480786345061D+02
 Symmetry A"   KE= 9.074551420442D+00
 Calling FoFJK, ICntrl=  10002127 FMM=F ISym2X=1 I1Cent= 0 IOpClX= 0 NMat=1 NMatS=1 NMatT=0.
 ***** Axes restored to original set *****
 -------------------------------------------------------------------
 Center     Atomic                   Forces (Hartrees/Bohr)
 Number     Number              X              Y              Z
 -------------------------------------------------------------------
      1        6           0.058752992   -0.005284130    0.000000000
      2        7           0.027023528   -0.032202465    0.000000000
      3        7          -0.039293746   -0.063420160    0.000000000
      4        7          -0.060996481    0.050759790    0.000000000
      5        7           0.007719069    0.054084847    0.000000000
      6        1           0.003706867    0.001440523    0.000000000
      7        1           0.003087771   -0.005378405    0.000000000
 -------------------------------------------------------------------
 Cartesian Forces:  Max     0.063420160 RMS     0.030975705
 -----------------------------------------------------------------------------------------------
                       Internal Coordinate Forces (Hartree/Bohr or radian)
  Cent   Atom   N1       Length/X         N2         Alpha/Y        N3         Beta/Z          J
 -----------------------------------------------------------------------------------------------
         X 
         X        1   0.000000(     1)
      1  C        1   0.061792(     2)      2   0.000000(     9)
      2  N        1   0.045020(     3)      2   0.000000(    10)      3  -0.041671(    16)     0
      3  N        1   0.073566(     4)      2   0.000000(    11)      3  -0.039798(    17)     0
      4  N        1   0.071739(     5)      2   0.000000(    12)      3   0.071448(    18)     0
      5  N        1   0.054598(     6)      2   0.000000(    13)      3   0.003414(    19)     0
      6  H        3   0.003865(     7)      4   0.001892(    14)      5   0.000000(    20)     0
      7  H        4   0.006133(     8)      5   0.001726(    15)      6   0.000000(    21)     0
 -----------------------------------------------------------------------------------------------
 Internal  Forces:  Max     0.073566297 RMS     0.036436798

 GradGradGradGradGradGradGradGradGradGradGradGradGradGradGradGradGradGrad
 Berny optimization.
 Search for a local minimum.
 Step number   1 out of a maximum of   22
 All quantities printed in internal units (Hartrees-Bohrs-Radians)
 Second derivative matrix not updated -- first step.
 The second derivative matrix:
                          rn1       rn2       rn3       rn4       rch
           rn1          0.65186
           rn2          0.01318   0.69869
           rn3          0.03472   0.07334   0.58262
           rn4          0.03688   0.02662   0.13967   0.63921
           rch          0.00000   0.00000   0.00000   0.00000   0.37510
           rnh          0.00000   0.00000   0.00000   0.00000   0.00000
           an1          0.02012  -0.75016   0.04258  -0.08486   0.00000
           an2          0.72119  -0.31234  -0.71865   0.05436   0.00000
           an3         -0.02914   1.04797   0.05412  -0.58583   0.00000
           an4          0.05328  -0.03228   0.65851  -0.10009   0.00000
           ach          0.04546   0.00000   0.00000   0.05066   0.00000
           anh         -0.10206   0.05276   0.00000   0.00000   0.00000
                          rnh       an1       an2       an3       an4
           rnh          0.48741
           an1          0.00000   4.53257
           an2          0.00000  -2.68051   6.02300
           an3          0.00000  -0.03573  -3.19618   4.47465
           an4          0.00000  -0.12258  -0.06592  -1.16042   2.58479
           ach          0.00000  -0.10460   0.00000   0.00000   0.07318
           anh          0.00000   0.03519  -0.09059   0.00000   0.00000
                          ach       anh
           ach          0.32000
           anh          0.00000   0.32000
 ITU=  0
     Eigenvalues ---    0.00000   0.13346   0.26445   0.33044   0.37510
     Eigenvalues ---    0.40158   0.48741   0.75609   1.20990   2.99509
     Eigenvalues ---    5.09563   9.64077
 RFO step:  Lambda=-2.15370893D-02 EMin=-6.95624114D-16
 Linear search not attempted -- first point.
 Variable       Old X    -DE/DX   Delta X   Delta X   Delta X     New X
                                 (Linear)    (Quad)   (Total)
   rn1        2.34817   0.04502   0.00000   0.02482   0.02482   2.37299
   rn2        2.51900   0.07357   0.00000   0.11259   0.11259   2.63159
   rn3        2.10629   0.07174   0.00000   0.16165   0.16165   2.26794
   rn4        1.75064   0.05460   0.00000   0.04229   0.04229   1.79293
   rch        2.01785   0.00386   0.00000   0.00974   0.00974   2.02759
   rnh        1.87858   0.00613   0.00000   0.01205   0.01205   1.89063
   an1        1.25389  -0.04167   0.00000   0.02477   0.02477   1.27866
   an2        2.33355  -0.03980   0.00000   0.02856   0.02856   2.36212
   an3        3.39396   0.07145   0.00000   0.00534   0.00534   3.39931
   an4        4.81845   0.00341   0.00000  -0.03305  -0.03305   4.78540
   ach        2.18209   0.00189   0.00000   0.01063   0.01063   2.19273
   anh        2.10770   0.00173   0.00000   0.00010   0.00010   2.10781
         Item               Value     Threshold  Converged?
 Maximum Force            0.073566     0.000450     NO 
 RMS     Force            0.044779     0.000300     NO 
 Maximum Displacement     0.161649     0.001800     NO 
 RMS     Displacement     0.060631     0.001200     NO 
 Predicted change in Energy=-1.124358D-02
 GradGradGradGradGradGradGradGradGradGradGradGradGradGradGradGradGradGrad

 ---------------------------------------------------------------------------------------------------
                            Z-MATRIX (ANGSTROMS AND DEGREES)
   CD    Cent   Atom    N1       Length/X        N2       Alpha/Y        N3        Beta/Z          J
 ---------------------------------------------------------------------------------------------------
      1         X 
      2         X        1   1.000000(     1)
      3      1  C        1   1.000000(     2)      2   90.000(     9)
      4      2  N        1   1.255733(     3)      2   90.000(    10)      3   73.262(    16)      0
      5      3  N        1   1.392578(     4)      2   90.000(    11)      3  135.339(    17)      0
      6      4  N        1   1.200141(     5)      2   90.000(    12)      3  194.766(    18)      0
      7      5  N        1   0.948777(     6)      2   90.000(    13)      3  274.183(    19)      0
      8      6  H        3   1.072956(     7)      4  125.634(    14)      5  180.000(    20)      0
      9      7  H        4   1.000477(     8)      5  120.768(    15)      6  180.000(    21)      0
 ---------------------------------------------------------------------------------------------------
                         Z-Matrix orientation:                         
 ---------------------------------------------------------------------
 Center     Atomic      Atomic             Coordinates (Angstroms)
 Number     Number       Type             X           Y           Z
 ---------------------------------------------------------------------
      1         -1           0        0.000000    0.000000    0.000000
      2         -1           0        0.000000    0.000000    1.000000
      3          6           0        1.000000    0.000000    0.000000
      4          7           0        0.361649   -1.202528    0.000000
      5          7           0       -0.990515   -0.978854    0.000000
      6          7           0       -1.160507    0.305880    0.000000
      7          7           0        0.069206    0.946250    0.000000
      8          1           0        2.063350    0.143257    0.000000
      9          1           0        0.726304   -2.134183    0.000000
 ---------------------------------------------------------------------
                    Distance matrix (angstroms):
                    1          2          3          4          5
     1  X    0.000000
     2  X    1.000000   0.000000
     3  C    1.000000   1.414214   0.000000
     4  N    1.255733   1.605261   1.361457   0.000000
     5  N    1.392578   1.714431   2.218176   1.370539   0.000000
     6  N    1.200141   1.562158   2.182052   2.142954   1.295931
     7  N    0.948777   1.378470   1.327316   2.168587   2.197506
     8  H    2.068317   2.297376   1.072956   2.169545   3.253493
     9  H    2.254386   2.466223   2.151662   1.000477   2.069360
                    6          7          8          9
     6  N    0.000000
     7  N    1.386459   0.000000
     8  H    3.227955   2.149746   0.000000
     9  H    3.084471   3.149738   2.640914   0.000000
 Stoichiometry    CH2N4
 Framework group  CS[SG(CH2N4)]
 Deg. of freedom    11
 Full point group                 CS      NOp   2
 Largest Abelian subgroup         CS      NOp   2
 Largest concise Abelian subgroup C1      NOp   1
                         Standard orientation:                         
 ---------------------------------------------------------------------
 Center     Atomic      Atomic             Coordinates (Angstroms)
 Number     Number       Type             X           Y           Z
 ---------------------------------------------------------------------
      1          6           0        1.087634    0.248077    0.000000
      2          7           0        0.000000    1.066991    0.000000
      3          7           0       -1.130115    0.291609    0.000000
      4          7           0       -0.739900   -0.944178    0.000000
      5          7           0        0.645295   -1.003363    0.000000
      6          1           0        2.111555    0.568733    0.000000
      7          1           0       -0.064318    2.065398    0.000000
 ---------------------------------------------------------------------
 Rotational constants (GHZ):     10.3395410     10.0840914      5.1051093
 Standard basis: 6-31G (6D, 7F)
 There are    39 symmetry adapted cartesian basis functions of A'  symmetry.
 There are    10 symmetry adapted cartesian basis functions of A"  symmetry.
 There are    39 symmetry adapted basis functions of A'  symmetry.
 There are    10 symmetry adapted basis functions of A"  symmetry.
    49 basis functions,   118 primitive gaussians,    49 cartesian basis functions
    18 alpha electrons       18 beta electrons
       nuclear repulsion energy       164.9824112680 Hartrees.
 NAtoms=    7 NActive=    7 NUniq=    7 SFac= 1.00D+00 NAtFMM=   60 NAOKFM=F Big=F
 Integral buffers will be    131072 words long.
 Raffenetti 1 integral format.
 Two-electron integral symmetry is turned on.
 One-electron integrals computed using PRISM.
 NBasis=    49 RedAO= T EigKep=  7.08D-03  NBF=    39    10
 NBsUse=    49 1.00D-06 EigRej= -1.00D+00 NBFU=    39    10
 Initial guess from the checkpoint file:  "/tmp/rdj3/g09-16833/Gau-10372.chk"
 B after Tr=     0.000000    0.000000    0.000000
         Rot=    0.999994    0.000000    0.000000   -0.003463 Ang=  -0.40 deg.
 Initial guess orbital symmetries:
       Occupied  (A') (A') (A') (A') (A') (A') (A') (A') (A') (A')
                 (A') (A") (A') (A') (A') (A") (A') (A")
       Virtual   (A') (A') (A') (A') (A') (A') (A') (A') (A') (A')
                 (A') (A') (A') (A') (A') (A') (A') (A') (A') (A')
                 (A') (A') (A') (A') (A") (A") (A") (A") (A") (A")
                 (A")
 ExpMin= 1.61D-01 ExpMax= 4.17D+03 ExpMxC= 6.27D+02 IAcc=1 IRadAn=         1 AccDes= 0.00D+00
 Harris functional with IExCor=  205 and IRadAn=       1 diagonalized for initial guess.
 HarFok:  IExCor=  205 AccDes= 0.00D+00 IRadAn=         1 IDoV= 1 UseB2=F ITyADJ=14
 ICtDFT=  3500011 ScaDFX=  1.000000  1.000000  1.000000  1.000000
 FoFCou: FMM=F IPFlag=           0 FMFlag=      100000 FMFlg1=           0
         NFxFlg=           0 DoJE=T BraDBF=F KetDBF=T FulRan=T
         wScrn=  0.000000 ICntrl=     500 IOpCl=  0 I1Cent=   200000004 NGrid=           0
         NMat0=    1 NMatS0=      1 NMatT0=    0 NMatD0=    1 NMtDS0=    0 NMtDT0=    0
 Petite list used in FoFCou.
 Keep R1 ints in memory in symmetry-blocked form, NReq=1603079.
 Requested convergence on RMS density matrix=1.00D-08 within 128 cycles.
 Requested convergence on MAX density matrix=1.00D-06.
 Requested convergence on             energy=1.00D-06.
 No special actions if energy rises.
 SCF Done:  E(RHF) =  -256.588458683     A.U. after   14 cycles
            NFock= 14  Conv=0.52D-08     -V/T= 2.0004
 ExpMin= 1.61D-01 ExpMax= 4.17D+03 ExpMxC= 6.27D+02 IAcc=3 IRadAn=         5 AccDes= 0.00D+00
 HarFok:  IExCor=  205 AccDes= 0.00D+00 IRadAn=         5 IDoV=-2 UseB2=F ITyADJ=14
 ICtDFT= 12500011 ScaDFX=  1.000000  1.000000  1.000000  1.000000
 Range of M.O.s used for correlation:     6    49
 NBasis=    49 NAE=    18 NBE=    18 NFC=     5 NFV=     0
 NROrb=     44 NOA=    13 NOB=    13 NVA=    31 NVB=    31
 Semi-Direct transformation.
 ModeAB=           2 MOrb=            13 LenV=     435851232
 LASXX=       227383 LTotXX=      227383 LenRXX=      227383
 LTotAB=      247599 MaxLAS=      700700 LenRXY=      700700
 NonZer=      732160 LenScr=     1646592 LnRSAI=           0
 LnScr1=           0 LExtra=           0 Total=      2574675
 MaxDsk=          -1 SrtSym=           F ITran=            4
 JobTyp=0 Pass  1:  I=   1 to  13.
 (rs|ai) integrals will be sorted in core.
 Spin components of T(2) and E(2):
     alpha-alpha T2 =       0.3044861171D-01 E2=     -0.7401788639D-01
     alpha-beta  T2 =       0.1625884133D+00 E2=     -0.4010469567D+00
     beta-beta   T2 =       0.3044861171D-01 E2=     -0.7401788639D-01
 ANorm=    0.1106112850D+01
 E2 =    -0.5490827294D+00 EUMP2 =    -0.25713754141278D+03
 Keep R2 and R3 ints in memory in symmetry-blocked form, NReq=1654951.
 Iterations=  50 Convergence= 0.100D-07
 Iteration Nr.   1
 **********************
 DD1Dir will call FoFMem   1 times, MxPair=       182
 NAB=    91 NAA=     0 NBB=     0.
 E3=        0.12873114D-01        EUMP3=      -0.25712466830D+03
 DE(CI)=     -0.44076852     E(CI)=       -257.02922720    
 NORM(A)=   0.10754264D+01
 Iteration Nr.   2
 **********************
 DD1Dir will call FoFMem   1 times, MxPair=       182
 NAB=    91 NAA=     0 NBB=     0.
 DE(CI)=     -0.47185180     E(CI)=       -257.06031048    
 NORM(A)=   0.10796917D+01
 Iteration Nr.   3
 **********************
 DD1Dir will call FoFMem   1 times, MxPair=       182
 NAB=    91 NAA=     0 NBB=     0.
 DE(CI)=     -0.47032697     E(CI)=       -257.05878565    
 NORM(A)=   0.10797368D+01
 Iteration Nr.   4
 **********************
 DD1Dir will call FoFMem   1 times, MxPair=       182
 NAB=    91 NAA=     0 NBB=     0.
 DE(CI)=     -0.47116065     E(CI)=       -257.05961933    
 NORM(A)=   0.10800183D+01
 Iteration Nr.   5
 **********************
 DD1Dir will call FoFMem   1 times, MxPair=       182
 NAB=    91 NAA=     0 NBB=     0.
 DE(CI)=     -0.47115001     E(CI)=       -257.05960869    
 NORM(A)=   0.10800619D+01
 Iteration Nr.   6
 **********************
 DD1Dir will call FoFMem   1 times, MxPair=       182
 NAB=    91 NAA=     0 NBB=     0.
 DE(CI)=     -0.47118112     E(CI)=       -257.05963980    
 NORM(A)=   0.10800606D+01
 Iteration Nr.   7
 **********************
 DD1Dir will call FoFMem   1 times, MxPair=       182
 NAB=    91 NAA=     0 NBB=     0.
 DE(CI)=     -0.47117007     E(CI)=       -257.05962875    
 NORM(A)=   0.10800587D+01
 Iteration Nr.   8
 **********************
 DD1Dir will call FoFMem   1 times, MxPair=       182
 NAB=    91 NAA=     0 NBB=     0.
 DE(CI)=     -0.47117223     E(CI)=       -257.05963091    
 NORM(A)=   0.10800591D+01
 Iteration Nr.   9
 **********************
 DD1Dir will call FoFMem   1 times, MxPair=       182
 NAB=    91 NAA=     0 NBB=     0.
 DE(CI)=     -0.47117232     E(CI)=       -257.05963100    
 NORM(A)=   0.10800594D+01
 Iteration Nr.  10
 **********************
 DD1Dir will call FoFMem   1 times, MxPair=       182
 NAB=    91 NAA=     0 NBB=     0.
 DE(CI)=     -0.47117232     E(CI)=       -257.05963100    
 NORM(A)=   0.10800594D+01
 Iteration Nr.  11
 **********************
 DD1Dir will call FoFMem   1 times, MxPair=       182
 NAB=    91 NAA=     0 NBB=     0.
 DE(CI)=     -0.47117234     E(CI)=       -257.05963102    
 NORM(A)=   0.10800594D+01
 Iteration Nr.  12
 **********************
 DD1Dir will call FoFMem   1 times, MxPair=       182
 NAB=    91 NAA=     0 NBB=     0.
 DE(CI)=     -0.47117233     E(CI)=       -257.05963102    
 NORM(A)=   0.10800594D+01
 Iteration Nr.  13
 **********************
 DD1Dir will call FoFMem   1 times, MxPair=       182
 NAB=    91 NAA=     0 NBB=     0.
 DE(CI)=     -0.47117234     E(CI)=       -257.05963102    
 NORM(A)=   0.10800594D+01
 ***************************************************************
 Largest amplitude= 5.69D-02
 Discarding MO integrals.
          IDoAtm=1111111
          Differentiating once with respect to electric field.
                with respect to dipole field.
          Differentiating once with respect to nuclear coordinates.
 Keep R1 ints in memory in symmetry-blocked form, NReq=1586896.
          There are     1 degrees of freedom in the 1st order CPHF.  IDoFFX=0 NUNeed=     1.
 LinEq1:  Iter=  0 NonCon=     1 RMS=5.87D-03 Max=4.41D-02 NDo=     1
 AX will form     1 AO Fock derivatives at one time.
 LinEq1:  Iter=  1 NonCon=     1 RMS=1.38D-03 Max=9.01D-03 NDo=     1
 LinEq1:  Iter=  2 NonCon=     1 RMS=5.33D-04 Max=8.14D-03 NDo=     1
 LinEq1:  Iter=  3 NonCon=     1 RMS=1.91D-04 Max=1.10D-03 NDo=     1
 LinEq1:  Iter=  4 NonCon=     1 RMS=6.55D-05 Max=4.47D-04 NDo=     1
 LinEq1:  Iter=  5 NonCon=     1 RMS=2.86D-05 Max=3.71D-04 NDo=     1
 LinEq1:  Iter=  6 NonCon=     1 RMS=9.63D-06 Max=9.74D-05 NDo=     1
 LinEq1:  Iter=  7 NonCon=     1 RMS=4.33D-06 Max=5.93D-05 NDo=     1
 LinEq1:  Iter=  8 NonCon=     1 RMS=1.87D-06 Max=2.61D-05 NDo=     1
 LinEq1:  Iter=  9 NonCon=     1 RMS=3.25D-07 Max=2.12D-06 NDo=     1
 LinEq1:  Iter= 10 NonCon=     1 RMS=7.27D-08 Max=4.84D-07 NDo=     1
 LinEq1:  Iter= 11 NonCon=     1 RMS=3.18D-08 Max=1.58D-07 NDo=     1
 LinEq1:  Iter= 12 NonCon=     1 RMS=5.63D-09 Max=4.45D-08 NDo=     1
 LinEq1:  Iter= 13 NonCon=     1 RMS=7.37D-10 Max=5.89D-09 NDo=     1
 LinEq1:  Iter= 14 NonCon=     0 RMS=9.13D-11 Max=5.25D-10 NDo=     1
 Linear equations converged to 1.000D-10 1.000D-09 after    14 iterations.
 End of Minotr F.D. properties file   721 does not exist.
 End of Minotr F.D. properties file   722 does not exist.
 End of Minotr F.D. properties file   788 does not exist.
 Calling FoFJK, ICntrl=  10002127 FMM=F ISym2X=1 I1Cent= 0 IOpClX= 0 NMat=1 NMatS=1 NMatT=0.
 ***** Axes restored to original set *****
 -------------------------------------------------------------------
 Center     Atomic                   Forces (Hartrees/Bohr)
 Number     Number              X              Y              Z
 -------------------------------------------------------------------
      1        6          -0.006388164   -0.002457990    0.000000000
      2        7           0.004623892    0.003194149    0.000000000
      3        7          -0.007553429   -0.014391487    0.000000000
      4        7          -0.000173340    0.001251752    0.000000000
      5        7           0.010659426    0.012593975    0.000000000
      6        1          -0.000483343    0.000767952    0.000000000
      7        1          -0.000685040   -0.000958351    0.000000000
 -------------------------------------------------------------------
 Cartesian Forces:  Max     0.014391487 RMS     0.005427628
 -----------------------------------------------------------------------------------------------
                       Internal Coordinate Forces (Hartree/Bohr or radian)
  Cent   Atom   N1       Length/X         N2         Alpha/Y        N3         Beta/Z          J
 -----------------------------------------------------------------------------------------------
         X 
         X        1   0.000000(     1)
      1  C        1  -0.007446(     2)      2   0.000000(     9)
      2  N        1   0.000098(     3)      2   0.000000(    10)      3  -0.010823(    16)     0
      3  N        1   0.014905(     4)      2   0.000000(    11)      3  -0.011853(    17)     0
      4  N        1   0.000487(     5)      2   0.000000(    12)      3   0.002645(    18)     0
      5  N        1   0.013338(     6)      2   0.000000(    13)      3   0.017414(    19)     0
      6  H        3  -0.000376(     7)      4   0.001674(    14)      5   0.000000(    20)     0
      7  H        4   0.000643(     8)      5  -0.001866(    15)      6   0.000000(    21)     0
 -----------------------------------------------------------------------------------------------
 Internal  Forces:  Max     0.017413643 RMS     0.007004936

 GradGradGradGradGradGradGradGradGradGradGradGradGradGradGradGradGradGrad
 Berny optimization.
 Search for a local minimum.
 Step number   2 out of a maximum of   22
 All quantities printed in internal units (Hartrees-Bohrs-Radians)
 Update second derivatives using D2CorN and points    1    2
 DE= -1.09D-02 DEPred=-1.12D-02 R= 9.65D-01
 TightC=F SS=  1.41D+00  RLast= 2.10D-01 DXNew= 5.0454D-01 6.3010D-01
 Trust test= 9.65D-01 RLast= 2.10D-01 DXMaxT set to 5.05D-01
 The second derivative matrix:
                          rn1       rn2       rn3       rn4       rch
           rn1          0.65211
           rn2          0.01023   0.66684
           rn3          0.03636   0.05430   0.59359
           rn4          0.03360   0.00478   0.11834   0.62730
           rch          0.00021  -0.00063   0.00141  -0.00109   0.37522
           rnh         -0.00005  -0.00219  -0.00029  -0.00188   0.00004
           an1          0.02344  -0.73918   0.06423  -0.08290   0.00142
           an2          0.72484  -0.30047  -0.69484   0.05631   0.00157
           an3         -0.02982   1.04398   0.04967  -0.58779  -0.00024
           an4          0.04802  -0.05073   0.62418  -0.10412  -0.00222
           ach          0.04511  -0.00335  -0.00229   0.04846  -0.00009
           anh         -0.10153   0.05513   0.00343   0.00088   0.00021
                          rnh       an1       an2       an3       an4
           rnh          0.48730
           an1          0.00144   4.53895
           an2          0.00158  -2.67333   6.03107
           an3         -0.00037  -0.03576  -3.19625   4.47435
           an4         -0.00233  -0.13192  -0.07646  -1.16057   2.59837
           ach         -0.00024  -0.10363   0.00103  -0.00039   0.07153
           anh          0.00025   0.03573  -0.08997   0.00011  -0.00072
                          ach       anh
           ach          0.31965
           anh          0.00022   0.32000
 ITU=  1  0
     Eigenvalues ---    0.00000   0.15123   0.27547   0.33768   0.37528
     Eigenvalues ---    0.39316   0.48732   0.73401   1.20999   2.98707
     Eigenvalues ---    5.09338   9.64017
 RFO step:  Lambda=-1.10891759D-03 EMin=-1.28447557D-06
 Quartic linear search produced a step of  0.06840.
 Variable       Old X    -DE/DX   Delta X   Delta X   Delta X     New X
                                 (Linear)    (Quad)   (Total)
   rn1        2.37299   0.00010   0.00170   0.10294   0.10464   2.47763
   rn2        2.63159   0.01491   0.00770   0.10021   0.10791   2.73950
   rn3        2.26794   0.00049   0.01106  -0.06421  -0.05315   2.21479
   rn4        1.79293   0.01334   0.00289  -0.08213  -0.07924   1.71369
   rch        2.02759  -0.00038   0.00067  -0.00125  -0.00058   2.02701
   rnh        1.89063   0.00064   0.00082   0.00096   0.00179   1.89241
   an1        1.27866  -0.01082   0.00169  -0.04351  -0.04181   1.23685
   an2        2.36212  -0.01185   0.00195  -0.09338  -0.09143   2.27069
   an3        3.39931   0.00264   0.00037  -0.10919  -0.10883   3.29048
   an4        4.78540   0.01741  -0.00226  -0.03446  -0.03672   4.74868
   ach        2.19273   0.00167   0.00073  -0.00234  -0.00161   2.19111
   anh        2.10781  -0.00187   0.00001  -0.01168  -0.01168   2.09613
         Item               Value     Threshold  Converged?
 Maximum Force            0.017414     0.000450     NO 
 RMS     Force            0.009014     0.000300     NO 
 Maximum Displacement     0.108829     0.001800     NO 
 RMS     Displacement     0.067786     0.001200     NO 
 Predicted change in Energy=-5.937832D-04
 GradGradGradGradGradGradGradGradGradGradGradGradGradGradGradGradGradGrad

 ---------------------------------------------------------------------------------------------------
                            Z-MATRIX (ANGSTROMS AND DEGREES)
   CD    Cent   Atom    N1       Length/X        N2       Alpha/Y        N3        Beta/Z          J
 ---------------------------------------------------------------------------------------------------
      1         X 
      2         X        1   1.000000(     1)
      3      1  C        1   1.000000(     2)      2   90.000(     9)
      4      2  N        1   1.311104(     3)      2   90.000(    10)      3   70.866(    16)      0
      5      3  N        1   1.449683(     4)      2   90.000(    11)      3  130.101(    17)      0
      6      4  N        1   1.172015(     5)      2   90.000(    12)      3  188.530(    18)      0
      7      5  N        1   0.906846(     6)      2   90.000(    13)      3  272.079(    19)      0
      8      6  H        3   1.072648(     7)      4  125.542(    14)      5  180.000(    20)      0
      9      7  H        4   1.001422(     8)      5  120.099(    15)      6  180.000(    21)      0
 ---------------------------------------------------------------------------------------------------
                         Z-Matrix orientation:                         
 ---------------------------------------------------------------------
 Center     Atomic      Atomic             Coordinates (Angstroms)
 Number     Number       Type             X           Y           Z
 ---------------------------------------------------------------------
      1         -1           0        0.000000    0.000000    0.000000
      2         -1           0        0.000000    0.000000    1.000000
      3          6           0        1.000000    0.000000    0.000000
      4          7           0        0.429751   -1.238671    0.000000
      5          7           0       -0.933790   -1.108882    0.000000
      6          7           0       -1.159049    0.173851    0.000000
      7          7           0        0.032900    0.906249    0.000000
      8          1           0        2.053573    0.201391    0.000000
      9          1           0        0.847609   -2.148749    0.000000
 ---------------------------------------------------------------------
                    Distance matrix (angstroms):
                    1          2          3          4          5
     1  X    0.000000
     2  X    1.000000   0.000000
     3  C    1.000000   1.414214   0.000000
     4  N    1.311104   1.648937   1.363632   0.000000
     5  N    1.449683   1.761131   2.229162   1.369704   0.000000
     6  N    1.172015   1.540655   2.166037   2.125912   1.302361
     7  N    0.906846   1.349952   1.325356   2.181324   2.235004
     8  H    2.063424   2.292972   1.072648   2.170386   3.262077
     9  H    2.309884   2.517054   2.154146   1.001422   2.062694
                    6          7          8          9
     6  N    0.000000
     7  N    1.398982   0.000000
     8  H    3.212740   2.140080   0.000000
     9  H    3.069388   3.161766   2.641496   0.000000
 Stoichiometry    CH2N4
 Framework group  CS[SG(CH2N4)]
 Deg. of freedom    11
 Full point group                 CS      NOp   2
 Largest Abelian subgroup         CS      NOp   2
 Largest concise Abelian subgroup C1      NOp   1
                         Standard orientation:                         
 ---------------------------------------------------------------------
 Center     Atomic      Atomic             Coordinates (Angstroms)
 Number     Number       Type             X           Y           Z
 ---------------------------------------------------------------------
      1          6           0        1.085477    0.237442    0.000000
      2          7           0        0.000000    1.062809    0.000000
      3          7           0       -1.142585    0.307437    0.000000
      4          7           0       -0.738587   -0.930678    0.000000
      5          7           0        0.657730   -1.016991    0.000000
      6          1           0        2.110099    0.554813    0.000000
      7          1           0       -0.058860    2.062500    0.000000
 ---------------------------------------------------------------------
 Rotational constants (GHZ):     10.3687181      9.9605837      5.0802770
 Standard basis: 6-31G (6D, 7F)
 There are    39 symmetry adapted cartesian basis functions of A'  symmetry.
 There are    10 symmetry adapted cartesian basis functions of A"  symmetry.
 There are    39 symmetry adapted basis functions of A'  symmetry.
 There are    10 symmetry adapted basis functions of A"  symmetry.
    49 basis functions,   118 primitive gaussians,    49 cartesian basis functions
    18 alpha electrons       18 beta electrons
       nuclear repulsion energy       164.5939885656 Hartrees.
 NAtoms=    7 NActive=    7 NUniq=    7 SFac= 1.00D+00 NAtFMM=   60 NAOKFM=F Big=F
 Integral buffers will be    131072 words long.
 Raffenetti 1 integral format.
 Two-electron integral symmetry is turned on.
 One-electron integrals computed using PRISM.
 NBasis=    49 RedAO= T EigKep=  7.12D-03  NBF=    39    10
 NBsUse=    49 1.00D-06 EigRej= -1.00D+00 NBFU=    39    10
 Initial guess from the checkpoint file:  "/tmp/rdj3/g09-16833/Gau-10372.chk"
 B after Tr=     0.000000    0.000000    0.000000
         Rot=    0.999998    0.000000    0.000000    0.002225 Ang=   0.25 deg.
 Initial guess orbital symmetries:
       Occupied  (A') (A') (A') (A') (A') (A') (A') (A') (A') (A')
                 (A') (A') (A") (A') (A') (A') (A") (A")
       Virtual   (A') (A') (A') (A') (A') (A') (A') (A') (A') (A')
                 (A') (A') (A') (A') (A') (A') (A') (A') (A') (A')
                 (A') (A') (A') (A') (A") (A") (A") (A") (A") (A")
                 (A")
 ExpMin= 1.61D-01 ExpMax= 4.17D+03 ExpMxC= 6.27D+02 IAcc=1 IRadAn=         1 AccDes= 0.00D+00
 Harris functional with IExCor=  205 and IRadAn=       1 diagonalized for initial guess.
 HarFok:  IExCor=  205 AccDes= 0.00D+00 IRadAn=         1 IDoV= 1 UseB2=F ITyADJ=14
 ICtDFT=  3500011 ScaDFX=  1.000000  1.000000  1.000000  1.000000
 FoFCou: FMM=F IPFlag=           0 FMFlag=      100000 FMFlg1=           0
         NFxFlg=           0 DoJE=T BraDBF=F KetDBF=T FulRan=T
         wScrn=  0.000000 ICntrl=     500 IOpCl=  0 I1Cent=   200000004 NGrid=           0
         NMat0=    1 NMatS0=      1 NMatT0=    0 NMatD0=    1 NMtDS0=    0 NMtDT0=    0
 Petite list used in FoFCou.
 Keep R1 ints in memory in symmetry-blocked form, NReq=1603064.
 Requested convergence on RMS density matrix=1.00D-08 within 128 cycles.
 Requested convergence on MAX density matrix=1.00D-06.
 Requested convergence on             energy=1.00D-06.
 No special actions if energy rises.
 SCF Done:  E(RHF) =  -256.587443743     A.U. after   13 cycles
            NFock= 13  Conv=0.83D-08     -V/T= 2.0006
 ExpMin= 1.61D-01 ExpMax= 4.17D+03 ExpMxC= 6.27D+02 IAcc=3 IRadAn=         5 AccDes= 0.00D+00
 HarFok:  IExCor=  205 AccDes= 0.00D+00 IRadAn=         5 IDoV=-2 UseB2=F ITyADJ=14
 ICtDFT= 12500011 ScaDFX=  1.000000  1.000000  1.000000  1.000000
 Range of M.O.s used for correlation:     6    49
 NBasis=    49 NAE=    18 NBE=    18 NFC=     5 NFV=     0
 NROrb=     44 NOA=    13 NOB=    13 NVA=    31 NVB=    31
 Semi-Direct transformation.
 ModeAB=           2 MOrb=            13 LenV=     435851262
 LASXX=       227383 LTotXX=      227383 LenRXX=      227383
 LTotAB=      247599 MaxLAS=      700700 LenRXY=      700700
 NonZer=      732160 LenScr=     1646592 LnRSAI=           0
 LnScr1=           0 LExtra=           0 Total=      2574675
 MaxDsk=          -1 SrtSym=           F ITran=            4
 JobTyp=0 Pass  1:  I=   1 to  13.
 (rs|ai) integrals will be sorted in core.
 Spin components of T(2) and E(2):
     alpha-alpha T2 =       0.3070944623D-01 E2=     -0.7433924681D-01
     alpha-beta  T2 =       0.1639495390D+00 E2=     -0.4026764879D+00
     beta-beta   T2 =       0.3070944623D-01 E2=     -0.7433924681D-01
 ANorm=    0.1106963609D+01
 E2 =    -0.5513549815D+00 EUMP2 =    -0.25713879872416D+03
 Keep R2 and R3 ints in memory in symmetry-blocked form, NReq=1654951.
 Iterations=  50 Convergence= 0.100D-07
 Iteration Nr.   1
 **********************
 DD1Dir will call FoFMem   1 times, MxPair=       182
 NAB=    91 NAA=     0 NBB=     0.
 E3=        0.13595380D-01        EUMP3=      -0.25712520334D+03
 DE(CI)=     -0.44141034     E(CI)=       -257.02885409    
 NORM(A)=   0.10757926D+01
 Iteration Nr.   2
 **********************
 DD1Dir will call FoFMem   1 times, MxPair=       182
 NAB=    91 NAA=     0 NBB=     0.
 DE(CI)=     -0.47304514     E(CI)=       -257.06048889    
 NORM(A)=   0.10800763D+01
 Iteration Nr.   3
 **********************
 DD1Dir will call FoFMem   1 times, MxPair=       182
 NAB=    91 NAA=     0 NBB=     0.
 DE(CI)=     -0.47144845     E(CI)=       -257.05889219    
 NORM(A)=   0.10801045D+01
 Iteration Nr.   4
 **********************
 DD1Dir will call FoFMem   1 times, MxPair=       182
 NAB=    91 NAA=     0 NBB=     0.
 DE(CI)=     -0.47229437     E(CI)=       -257.05973811    
 NORM(A)=   0.10803913D+01
 Iteration Nr.   5
 **********************
 DD1Dir will call FoFMem   1 times, MxPair=       182
 NAB=    91 NAA=     0 NBB=     0.
 DE(CI)=     -0.47228489     E(CI)=       -257.05972863    
 NORM(A)=   0.10804377D+01
 Iteration Nr.   6
 **********************
 DD1Dir will call FoFMem   1 times, MxPair=       182
 NAB=    91 NAA=     0 NBB=     0.
 DE(CI)=     -0.47231673     E(CI)=       -257.05976047    
 NORM(A)=   0.10804365D+01
 Iteration Nr.   7
 **********************
 DD1Dir will call FoFMem   1 times, MxPair=       182
 NAB=    91 NAA=     0 NBB=     0.
 DE(CI)=     -0.47230517     E(CI)=       -257.05974891    
 NORM(A)=   0.10804344D+01
 Iteration Nr.   8
 **********************
 DD1Dir will call FoFMem   1 times, MxPair=       182
 NAB=    91 NAA=     0 NBB=     0.
 DE(CI)=     -0.47230751     E(CI)=       -257.05975125    
 NORM(A)=   0.10804348D+01
 Iteration Nr.   9
 **********************
 DD1Dir will call FoFMem   1 times, MxPair=       182
 NAB=    91 NAA=     0 NBB=     0.
 DE(CI)=     -0.47230758     E(CI)=       -257.05975132    
 NORM(A)=   0.10804351D+01
 Iteration Nr.  10
 **********************
 DD1Dir will call FoFMem   1 times, MxPair=       182
 NAB=    91 NAA=     0 NBB=     0.
 DE(CI)=     -0.47230757     E(CI)=       -257.05975132    
 NORM(A)=   0.10804352D+01
 Iteration Nr.  11
 **********************
 DD1Dir will call FoFMem   1 times, MxPair=       182
 NAB=    91 NAA=     0 NBB=     0.
 DE(CI)=     -0.47230760     E(CI)=       -257.05975134    
 NORM(A)=   0.10804352D+01
 Iteration Nr.  12
 **********************
 DD1Dir will call FoFMem   1 times, MxPair=       182
 NAB=    91 NAA=     0 NBB=     0.
 DE(CI)=     -0.47230759     E(CI)=       -257.05975133    
 NORM(A)=   0.10804352D+01
 Iteration Nr.  13
 **********************
 DD1Dir will call FoFMem   1 times, MxPair=       182
 NAB=    91 NAA=     0 NBB=     0.
 DE(CI)=     -0.47230759     E(CI)=       -257.05975134    
 NORM(A)=   0.10804352D+01
 ***************************************************************
 Largest amplitude= 5.84D-02
 Discarding MO integrals.
          IDoAtm=1111111
          Differentiating once with respect to electric field.
                with respect to dipole field.
          Differentiating once with respect to nuclear coordinates.
 Keep R1 ints in memory in symmetry-blocked form, NReq=1586795.
          There are     1 degrees of freedom in the 1st order CPHF.  IDoFFX=0 NUNeed=     1.
 LinEq1:  Iter=  0 NonCon=     1 RMS=5.92D-03 Max=4.41D-02 NDo=     1
 AX will form     1 AO Fock derivatives at one time.
 LinEq1:  Iter=  1 NonCon=     1 RMS=1.40D-03 Max=8.98D-03 NDo=     1
 LinEq1:  Iter=  2 NonCon=     1 RMS=5.56D-04 Max=8.58D-03 NDo=     1
 LinEq1:  Iter=  3 NonCon=     1 RMS=2.04D-04 Max=1.44D-03 NDo=     1
 LinEq1:  Iter=  4 NonCon=     1 RMS=7.23D-05 Max=4.88D-04 NDo=     1
 LinEq1:  Iter=  5 NonCon=     1 RMS=3.40D-05 Max=4.40D-04 NDo=     1
 LinEq1:  Iter=  6 NonCon=     1 RMS=1.15D-05 Max=1.35D-04 NDo=     1
 LinEq1:  Iter=  7 NonCon=     1 RMS=5.27D-06 Max=7.58D-05 NDo=     1
 LinEq1:  Iter=  8 NonCon=     1 RMS=2.11D-06 Max=2.62D-05 NDo=     1
 LinEq1:  Iter=  9 NonCon=     1 RMS=3.49D-07 Max=2.31D-06 NDo=     1
 LinEq1:  Iter= 10 NonCon=     1 RMS=5.02D-08 Max=3.06D-07 NDo=     1
 LinEq1:  Iter= 11 NonCon=     1 RMS=2.62D-08 Max=1.41D-07 NDo=     1
 LinEq1:  Iter= 12 NonCon=     1 RMS=5.93D-09 Max=4.46D-08 NDo=     1
 LinEq1:  Iter= 13 NonCon=     1 RMS=8.01D-10 Max=7.96D-09 NDo=     1
 LinEq1:  Iter= 14 NonCon=     1 RMS=1.01D-10 Max=6.09D-10 NDo=     1
 LinEq1:  Iter= 15 NonCon=     0 RMS=1.36D-11 Max=1.04D-10 NDo=     1
 Linear equations converged to 1.000D-10 1.000D-09 after    15 iterations.
 End of Minotr F.D. properties file   721 does not exist.
 End of Minotr F.D. properties file   722 does not exist.
 End of Minotr F.D. properties file   788 does not exist.
 Calling FoFJK, ICntrl=  10002127 FMM=F ISym2X=1 I1Cent= 0 IOpClX= 0 NMat=1 NMatS=1 NMatT=0.
 ***** Axes restored to original set *****
 -------------------------------------------------------------------
 Center     Atomic                   Forces (Hartrees/Bohr)
 Number     Number              X              Y              Z
 -------------------------------------------------------------------
      1        6           0.000115764   -0.004436898    0.000000000
      2        7           0.010120882   -0.002146492    0.000000000
      3        7           0.001949486    0.007199504    0.000000000
      4        7          -0.013445623    0.005055054    0.000000000
      5        7          -0.000001682   -0.005487939    0.000000000
      6        1           0.000303298   -0.000627971    0.000000000
      7        1           0.000957876    0.000444743    0.000000000
 -------------------------------------------------------------------
 Cartesian Forces:  Max     0.013445623 RMS     0.004474425
 -----------------------------------------------------------------------------------------------
                       Internal Coordinate Forces (Hartree/Bohr or radian)
  Cent   Atom   N1       Length/X         N2         Alpha/Y        N3         Beta/Z          J
 -----------------------------------------------------------------------------------------------
         X 
         X        1   0.000000(     1)
      1  C        1   0.000900(     2)      2   0.000000(     9)
      2  N        1   0.004170(     3)      2   0.000000(    10)      3  -0.024399(    16)     0
      3  N        1  -0.006128(     4)      2   0.000000(    11)      3   0.007416(    17)     0
      4  N        1   0.014047(     5)      2   0.000000(    12)      3   0.006655(    18)     0
      5  N        1  -0.005484(     6)      2   0.000000(    13)      3   0.000338(    19)     0
      6  H        3   0.000180(     7)      4  -0.001366(    14)      5   0.000000(    20)     0
      7  H        4  -0.000004(     8)      5   0.001999(    15)      6   0.000000(    21)     0
 -----------------------------------------------------------------------------------------------
 Internal  Forces:  Max     0.024399198 RMS     0.006844343

 GradGradGradGradGradGradGradGradGradGradGradGradGradGradGradGradGradGrad
 Berny optimization.
 Search for a local minimum.
 Step number   3 out of a maximum of   22
 All quantities printed in internal units (Hartrees-Bohrs-Radians)
 Update second derivatives using D2CorN and points    1    2    3
 DE= -1.20D-04 DEPred=-5.94D-04 R= 2.03D-01
 Trust test= 2.03D-01 RLast= 2.35D-01 DXMaxT set to 5.05D-01
 The second derivative matrix:
                          rn1       rn2       rn3       rn4       rch
           rn1          0.64070
           rn2          0.00697   0.67519
           rn3          0.01658   0.02598   0.59048
           rn4          0.04079   0.00489   0.12570   0.62031
           rch         -0.00012  -0.00081   0.00105  -0.00102   0.37524
           rnh         -0.00055  -0.00244  -0.00149  -0.00183   0.00003
           an1          0.06031  -0.69128   0.07852  -0.10209   0.00283
           an2          0.72174  -0.31215  -0.67848   0.05750   0.00174
           an3         -0.03403   1.02596   0.06533  -0.58754  -0.00040
           an4          0.04592  -0.06129   0.62604  -0.10501  -0.00265
           ach          0.04639  -0.00175  -0.00292   0.04744  -0.00006
           anh         -0.10317   0.05189   0.00563   0.00178   0.00019
                          rnh       an1       an2       an3       an4
           rnh          0.48727
           an1          0.00386   4.52141
           an2          0.00150  -2.69376   6.04301
           an3         -0.00086  -0.06528  -3.18275   4.49160
           an4         -0.00291  -0.14797  -0.07240  -1.15304   2.60404
           ach         -0.00020  -0.10295   0.00001  -0.00207   0.07048
           anh          0.00017   0.03294  -0.08751   0.00321   0.00055
                          ach       anh
           ach          0.31967
           anh          0.00005   0.32047
 ITU=  0  1  0
     Eigenvalues ---   -0.00425   0.15467   0.28553   0.33855   0.37529
     Eigenvalues ---    0.40425   0.48725   0.72492   1.21007   2.98229
     Eigenvalues ---    5.08997   9.64086
 RFO step:  Lambda=-4.39100686D-03 EMin=-4.24624208D-03
 I=     1 Eig=   -4.25D-03 Dot1= -4.66D-04
 I=     1 Stepn= -6.00D-01 RXN=   6.00D-01 EDone=F
 Mixed    1 eigenvectors in step.  Raw Step.Grad=  4.66D-04.
 RFO eigenvector is Hessian eigenvector with negative curvature.
 Taking step of  6.00D-01 in eigenvector direction(s).  Step.Grad=  2.53D-03.
 Quartic linear search produced a step of -0.44004.
 Maximum step size (   0.505) exceeded in Quadratic search.
    -- Step size scaled by   0.841
 Variable       Old X    -DE/DX   Delta X   Delta X   Delta X     New X
                                 (Linear)    (Quad)   (Total)
   rn1        2.47763   0.00417  -0.04604   0.23832   0.19227   2.66990
   rn2        2.73950  -0.00613  -0.04749   0.13552   0.08804   2.82754
   rn3        2.21479   0.01405   0.02339  -0.00977   0.01361   2.22840
   rn4        1.71369  -0.00548   0.03487  -0.25105  -0.21618   1.49751
   rch        2.02701   0.00018   0.00026   0.00030   0.00056   2.02757
   rnh        1.89241   0.00000  -0.00079   0.00028  -0.00050   1.89191
   an1        1.23685  -0.02440   0.01840  -0.10915  -0.09075   1.14609
   an2        2.27069   0.00742   0.04023  -0.19088  -0.15065   2.12003
   an3        3.29048   0.00665   0.04789  -0.22972  -0.18183   3.10864
   an4        4.74868   0.00034   0.01616  -0.12165  -0.10549   4.64319
   ach        2.19111  -0.00137   0.00071  -0.00640  -0.00569   2.18542
   anh        2.09613   0.00200   0.00514   0.01771   0.02285   2.11898
         Item               Value     Threshold  Converged?
 Maximum Force            0.024399     0.000450     NO 
 RMS     Force            0.009050     0.000300     NO 
 Maximum Displacement     0.216180     0.001800     NO 
 RMS     Displacement     0.118081     0.001200     NO 
 Predicted change in Energy=-1.671461D-03
 GradGradGradGradGradGradGradGradGradGradGradGradGradGradGradGradGradGrad

 ---------------------------------------------------------------------------------------------------
                            Z-MATRIX (ANGSTROMS AND DEGREES)
   CD    Cent   Atom    N1       Length/X        N2       Alpha/Y        N3        Beta/Z          J
 ---------------------------------------------------------------------------------------------------
      1         X 
      2         X        1   1.000000(     1)
      3      1  C        1   1.000000(     2)      2   90.000(     9)
      4      2  N        1   1.412851(     3)      2   90.000(    10)      3   65.666(    16)      0
      5      3  N        1   1.496271(     4)      2   90.000(    11)      3  121.469(    17)      0
      6      4  N        1   1.179219(     5)      2   90.000(    12)      3  178.112(    18)      0
      7      5  N        1   0.792449(     6)      2   90.000(    13)      3  266.035(    19)      0
      8      6  H        3   1.072945(     7)      4  125.216(    14)      5  180.000(    20)      0
      9      7  H        4   1.001156(     8)      5  121.409(    15)      6  180.000(    21)      0
 ---------------------------------------------------------------------------------------------------
                         Z-Matrix orientation:                         
 ---------------------------------------------------------------------
 Center     Atomic      Atomic             Coordinates (Angstroms)
 Number     Number       Type             X           Y           Z
 ---------------------------------------------------------------------
      1         -1           0        0.000000    0.000000    0.000000
      2         -1           0        0.000000    0.000000    1.000000
      3          6           0        1.000000    0.000000    0.000000
      4          7           0        0.582165   -1.287335    0.000000
      5          7           0       -0.781110   -1.276203    0.000000
      6          7           0       -1.178579   -0.038846    0.000000
      7          7           0       -0.054794    0.790552    0.000000
      8          1           0        2.024775    0.317878    0.000000
      9          1           0        1.096914   -2.146024    0.000000
 ---------------------------------------------------------------------
                    Distance matrix (angstroms):
                    1          2          3          4          5
     1  X    0.000000
     2  X    1.000000   0.000000
     3  C    1.000000   1.414214   0.000000
     4  N    1.412851   1.730938   1.353446   0.000000
     5  N    1.496271   1.799674   2.191129   1.363320   0.000000
     6  N    1.179219   1.546143   2.178926   2.158459   1.299629
     7  N    0.792449   1.275921   1.318167   2.173323   2.190665
     8  H    2.049576   2.280517   1.072945   2.158200   3.227086
     9  H    2.410112   2.609337   2.148211   1.001156   2.069677
                    6          7          8          9
     6  N    0.000000
     7  N    1.396709   0.000000
     8  H    3.223155   2.132611   0.000000
     9  H    3.101301   3.154348   2.632819   0.000000
 Stoichiometry    CH2N4
 Framework group  CS[SG(CH2N4)]
 Deg. of freedom    11
 Full point group                 CS      NOp   2
 Largest Abelian subgroup         CS      NOp   2
 Largest concise Abelian subgroup C1      NOp   1
                         Standard orientation:                         
 ---------------------------------------------------------------------
 Center     Atomic      Atomic             Coordinates (Angstroms)
 Number     Number       Type             X           Y           Z
 ---------------------------------------------------------------------
      1          6           0        1.073225    0.248085    0.000000
      2          7           0        0.000000    1.072709    0.000000
      3          7           0       -1.117469    0.291744    0.000000
      4          7           0       -0.744606   -0.953249    0.000000
      5          7           0        0.651295   -1.000729    0.000000
      6          1           0        2.097924    0.566208    0.000000
      7          1           0       -0.061812    2.071955    0.000000
 ---------------------------------------------------------------------
 Rotational constants (GHZ):     10.3280531     10.1474621      5.1184806
 Standard basis: 6-31G (6D, 7F)
 There are    39 symmetry adapted cartesian basis functions of A'  symmetry.
 There are    10 symmetry adapted cartesian basis functions of A"  symmetry.
 There are    39 symmetry adapted basis functions of A'  symmetry.
 There are    10 symmetry adapted basis functions of A"  symmetry.
    49 basis functions,   118 primitive gaussians,    49 cartesian basis functions
    18 alpha electrons       18 beta electrons
       nuclear repulsion energy       165.1892655204 Hartrees.
 NAtoms=    7 NActive=    7 NUniq=    7 SFac= 1.00D+00 NAtFMM=   60 NAOKFM=F Big=F
 Integral buffers will be    131072 words long.
 Raffenetti 1 integral format.
 Two-electron integral symmetry is turned on.
 One-electron integrals computed using PRISM.
 NBasis=    49 RedAO= T EigKep=  6.96D-03  NBF=    39    10
 NBsUse=    49 1.00D-06 EigRej= -1.00D+00 NBFU=    39    10
 Initial guess from the checkpoint file:  "/tmp/rdj3/g09-16833/Gau-10372.chk"
 B after Tr=     0.000000    0.000000    0.000000
         Rot=    0.999996    0.000000    0.000000   -0.002783 Ang=  -0.32 deg.
 Initial guess orbital symmetries:
       Occupied  (A') (A') (A') (A') (A') (A') (A') (A') (A') (A')
                 (A') (A') (A") (A') (A') (A') (A") (A")
       Virtual   (A') (A') (A') (A') (A') (A') (A') (A') (A') (A')
                 (A') (A') (A') (A') (A') (A') (A') (A') (A') (A')
                 (A') (A') (A') (A') (A") (A") (A") (A") (A") (A")
                 (A")
 ExpMin= 1.61D-01 ExpMax= 4.17D+03 ExpMxC= 6.27D+02 IAcc=1 IRadAn=         1 AccDes= 0.00D+00
 Harris functional with IExCor=  205 and IRadAn=       1 diagonalized for initial guess.
 HarFok:  IExCor=  205 AccDes= 0.00D+00 IRadAn=         1 IDoV= 1 UseB2=F ITyADJ=14
 ICtDFT=  3500011 ScaDFX=  1.000000  1.000000  1.000000  1.000000
 FoFCou: FMM=F IPFlag=           0 FMFlag=      100000 FMFlg1=           0
         NFxFlg=           0 DoJE=T BraDBF=F KetDBF=T FulRan=T
         wScrn=  0.000000 ICntrl=     500 IOpCl=  0 I1Cent=   200000004 NGrid=           0
         NMat0=    1 NMatS0=      1 NMatT0=    0 NMatD0=    1 NMtDS0=    0 NMtDT0=    0
 Petite list used in FoFCou.
 Keep R1 ints in memory in symmetry-blocked form, NReq=1603106.
 Requested convergence on RMS density matrix=1.00D-08 within 128 cycles.
 Requested convergence on MAX density matrix=1.00D-06.
 Requested convergence on             energy=1.00D-06.
 No special actions if energy rises.
 SCF Done:  E(RHF) =  -256.588133541     A.U. after   12 cycles
            NFock= 12  Conv=0.97D-08     -V/T= 2.0003
 ExpMin= 1.61D-01 ExpMax= 4.17D+03 ExpMxC= 6.27D+02 IAcc=3 IRadAn=         5 AccDes= 0.00D+00
 HarFok:  IExCor=  205 AccDes= 0.00D+00 IRadAn=         5 IDoV=-2 UseB2=F ITyADJ=14
 ICtDFT= 12500011 ScaDFX=  1.000000  1.000000  1.000000  1.000000
 Range of M.O.s used for correlation:     6    49
 NBasis=    49 NAE=    18 NBE=    18 NFC=     5 NFV=     0
 NROrb=     44 NOA=    13 NOB=    13 NVA=    31 NVB=    31
 Semi-Direct transformation.
 ModeAB=           2 MOrb=            13 LenV=     435851232
 LASXX=       227383 LTotXX=      227383 LenRXX=      227383
 LTotAB=      247599 MaxLAS=      700700 LenRXY=      700700
 NonZer=      732160 LenScr=     1646592 LnRSAI=           0
 LnScr1=           0 LExtra=           0 Total=      2574675
 MaxDsk=          -1 SrtSym=           F ITran=            4
 JobTyp=0 Pass  1:  I=   1 to  13.
 (rs|ai) integrals will be sorted in core.
 Spin components of T(2) and E(2):
     alpha-alpha T2 =       0.3035946741D-01 E2=     -0.7390847280D-01
     alpha-beta  T2 =       0.1622920065D+00 E2=     -0.4007086535D+00
     beta-beta   T2 =       0.3035946741D-01 E2=     -0.7390847280D-01
 ANorm=    0.1105898251D+01
 E2 =    -0.5485255991D+00 EUMP2 =    -0.25713665913966D+03
 Keep R2 and R3 ints in memory in symmetry-blocked form, NReq=1654951.
 Iterations=  50 Convergence= 0.100D-07
 Iteration Nr.   1
 **********************
 DD1Dir will call FoFMem   1 times, MxPair=       182
 NAB=    91 NAA=     0 NBB=     0.
 E3=        0.12812172D-01        EUMP3=      -0.25712384697D+03
 DE(CI)=     -0.44052263     E(CI)=       -257.02865617    
 NORM(A)=   0.10753128D+01
 Iteration Nr.   2
 **********************
 DD1Dir will call FoFMem   1 times, MxPair=       182
 NAB=    91 NAA=     0 NBB=     0.
 DE(CI)=     -0.47153567     E(CI)=       -257.05966921    
 NORM(A)=   0.10795728D+01
 Iteration Nr.   3
 **********************
 DD1Dir will call FoFMem   1 times, MxPair=       182
 NAB=    91 NAA=     0 NBB=     0.
 DE(CI)=     -0.47000432     E(CI)=       -257.05813786    
 NORM(A)=   0.10796190D+01
 Iteration Nr.   4
 **********************
 DD1Dir will call FoFMem   1 times, MxPair=       182
 NAB=    91 NAA=     0 NBB=     0.
 DE(CI)=     -0.47084319     E(CI)=       -257.05897673    
 NORM(A)=   0.10798990D+01
 Iteration Nr.   5
 **********************
 DD1Dir will call FoFMem   1 times, MxPair=       182
 NAB=    91 NAA=     0 NBB=     0.
 DE(CI)=     -0.47083018     E(CI)=       -257.05896372    
 NORM(A)=   0.10799427D+01
 Iteration Nr.   6
 **********************
 DD1Dir will call FoFMem   1 times, MxPair=       182
 NAB=    91 NAA=     0 NBB=     0.
 DE(CI)=     -0.47086200     E(CI)=       -257.05899554    
 NORM(A)=   0.10799413D+01
 Iteration Nr.   7
 **********************
 DD1Dir will call FoFMem   1 times, MxPair=       182
 NAB=    91 NAA=     0 NBB=     0.
 DE(CI)=     -0.47085089     E(CI)=       -257.05898443    
 NORM(A)=   0.10799393D+01
 Iteration Nr.   8
 **********************
 DD1Dir will call FoFMem   1 times, MxPair=       182
 NAB=    91 NAA=     0 NBB=     0.
 DE(CI)=     -0.47085303     E(CI)=       -257.05898657    
 NORM(A)=   0.10799397D+01
 Iteration Nr.   9
 **********************
 DD1Dir will call FoFMem   1 times, MxPair=       182
 NAB=    91 NAA=     0 NBB=     0.
 DE(CI)=     -0.47085312     E(CI)=       -257.05898667    
 NORM(A)=   0.10799400D+01
 Iteration Nr.  10
 **********************
 DD1Dir will call FoFMem   1 times, MxPair=       182
 NAB=    91 NAA=     0 NBB=     0.
 DE(CI)=     -0.47085313     E(CI)=       -257.05898667    
 NORM(A)=   0.10799401D+01
 Iteration Nr.  11
 **********************
 DD1Dir will call FoFMem   1 times, MxPair=       182
 NAB=    91 NAA=     0 NBB=     0.
 DE(CI)=     -0.47085315     E(CI)=       -257.05898669    
 NORM(A)=   0.10799401D+01
 Iteration Nr.  12
 **********************
 DD1Dir will call FoFMem   1 times, MxPair=       182
 NAB=    91 NAA=     0 NBB=     0.
 DE(CI)=     -0.47085314     E(CI)=       -257.05898668    
 NORM(A)=   0.10799401D+01
 Iteration Nr.  13
 **********************
 DD1Dir will call FoFMem   1 times, MxPair=       182
 NAB=    91 NAA=     0 NBB=     0.
 DE(CI)=     -0.47085315     E(CI)=       -257.05898669    
 NORM(A)=   0.10799401D+01
 ***************************************************************
 Largest amplitude= 5.60D-02
 Discarding MO integrals.
          IDoAtm=1111111
          Differentiating once with respect to electric field.
                with respect to dipole field.
          Differentiating once with respect to nuclear coordinates.
 Keep R1 ints in memory in symmetry-blocked form, NReq=1586908.
          There are     1 degrees of freedom in the 1st order CPHF.  IDoFFX=0 NUNeed=     1.
 LinEq1:  Iter=  0 NonCon=     1 RMS=5.84D-03 Max=4.41D-02 NDo=     1
 AX will form     1 AO Fock derivatives at one time.
 LinEq1:  Iter=  1 NonCon=     1 RMS=1.36D-03 Max=8.27D-03 NDo=     1
 LinEq1:  Iter=  2 NonCon=     1 RMS=5.25D-04 Max=8.19D-03 NDo=     1
[...]
 Frc consts  --      1.2073                 1.6828                 0.4148
 IR Inten    --     30.0667                15.2313               146.3991
  Atom  AN      X      Y      Z        X      Y      Z        X      Y      Z
     1   6     0.00   0.00  -0.27     0.00   0.00   0.14     0.00   0.00   0.01
     2   7     0.00   0.00   0.33     0.00   0.00   0.15     0.00   0.00   0.04
     3   7     0.00   0.00  -0.22     0.00   0.00  -0.26     0.00   0.00   0.09
     4   7     0.00   0.00  -0.01     0.00   0.00   0.35     0.00   0.00  -0.10
     5   7     0.00   0.00   0.19     0.00   0.00  -0.32     0.00   0.00   0.02
     6   1     0.00   0.00  -0.85     0.00   0.00   0.27     0.00   0.00   0.04
     7   1     0.00   0.00  -0.08     0.00   0.00  -0.78     0.00   0.00  -0.99
                      4                      5                      6
                     A'                     A"                     A'
 Frequencies --    896.9101               909.6516              1005.5764
 Red. masses --      9.6458                 1.3825                 5.1308
 Frc consts  --      4.5718                 0.6740                 3.0568
 IR Inten    --      8.6903                17.2255                21.8017
  Atom  AN      X      Y      Z        X      Y      Z        X      Y      Z
     1   6    -0.08   0.09   0.00     0.00   0.00   0.18     0.02   0.01   0.00
     2   7     0.10   0.05   0.00     0.00   0.00  -0.04     0.25   0.26   0.00
     3   7     0.09  -0.07   0.00     0.00   0.00   0.01    -0.35  -0.25   0.00
     4   7     0.48  -0.15   0.00     0.00   0.00  -0.02    -0.03  -0.01   0.00
     5   7    -0.60   0.13   0.00     0.00   0.00  -0.03     0.06   0.01   0.00
     6   1     0.11  -0.56   0.00     0.00   0.00  -0.98     0.20  -0.53   0.00
     7   1     0.01   0.05   0.00     0.00   0.00  -0.02     0.52   0.29   0.00
                      7                      8                      9
                     A'                     A'                     A'
 Frequencies --   1048.4865              1078.3129              1185.7857
 Red. masses --      6.9927                 4.7882                 1.9962
 Frc consts  --      4.5292                 3.2803                 1.6538
 IR Inten    --      2.9450                13.7284                17.7487
  Atom  AN      X      Y      Z        X      Y      Z        X      Y      Z
     1   6     0.37   0.12   0.00    -0.09   0.00   0.00     0.12  -0.13   0.00
     2   7     0.10  -0.21   0.00    -0.02   0.32   0.00    -0.15   0.03   0.00
     3   7     0.02  -0.13   0.00     0.32  -0.09   0.00    -0.04  -0.01   0.00
     4   7    -0.31  -0.10   0.00    -0.19  -0.18   0.00     0.08   0.14   0.00
     5   7    -0.13   0.37   0.00     0.01  -0.04   0.00     0.03   0.01   0.00
     6   1     0.49  -0.15   0.00     0.06  -0.49   0.00     0.31  -0.74   0.00
     7   1    -0.43  -0.26   0.00    -0.61   0.30   0.00    -0.53   0.01   0.00
                     10                     11                     12
                     A'                     A'                     A'
 Frequencies --   1290.3087              1304.7818              1482.9866
 Red. masses --      3.1677                 4.2892                 2.8979
 Frc consts  --      3.1073                 4.3023                 3.7550
 IR Inten    --     12.5070                 4.8944                 7.1461
  Atom  AN      X      Y      Z        X      Y      Z        X      Y      Z
     1   6     0.04   0.04   0.00     0.31   0.06   0.00    -0.11   0.30   0.00
     2   7     0.07   0.02   0.00    -0.04   0.14   0.00     0.12  -0.12   0.00
     3   7     0.06  -0.24   0.00    -0.15   0.17   0.00    -0.03   0.07   0.00
     4   7    -0.02   0.26   0.00     0.03  -0.20   0.00    -0.01   0.02   0.00
     5   7    -0.11  -0.13   0.00    -0.08  -0.22   0.00     0.04  -0.15   0.00
     6   1    -0.17   0.73   0.00     0.19   0.63   0.00     0.19  -0.65   0.00
     7   1    -0.52  -0.02   0.00    -0.52   0.14   0.00    -0.59  -0.19   0.00
                     13                     14                     15
                     A'                     A'                     A'
 Frequencies --   1566.3470              3416.2779              3816.4461
 Red. masses --      2.1105                 1.1040                 1.0849
 Frc consts  --      3.0508                 7.5917                 9.3105
 IR Inten    --     46.0023                 4.1348               138.2128
  Atom  AN      X      Y      Z        X      Y      Z        X      Y      Z
     1   6    -0.10  -0.17   0.00     0.09   0.03   0.00     0.00   0.00   0.00
     2   7     0.16   0.00   0.00     0.00   0.00   0.00    -0.01   0.08   0.00
     3   7    -0.07   0.06   0.00     0.00   0.00   0.00     0.00   0.00   0.00
     4   7     0.04  -0.04   0.00     0.00   0.00   0.00     0.00   0.00   0.00
     5   7     0.04   0.11   0.00     0.00   0.00   0.00     0.00   0.00   0.00
     6   1    -0.27   0.24   0.00    -0.95  -0.30   0.00    -0.02   0.00   0.00
     7   1    -0.88  -0.07   0.00     0.01   0.02   0.00     0.06  -0.99   0.00

 -------------------
 - Thermochemistry -
 -------------------
 Temperature   298.150 Kelvin.  Pressure   1.00000 Atm.
 Atom     1 has atomic number  6 and mass  12.00000
 Atom     2 has atomic number  7 and mass  14.00307
 Atom     3 has atomic number  7 and mass  14.00307
 Atom     4 has atomic number  7 and mass  14.00307
 Atom     5 has atomic number  7 and mass  14.00307
 Atom     6 has atomic number  1 and mass   1.00783
 Atom     7 has atomic number  1 and mass   1.00783
 Molecular mass:    70.02795 amu.
 Principal axes and moments of inertia in atomic units:
                           1         2         3
     Eigenvalues --   175.69395 180.35750 356.05145
           X            0.99926   0.03839   0.00000
           Y           -0.03839   0.99926   0.00000
           Z            0.00000   0.00000   1.00000
 This molecule is an asymmetric top.
 Rotational symmetry number  1.
 Rotational temperatures (Kelvin)      0.49298     0.48023     0.24326
 Rotational constants (GHZ):          10.27207    10.00647     5.06877
 Zero-point vibrational energy     126640.6 (Joules/Mol)
                                   30.26783 (Kcal/Mol)
 Vibrational temperatures:    986.87  1064.80  1071.60  1290.45  1308.78
          (Kelvin)           1446.80  1508.54  1551.45  1706.08  1856.46
                             1877.29  2133.68  2253.62  4915.26  5491.01
 
 Zero-point correction=                           0.048235 (Hartree/Particle)
 Thermal correction to Energy=                    0.051629
 Thermal correction to Enthalpy=                  0.052573
 Thermal correction to Gibbs Free Energy=         0.022132
 Sum of electronic and zero-point Energies=           -257.011847
 Sum of electronic and thermal Energies=              -257.008453
 Sum of electronic and thermal Enthalpies=            -257.007509
 Sum of electronic and thermal Free Energies=         -257.037950
 
                     E (Thermal)             CV                S
                      KCal/Mol        Cal/Mol-Kelvin    Cal/Mol-Kelvin
 Total                   32.398             10.959             64.069
 Electronic               0.000              0.000              0.000
 Translational            0.889              2.981             38.656
 Rotational               0.889              2.981             23.938
 Vibrational             30.620              4.997              1.475
                       Q            Log10(Q)             Ln(Q)
 Total Bot       0.660706D-10        -10.179992        -23.440297
 Total V=0       0.101498D+13         12.006457         27.645888
 Vib (Bot)       0.754393D-22        -22.122402        -50.938714
 Vib (V=0)       0.115890D+01          0.064046          0.147471
 Electronic      0.100000D+01          0.000000          0.000000
 Translational   0.230336D+08          7.362362         16.952466
 Rotational      0.380232D+05          4.580048         10.545951
 ***** Axes restored to original set *****
 -------------------------------------------------------------------
 Center     Atomic                   Forces (Hartrees/Bohr)
 Number     Number              X              Y              Z
 -------------------------------------------------------------------
      1        6          -0.000013405    0.000004353    0.000000000
      2        7          -0.000013536    0.000002997    0.000000000
      3        7           0.000008483   -0.000002918    0.000000000
      4        7           0.000016391   -0.000001937    0.000000000
      5        7           0.000003226   -0.000002407    0.000000000
      6        1          -0.000000253    0.000000750    0.000000000
      7        1          -0.000000904   -0.000000837    0.000000000
 -------------------------------------------------------------------
 Cartesian Forces:  Max     0.000016391 RMS     0.000006024
 -----------------------------------------------------------------------------------------------
                       Internal Coordinate Forces (Hartree/Bohr or radian)
  Cent   Atom   N1       Length/X         N2         Alpha/Y        N3         Beta/Z          J
 -----------------------------------------------------------------------------------------------
         X 
         X        1   0.000000(     1)
      1  C        1  -0.000014(     2)      2   0.000000(     9)
      2  N        1  -0.000006(     3)      2   0.000000(    10)      3   0.000032(    16)     0
      3  N        1  -0.000003(     4)      2   0.000000(    11)      3  -0.000023(    17)     0
      4  N        1  -0.000016(     5)      2   0.000000(    12)      3  -0.000004(    18)     0
      5  N        1  -0.000003(     6)      2   0.000000(    13)      3   0.000005(    19)     0
      6  H        3   0.000000(     7)      4   0.000002(    14)      5   0.000000(    20)     0
      7  H        4   0.000000(     8)      5  -0.000002(    15)      6   0.000000(    21)     0
 -----------------------------------------------------------------------------------------------
 Internal  Forces:  Max     0.000032368 RMS     0.000010154

 GradGradGradGradGradGradGradGradGradGradGradGradGradGradGradGradGradGrad
 Berny optimization.
 Search for a local minimum.
 Step number   1 out of a maximum of    2
 All quantities printed in internal units (Hartrees-Bohrs-Radians)
 Second derivative matrix not updated -- analytic derivatives used.
 The second derivative matrix:
                          rn1       rn2       rn3       rn4       rch
           rn1          0.60864
           rn2         -0.07908   0.57979
           rn3          0.05894  -0.04109   0.49437
           rn4          0.10825   0.08860  -0.03340   0.54638
           rch         -0.00166  -0.00233   0.00013  -0.00400   0.40780
           rnh          0.00558  -0.00853  -0.00053  -0.00132   0.00094
           an1          0.12480  -0.28305  -0.25796   0.14718   0.01139
           an2          0.21726  -0.18530  -0.32425  -0.17614   0.00012
           an3          0.25134   0.48993   0.28192  -0.19784   0.00086
           an4         -0.11537   0.14808   0.19126  -0.19198  -0.00851
           ach          0.04106   0.01172  -0.01263   0.02750   0.00161
           anh         -0.06382   0.02369   0.02616  -0.02016  -0.00152
                          rnh       an1       an2       an3       an4
           rnh          0.51610
           an1         -0.00430   2.87556
           an2          0.00900  -1.15676   3.25464
           an3         -0.00662  -0.39536  -1.61341   2.27070
           an4          0.00177  -0.23910  -0.21206  -0.11953   1.02001
           ach          0.00089   0.00647  -0.02714  -0.00956   0.08405
           anh          0.00091  -0.04098  -0.01336   0.00967  -0.00627
                          ach       anh
           ach          0.23469
           anh          0.00020   0.24602
 ITU=  0
     Eigenvalues ---   -0.00001   0.17814   0.23581   0.29525   0.40763
     Eigenvalues ---    0.51573   0.62848   0.64429   0.78704   1.33362
     Eigenvalues ---    3.23815   4.79056
 Eigenvalue     1 is  -7.15D-06 should be greater than     0.000000 Eigenvector:
                          rn4       an3       rn1       rn2       an2
   1                    0.47227   0.46246  -0.43592  -0.39159   0.34333
                          an4       an1       rn3       anh       ach
   1                    0.26332   0.18024   0.00497  -0.00001  -0.00001
 Angle between quadratic step and forces=  77.50 degrees.
 Linear search not attempted -- first point.
 Variable       Old X    -DE/DX   Delta X   Delta X   Delta X     New X
                                 (Linear)    (Quad)   (Total)
   rn1        2.61511  -0.00001   0.00000   0.00005   0.00005   2.61516
   rn2        2.84183   0.00000   0.00000   0.00003   0.00003   2.84186
   rn3        2.22643  -0.00002   0.00000  -0.00004  -0.00004   2.22638
   rn4        1.56505   0.00000   0.00000  -0.00006  -0.00006   1.56499
   rch        2.02747   0.00000   0.00000   0.00000   0.00000   2.02747
   rnh        1.89210   0.00000   0.00000   0.00000   0.00000   1.89210
   an1        1.17368   0.00003   0.00000  -0.00002  -0.00002   1.17366
   an2        2.16535  -0.00002   0.00000  -0.00005  -0.00005   2.16530
   an3        3.15212   0.00000   0.00000  -0.00006  -0.00006   3.15207
   an4        4.66879   0.00000   0.00000  -0.00002  -0.00002   4.66877
   ach        2.18899   0.00000   0.00000   0.00000   0.00000   2.18899
   anh        2.10203   0.00000   0.00000   0.00000   0.00000   2.10203
         Item               Value     Threshold  Converged?
 Maximum Force            0.000032     0.000450     YES
 RMS     Force            0.000013     0.000300     YES
 Maximum Displacement     0.000061     0.001800     YES
 RMS     Displacement     0.000036     0.001200     YES
 Predicted change in Energy=-6.020406D-10
 Optimization completed.
    -- Stationary point found.
                       ----------------------------
                       !   Optimized Parameters   !
                       ! (Angstroms and Degrees)  !
 ----------------------                            ----------------------
 !      Name          Value   Derivative information (Atomic Units)     !
 ------------------------------------------------------------------------
 !       rn1         1.3839   -DE/DX =    0.0                           !
 !       rn2         1.5038   -DE/DX =    0.0                           !
 !       rn3         1.1782   -DE/DX =    0.0                           !
 !       rn4         0.8282   -DE/DX =    0.0                           !
 !       rch         1.0729   -DE/DX =    0.0                           !
 !       rnh         1.0013   -DE/DX =    0.0                           !
 !       an1        67.247    -DE/DX =    0.0                           !
 !       an2       124.0655   -DE/DX =    0.0                           !
 !       an3       180.6032   -DE/DX =    0.0                           !
 !       an4       267.5017   -DE/DX =    0.0                           !
 !       ach       125.4197   -DE/DX =    0.0                           !
 !       anh       120.4376   -DE/DX =    0.0                           !
 ------------------------------------------------------------------------
 GradGradGradGradGradGradGradGradGradGradGradGradGradGradGradGradGradGrad

 1\1\GINC-N353\Freq\RCISD-FC\6-31G\C1H2N4\RDJ3\25-Nov-2013\1\\#N Geom=A
 llCheck Guess=TCheck SCRF=Check GenChk RCISD(FC)/6-31G Freq\\1H-tetraz
 ole CH2N4 casno=288948 state=1 config=1 method=15 basis=9\\0,1\X\X,1,1
 .\C,1,1.,2,90.\N,1,rn1,2,90.,3,an1,0\N,1,rn2,2,90.,3,an2,0\N,1,rn3,2,9
 0.,3,an3,0\N,1,rn4,2,90.,3,an4,0\H,3,rch,4,ach,5,180.,0\H,4,rnh,5,anh,
 6,180.,0\\rn1=1.383858\rn2=1.50383011\rn3=1.17817465\rn4=0.82819053\rc
 h=1.07289048\rnh=1.00125708\an1=67.24704556\an2=124.065538\an3=180.603
 2142\an4=267.50170324\ach=125.41970728\anh=120.43759912\\Version=EM64L
 -G09RevD.01\State=1-A'\HF=-256.5874803\MP2=-257.1394293\MP3=-257.12561
 69\CISD=-257.0600822\RMSD=7.880e-10\RMSF=6.024e-06\ZeroPoint=0.0482349
 \Thermal=0.0516291\Dipole=2.0695538,-1.1484477,0.\DipoleDeriv=0.219288
 9,0.0181453,0.,-0.156021,0.4439977,0.,0.,0.,0.1407947,-0.4651081,0.281
 0111,0.,0.2172014,-0.447144,0.,0.,0.,-0.306081,0.2815956,-0.2336323,0.
 ,-0.2784107,-0.2032268,0.,0.,0.,-0.0709372,0.1303177,0.0827244,0.,0.20
 55001,-0.0505469,0.,0.,0.,-0.1714,-0.5085325,-0.0960061,0.,0.0532503,-
 0.1979057,0.,0.,0.,-0.2290347,0.0896648,-0.0060094,0.,0.0049774,0.1374
 778,0.,0.,0.,0.194654,0.2527389,-0.0462469,0.,-0.046527,0.3174074,0.,0
 .,0.,0.4420565\Quadrupole=1.1354696,-1.1980486,0.0625791,-1.4100172,0.
 ,0.\QuadrupoleDeriv=2.2159853,-1.2329307,-0.9830545,0.9998667,0.,0.,0.
 0800466,-0.0410783,-0.0389683,1.6647668,0.,0.,0.,0.,0.,0.,-0.2160085,-
 0.1573044,0.855954,-0.6268701,-0.2290838,-0.3279732,0.,0.,0.6142511,-0
 .8566024,0.2423514,0.4652217,0.,0.,0.,0.,0.,0.,-0.9500688,1.2827358,-1
 .0787948,0.7987598,0.280035,-1.7075454,0.,0.,0.3410067,-0.7451241,0.40
 41174,-0.5308437,0.,0.,0.,0.,0.,0.,0.6240255,0.7260071,-1.2703183,0.93
 19373,0.338381,0.7262032,0.,0.,-0.3604343,0.5422143,-0.18178,-1.100302
 8,0.,0.,0.,0.,0.,0.,0.9643774,-0.3390626,0.1908175,-0.3306078,0.139790
 3,0.1776506,0.,0.,-0.5935854,0.8521268,-0.2585414,-0.0100169,0.,0.,0.,
 0.,0.,0.,-0.2296792,-1.3613724,0.874691,-0.423427,-0.4512639,0.2138166
 ,0.,0.,-0.207382,0.3932257,-0.1858438,0.832787,0.,0.,0.,0.,0.,0.,0.923
 0944,0.264914,0.9712523,-0.4968338,-0.4744185,-1.2304985,0.,0.,0.89158
 ,-1.6759085,0.7843284,0.7480288,0.,0.,0.,0.,0.,0.,0.9535321,-1.5647285
 \PG=CS [SG(C1H2N4)]\NImag=0\\1.02449014,0.07005087,0.62614982,0.,0.,0.
 15515039,-0.16695577,-0.05654359,0.,0.61988011,-0.07551353,-0.29341628
 ,0.,-0.19351277,1.01107649,0.,0.,-0.07278882,0.,0.,0.11880530,-0.08572
 683,-0.09371076,0.,-0.18038774,-0.04846602,0.,0.39781385,-0.01355406,-
 0.04756018,0.,0.00276362,-0.11623019,0.,0.05475375,0.60400819,0.,0.,0.
 02334423,0.,0.,-0.07624629,0.,0.,0.11771084,-0.13222818,0.05043820,0.,
 -0.10521507,0.03424794,0.,-0.11682443,0.01642321,0.,0.49169869,-0.0431
 8083,0.03582275,0.,0.10837210,-0.08416103,0.,0.08925353,-0.32364740,0.
 ,-0.12697674,0.46075954,0.,0.,0.01942413,0.,0.,0.02742178,0.,0.,-0.097
 48290,0.,0.,0.12427469,-0.28456053,0.13089247,0.,0.00745908,0.10582248
 ,0.,-0.01359037,-0.10147446,0.,-0.12386237,-0.02909645,0.,0.42736515,0
 .12745981,-0.23178848,0.,-0.00966834,-0.10163359,0.,0.00095198,-0.1203
 9389,0.,0.02708797,-0.09056091,0.,-0.12785450,0.53545054,0.,0.,-0.0839
 4364,0.,0.,0.02241909,0.,0.,0.03563919,0.,0.,-0.09051884,0.,0.,0.11259
 682,-0.37439002,-0.08838101,0.,0.00473363,0.00268540,0.,0.00103763,0.0
 0328889,0.,-0.00176758,0.00095426,0.,-0.01194616,-0.00799152,0.,0.3826
 3383,-0.08520361,-0.08310900,0.,-0.03596810,-0.00277558,0.,0.00097682,
 -0.00675735,0.,0.00594997,-0.00200086,0.,0.02354524,0.01305370,0.,0.09
 051160,0.08225724,0.,0.,-0.03414876,0.,0.,-0.00182093,0.,0.,0.00603468
 ,0.,0.,0.00953609,0.,0.,-0.00446100,0.,0.,0.02554604,0.01937100,-0.012
 73665,0.,-0.17952101,0.17473539,0.,-0.00231014,0.03779744,0.,-0.011807
 55,0.00068058,0.,-0.00086040,-0.00999542,0.,-0.00030430,0.00018672,0.,
 0.17543241,0.01994580,-0.00610868,0.,0.18455907,-0.41285144,0.,-0.0037
 6783,0.01057510,0.,-0.00715979,0.00379061,0.,-0.00184287,-0.00412435,0
 .,-0.00106800,-0.00066759,0.,-0.19066827,0.40938746,0.,0.,-0.00703940,
 0.,0.,-0.01779337,0.,0.,-0.00898813,0.,0.,0.00734459,0.,0.,0.00826196,
 0.,0.,-0.00068681,0.,0.,0.01890222\\0.00001341,-0.00000435,0.,0.000013
 54,-0.00000300,0.,-0.00000848,0.00000292,0.,-0.00001639,0.00000194,0.,
 -0.00000323,0.00000241,0.,0.00000025,-0.00000075,0.,0.00000090,0.00000
 084,0.\\\@


 THERE ARE PEOPLE SO ADDICTED TO EXAGERATING THEY
 CAN'T TELL THE TRUTH WITHOUT LYING. -- FORTUNE COOKIE
 Job cpu time:       0 days  0 hours 45 minutes 36.1 seconds.
 File lengths (MBytes):  RWF=     98 Int=      0 D2E=      0 Chk=     39 Scr=      1
 Normal termination of Gaussian 09 at Mon Nov 25 19:37:18 2013.
