 Entering Gaussian System, Link 0=g09
 Initial command:
 /usr/local/gaussian/g09.d01.em64t.legacy.linda/g09/l1.exe "/tmp/rdj3/g09-9462/Gau-9090.inp" -scrdir="/tmp/rdj3/g09-9462/"
 Entering Link 1 = /usr/local/gaussian/g09.d01.em64t.legacy.linda/g09/l1.exe PID=      9091.
  
 Copyright (c) 1988,1990,1992,1993,1995,1998,2003,2009,2013,
            Gaussian, Inc.  All Rights Reserved.
  
 This is part of the Gaussian(R) 09 program.  It is based on
 the Gaussian(R) 03 system (copyright 2003, Gaussian, Inc.),
 the Gaussian(R) 98 system (copyright 1998, Gaussian, Inc.),
 the Gaussian(R) 94 system (copyright 1995, Gaussian, Inc.),
 the Gaussian 92(TM) system (copyright 1992, Gaussian, Inc.),
 the Gaussian 90(TM) system (copyright 1990, Gaussian, Inc.),
 the Gaussian 88(TM) system (copyright 1988, Gaussian, Inc.),
 the Gaussian 86(TM) system (copyright 1986, Carnegie Mellon
 University), and the Gaussian 82(TM) system (copyright 1983,
 Carnegie Mellon University). Gaussian is a federally registered
 trademark of Gaussian, Inc.
  
 This software contains proprietary and confidential information,
 including trade secrets, belonging to Gaussian, Inc.
  
 This software is provided under written license and may be
 used, copied, transmitted, or stored only in accord with that
 written license.
  
 The following legend is applicable only to US Government
 contracts under FAR:
  
                    RESTRICTED RIGHTS LEGEND
  
 Use, reproduction and disclosure by the US Government is
 subject to restrictions as set forth in subparagraphs (a)
 and (c) of the Commercial Computer Software - Restricted
 Rights clause in FAR 52.227-19.
  
 Gaussian, Inc.
 340 Quinnipiac St., Bldg. 40, Wallingford CT 06492
  
  
 ---------------------------------------------------------------
 Warning -- This program may not be used in any manner that
 competes with the business of Gaussian, Inc. or will provide
 assistance to any competitor of Gaussian, Inc.  The licensee
 of this program is prohibited from giving any competitor of
 Gaussian, Inc. access to this program.  By using this program,
 the user acknowledges that Gaussian, Inc. is engaged in the
 business of creating and licensing software in the field of
 computational chemistry and represents and warrants to the
 licensee that it is not a competitor of Gaussian, Inc. and that
 it will not use this program in any manner prohibited above.
 ---------------------------------------------------------------
  

 Cite this work as:
 Gaussian 09, Revision D.01,
 M. J. Frisch, G. W. Trucks, H. B. Schlegel, G. E. Scuseria, 
 M. A. Robb, J. R. Cheeseman, G. Scalmani, V. Barone, B. Mennucci, 
 G. A. Petersson, H. Nakatsuji, M. Caricato, X. Li, H. P. Hratchian, 
 A. F. Izmaylov, J. Bloino, G. Zheng, J. L. Sonnenberg, M. Hada, 
 M. Ehara, K. Toyota, R. Fukuda, J. Hasegawa, M. Ishida, T. Nakajima, 
 Y. Honda, O. Kitao, H. Nakai, T. Vreven, J. A. Montgomery, Jr., 
 J. E. Peralta, F. Ogliaro, M. Bearpark, J. J. Heyd, E. Brothers, 
 K. N. Kudin, V. N. Staroverov, T. Keith, R. Kobayashi, J. Normand, 
 K. Raghavachari, A. Rendell, J. C. Burant, S. S. Iyengar, J. Tomasi, 
 M. Cossi, N. Rega, J. M. Millam, M. Klene, J. E. Knox, J. B. Cross, 
 V. Bakken, C. Adamo, J. Jaramillo, R. Gomperts, R. E. Stratmann, 
 O. Yazyev, A. J. Austin, R. Cammi, C. Pomelli, J. W. Ochterski, 
 R. L. Martin, K. Morokuma, V. G. Zakrzewski, G. A. Voth, 
 P. Salvador, J. J. Dannenberg, S. Dapprich, A. D. Daniels, 
 O. Farkas, J. B. Foresman, J. V. Ortiz, J. Cioslowski, 
 and D. J. Fox, Gaussian, Inc., Wallingford CT, 2013.
 
 ******************************************
 Gaussian 09:  EM64L-G09RevD.01 24-Apr-2013
                16-Dec-2013 
 ******************************************
 %Nproc=8
 Will use up to    8 processors via shared memory.
 %mem=436000000
 ---------------------
 #B3PW91/TZVP opt freq
 ---------------------
 1/14=-1,18=20,19=15,26=3,38=1/1,3;
 2/9=110,12=2,17=6,18=5,40=1/2;
 3/5=19,7=101,11=2,16=1,25=1,30=1,71=1,74=-6/1,2,3;
 4//1;
 5/5=2,38=5/2;
 6/7=2,8=2,9=2,10=2,28=1/1;
 7//1,2,3,16;
 1/14=-1,18=20,19=15,26=3/3(2);
 2/9=110/2;
 99//99;
 2/9=110/2;
 3/5=19,7=101,11=2,16=1,25=1,30=1,71=1,74=-6/1,2,3;
 4/5=5,16=3,69=1/1;
 5/5=2,38=5/2;
 7//1,2,3,16;
 1/14=-1,18=20,19=15,26=3/3(-5);
 2/9=110/2;
 6/7=2,8=2,9=2,10=2,19=2,28=1/1;
 99/9=1/99;
 -------------------------------------------------------------------
 1H-tetrazole CH2N4 casno=288948 state=1 config=1 method=16 basis=32
 -------------------------------------------------------------------
 Symbolic Z-matrix:
 Charge =  0 Multiplicity = 1
 X
 X                    1     1. 
 C                    1     1.       2     90. 
 N                    1    rn1      2     90.      3    an1      0
 N                    1    rn2      2     90.      3    an2      0
 N                    1    rn3      2     90.      3    an3      0
 N                    1    rn4      2     90.      3    an4      0
 H                    3    rch      4    ach      5     180.     0
 H                    4    rnh      5    anh      6     180.     0
       Variables:
  rn1                   1.2426                   
  rn2                   1.333                    
  rn3                   1.1146                   
  rn4                   0.9264                   
  rch                   1.0678                   
  rnh                   0.9941                   
  an1                  71.8427                   
  an2                 133.7028                   
  an3                 194.4597                   
  an4                 276.0768                   
  ach                 125.0248                   
  anh                 120.7626                   
 

 GradGradGradGradGradGradGradGradGradGradGradGradGradGradGradGradGradGrad
 Berny optimization.
 Initialization pass.
                           ----------------------------
                           !    Initial Parameters    !
                           ! (Angstroms and Degrees)  !
 --------------------------                            --------------------------
 ! Name  Definition              Value          Derivative Info.                !
 --------------------------------------------------------------------------------
 ! R1    R(1,2)                  1.3303         estimate D2E/DX2                !
 ! R2    R(1,5)                  1.2892         estimate D2E/DX2                !
 ! R3    R(1,6)                  1.0678         estimate D2E/DX2                !
 ! R4    R(2,3)                  1.3261         estimate D2E/DX2                !
 ! R5    R(2,7)                  0.9941         estimate D2E/DX2                !
 ! R6    R(3,4)                  1.252          estimate D2E/DX2                !
 ! R7    R(4,5)                  1.3414         estimate D2E/DX2                !
 ! A1    A(2,1,5)              108.177          estimate D2E/DX2                !
 ! A2    A(2,1,6)              125.0248         estimate D2E/DX2                !
 ! A3    A(5,1,6)              126.7982         estimate D2E/DX2                !
 ! A4    A(1,2,3)              108.008          estimate D2E/DX2                !
 ! A5    A(1,2,7)              131.2294         estimate D2E/DX2                !
 ! A6    A(3,2,7)              120.7626         estimate D2E/DX2                !
 ! A7    A(2,3,4)              106.684          estimate D2E/DX2                !
 ! A8    A(3,4,5)              111.3724         estimate D2E/DX2                !
 ! A9    A(1,5,4)              105.7586         estimate D2E/DX2                !
 ! D1    D(5,1,2,3)              0.0            estimate D2E/DX2                !
 ! D2    D(5,1,2,7)            180.0            estimate D2E/DX2                !
 ! D3    D(6,1,2,3)            180.0            estimate D2E/DX2                !
 ! D4    D(6,1,2,7)              0.0            estimate D2E/DX2                !
 ! D5    D(2,1,5,4)              0.0            estimate D2E/DX2                !
 ! D6    D(6,1,5,4)            180.0            estimate D2E/DX2                !
 ! D7    D(1,2,3,4)              0.0            estimate D2E/DX2                !
 ! D8    D(7,2,3,4)            180.0            estimate D2E/DX2                !
 ! D9    D(2,3,4,5)              0.0            estimate D2E/DX2                !
 ! D10   D(3,4,5,1)              0.0            estimate D2E/DX2                !
 --------------------------------------------------------------------------------
 Trust Radius=3.00D-01 FncErr=1.00D-07 GrdErr=1.00D-06
 Number of steps in this run=     36 maximum allowed number of steps=    100.
 GradGradGradGradGradGradGradGradGradGradGradGradGradGradGradGradGradGrad

                          Input orientation:                          
 ---------------------------------------------------------------------
 Center     Atomic      Atomic             Coordinates (Angstroms)
 Number     Number       Type             X           Y           Z
 ---------------------------------------------------------------------
      1          6           0        1.000000    0.000000    0.000000
      2          7           0        0.387228   -1.180724    0.000000
      3          7           0       -0.920993   -0.963670    0.000000
      4          7           0       -1.079293    0.278314    0.000000
      5          7           0        0.098070    0.921194    0.000000
      6          1           0        2.058429    0.141157    0.000000
      7          1           0        0.749017   -2.106652    0.000000
 ---------------------------------------------------------------------
                    Distance matrix (angstroms):
                    1          2          3          4          5
     1  C    0.000000
     2  N    1.330263   0.000000
     3  N    2.149157   1.326105   0.000000
     4  N    2.097837   2.068690   1.252032   0.000000
     5  N    1.289216   2.121715   2.142710   1.341447   0.000000
     6  H    1.067800   2.130794   3.177672   3.140719   2.109850
     7  H    2.121551   0.994100   2.023695   3.005127   3.097029
                    6          7
     6  H    0.000000
     7  H    2.601385   0.000000
 Stoichiometry    CH2N4
 Framework group  CS[SG(CH2N4)]
 Deg. of freedom    11
 Full point group                 CS      NOp   2
 Largest Abelian subgroup         CS      NOp   2
 Largest concise Abelian subgroup C1      NOp   1
                         Standard orientation:                         
 ---------------------------------------------------------------------
 Center     Atomic      Atomic             Coordinates (Angstroms)
 Number     Number       Type             X           Y           Z
 ---------------------------------------------------------------------
      1          6           0        1.052733    0.225621    0.000000
      2          7           0        0.000000    1.038857    0.000000
      3          7           0       -1.095416    0.291448    0.000000
      4          7           0       -0.716382   -0.901832    0.000000
      5          7           0        0.622191   -0.989579    0.000000
      6          1           0        2.072287    0.542964    0.000000
      7          1           0       -0.061439    2.031056    0.000000
 ---------------------------------------------------------------------
 Rotational constants (GHZ):     10.9201517     10.7345054      5.4132664
 Standard basis: TZVP (5D, 7F)
 There are    85 symmetry adapted cartesian basis functions of A'  symmetry.
 There are    27 symmetry adapted cartesian basis functions of A"  symmetry.
 There are    80 symmetry adapted basis functions of A'  symmetry.
 There are    27 symmetry adapted basis functions of A"  symmetry.
   107 basis functions,   191 primitive gaussians,   112 cartesian basis functions
    18 alpha electrons       18 beta electrons
       nuclear repulsion energy       169.8308489506 Hartrees.
 NAtoms=    7 NActive=    7 NUniq=    7 SFac= 1.00D+00 NAtFMM=   60 NAOKFM=F Big=F
 Integral buffers will be    131072 words long.
 Raffenetti 2 integral format.
 Two-electron integral symmetry is turned on.
 One-electron integrals computed using PRISM.
 NBasis=   107 RedAO= T EigKep=  7.56D-04  NBF=    80    27
 NBsUse=   107 1.00D-06 EigRej= -1.00D+00 NBFU=    80    27
 ExpMin= 9.52D-02 ExpMax= 1.97D+04 ExpMxC= 6.73D+02 IAcc=2 IRadAn=         4 AccDes= 0.00D+00
 Harris functional with IExCor=  408 and IRadAn=       4 diagonalized for initial guess.
 HarFok:  IExCor=  408 AccDes= 0.00D+00 IRadAn=         4 IDoV= 1 UseB2=F ITyADJ=14
 ICtDFT=  3500011 ScaDFX=  1.000000  1.000000  1.000000  1.000000
 FoFCou: FMM=F IPFlag=           0 FMFlag=      100000 FMFlg1=           0
         NFxFlg=           0 DoJE=T BraDBF=F KetDBF=T FulRan=T
         wScrn=  0.000000 ICntrl=     500 IOpCl=  0 I1Cent=   200000004 NGrid=           0
         NMat0=    1 NMatS0=      1 NMatT0=    0 NMatD0=    1 NMtDS0=    0 NMtDT0=    0
 Petite list used in FoFCou.
 Initial guess orbital symmetries:
       Occupied  (A') (A') (A') (A') (A') (A') (A') (A') (A') (A')
                 (A') (A') (A") (A') (A") (A') (A") (A')
       Virtual   (A") (A") (A') (A') (A') (A') (A') (A') (A") (A')
                 (A') (A') (A') (A") (A") (A') (A') (A') (A') (A')
                 (A") (A') (A") (A') (A') (A') (A') (A') (A') (A')
                 (A') (A") (A') (A') (A") (A') (A") (A") (A') (A')
                 (A") (A") (A') (A') (A") (A') (A') (A') (A") (A')
                 (A') (A') (A") (A') (A") (A') (A") (A') (A') (A")
                 (A') (A') (A') (A') (A') (A') (A") (A") (A') (A')
                 (A') (A') (A") (A") (A') (A") (A') (A') (A') (A')
                 (A') (A') (A') (A') (A') (A') (A') (A') (A')
 The electronic state of the initial guess is 1-A'.
 Keep R1 ints in memory in symmetry-blocked form, NReq=25647217.
 Requested convergence on RMS density matrix=1.00D-08 within 128 cycles.
 Requested convergence on MAX density matrix=1.00D-06.
 Requested convergence on             energy=1.00D-06.
 No special actions if energy rises.
 Integral accuracy reduced to 1.0D-05 until final iterations.
 Initial convergence to 1.0D-05 achieved.  Increase integral accuracy.
 SCF Done:  E(RB3PW91) =  -258.234035236     A.U. after   15 cycles
            NFock= 15  Conv=0.23D-08     -V/T= 2.0031

 **********************************************************************

            Population analysis using the SCF density.

 **********************************************************************

 Orbital symmetries:
       Occupied  (A') (A') (A') (A') (A') (A') (A') (A') (A') (A')
                 (A') (A") (A') (A') (A") (A") (A') (A')
       Virtual   (A") (A") (A') (A') (A') (A') (A') (A") (A') (A')
                 (A') (A') (A") (A') (A") (A') (A') (A') (A') (A')
                 (A") (A") (A') (A') (A') (A') (A') (A') (A') (A')
                 (A') (A") (A') (A') (A") (A') (A") (A") (A') (A')
                 (A") (A") (A') (A') (A") (A') (A') (A') (A") (A')
                 (A') (A") (A') (A') (A') (A") (A') (A") (A') (A")
                 (A') (A') (A') (A') (A') (A") (A') (A") (A') (A')
                 (A') (A') (A") (A") (A') (A") (A') (A') (A') (A')
                 (A') (A') (A') (A') (A') (A') (A') (A') (A')
 The electronic state is 1-A'.
 Alpha  occ. eigenvalues --  -14.42636 -14.38940 -14.37084 -14.34194 -10.25459
 Alpha  occ. eigenvalues --   -1.18783  -0.97422  -0.92384  -0.70175  -0.68970
 Alpha  occ. eigenvalues --   -0.62041  -0.52513  -0.51792  -0.39679  -0.35072
 Alpha  occ. eigenvalues --   -0.33073  -0.31396  -0.29784
 Alpha virt. eigenvalues --   -0.02717   0.00987   0.02158   0.07465   0.12330
 Alpha virt. eigenvalues --    0.13291   0.16719   0.20611   0.24245   0.27621
 Alpha virt. eigenvalues --    0.28733   0.32691   0.34222   0.35439   0.36681
 Alpha virt. eigenvalues --    0.37432   0.38774   0.41825   0.44553   0.45639
 Alpha virt. eigenvalues --    0.46362   0.49801   0.51320   0.53914   0.54641
 Alpha virt. eigenvalues --    0.58347   0.60913   0.64432   0.67901   0.69739
 Alpha virt. eigenvalues --    0.74000   1.17932   1.23256   1.27430   1.29850
 Alpha virt. eigenvalues --    1.33768   1.41501   1.49090   1.60710   1.67587
 Alpha virt. eigenvalues --    1.68237   1.75660   1.77895   1.81509   1.83225
 Alpha virt. eigenvalues --    1.85635   1.88459   1.94586   1.96928   1.97710
 Alpha virt. eigenvalues --    2.01449   2.03153   2.04933   2.09013   2.10580
 Alpha virt. eigenvalues --    2.11897   2.13749   2.15521   2.20627   2.22751
 Alpha virt. eigenvalues --    2.27057   2.30523   2.40645   2.42208   2.55239
 Alpha virt. eigenvalues --    2.59696   2.61369   2.63763   2.67443   2.69801
 Alpha virt. eigenvalues --    2.80392   2.84869   2.85760   2.91210   2.92227
 Alpha virt. eigenvalues --    2.98857   3.19648   3.40327   3.50788   3.62250
 Alpha virt. eigenvalues --    3.82172   3.97604   4.05143   4.33989  22.02468
 Alpha virt. eigenvalues --   31.32583  31.62612  31.67882  31.73312
          Condensed to atoms (all electrons):
               1          2          3          4          5          6
     1  C    5.109971   0.325998  -0.081525  -0.034160   0.438349   0.405690
     2  N    0.325998   6.557608   0.057553  -0.027275  -0.147649  -0.034190
     3  N   -0.081525   0.057553   6.952421   0.182793  -0.006296   0.005291
     4  N   -0.034160  -0.027275   0.182793   6.809088   0.133761   0.005334
     5  N    0.438349  -0.147649  -0.006296   0.133761   6.650321  -0.016814
     6  H    0.405690  -0.034190   0.005291   0.005334  -0.016814   0.494611
     7  H   -0.046561   0.340301  -0.031858   0.008402   0.009404  -0.000614
               7
     1  C   -0.046561
     2  N    0.340301
     3  N   -0.031858
     4  N    0.008402
     5  N    0.009404
     6  H   -0.000614
     7  H    0.454109
 Mulliken charges:
               1
     1  C   -0.117762
     2  N   -0.072346
     3  N   -0.078379
     4  N   -0.077944
     5  N   -0.061077
     6  H    0.140693
     7  H    0.266815
 Sum of Mulliken charges =   0.00000
 Mulliken charges with hydrogens summed into heavy atoms:
               1
     1  C    0.022931
     2  N    0.194469
     3  N   -0.078379
     4  N   -0.077944
     5  N   -0.061077
 Electronic spatial extent (au):  <R**2>=            244.7782
 Charge=              0.0000 electrons
 Dipole moment (field-independent basis, Debye):
    X=              2.5358    Y=              4.8560    Z=              0.0000  Tot=              5.4783
 Quadrupole moment (field-independent basis, Debye-Ang):
   XX=            -29.1398   YY=            -26.6319   ZZ=            -28.1540
   XY=              1.8213   XZ=              0.0000   YZ=              0.0000
 Traceless Quadrupole moment (field-independent basis, Debye-Ang):
   XX=             -1.1646   YY=              1.3433   ZZ=             -0.1787
   XY=              1.8213   XZ=              0.0000   YZ=              0.0000
 Octapole moment (field-independent basis, Debye-Ang**2):
  XXX=             12.1215  YYY=             22.6803  ZZZ=              0.0000  XYY=             -0.5419
  XXY=              4.7563  XXZ=              0.0000  XZZ=             -0.6156  YZZ=              0.6919
  YYZ=              0.0000  XYZ=              0.0000
 Hexadecapole moment (field-independent basis, Debye-Ang**3):
 XXXX=           -140.9629 YYYY=           -119.3204 ZZZZ=            -25.8071 XXXY=              6.7955
 XXXZ=              0.0000 YYYX=             -0.2693 YYYZ=              0.0000 ZZZX=              0.0000
 ZZZY=              0.0000 XXYY=            -53.2496 XXZZ=            -30.2682 YYZZ=            -28.5933
 XXYZ=              0.0000 YYXZ=              0.0000 ZZXY=             -0.0089
 N-N= 1.698308489506D+02 E-N=-9.428444024732D+02  KE= 2.574483204349D+02
 Symmetry A'   KE= 2.479049939769D+02
 Symmetry A"   KE= 9.543326458053D+00
 Calling FoFJK, ICntrl=      2127 FMM=F ISym2X=1 I1Cent= 0 IOpClX= 0 NMat=1 NMatS=1 NMatT=0.
 ***** Axes restored to original set *****
 -------------------------------------------------------------------
 Center     Atomic                   Forces (Hartrees/Bohr)
 Number     Number              X              Y              Z
 -------------------------------------------------------------------
      1        6           0.016322777   -0.004618145    0.000000000
      2        7           0.006247208   -0.003836047    0.000000000
      3        7          -0.013710771   -0.033635679    0.000000000
      4        7          -0.018720181    0.027850475    0.000000000
      5        7          -0.001681075    0.024756068    0.000000000
      6        1           0.007095891    0.001071079    0.000000000
      7        1           0.004446151   -0.011587751    0.000000000
 -------------------------------------------------------------------
 Cartesian Forces:  Max     0.033635679 RMS     0.013107928

 GradGradGradGradGradGradGradGradGradGradGradGradGradGradGradGradGradGrad
 Berny optimization.
 FormGI is forming the generalized inverse of G from B-inverse, IUseBI=4.
 Internal  Forces:  Max     0.034855533 RMS     0.010488400
 Search for a local minimum.
 Step number   1 out of a maximum of   36
 All quantities printed in internal units (Hartrees-Bohrs-Radians)
 Mixed Optimization -- RFO/linear search
 Second derivative matrix not updated -- first step.
 ITU=  0
     Eigenvalues ---    0.02505   0.02639   0.02674   0.02834   0.16000
     Eigenvalues ---    0.16000   0.22605   0.24688   0.37510   0.48741
     Eigenvalues ---    0.50870   0.56601   0.58498   0.66939   0.78934
 RFO step:  Lambda=-4.18521183D-03 EMin= 2.50488176D-02
 Linear search not attempted -- first point.
 Iteration  1 RMS(Cart)=  0.01676681 RMS(Int)=  0.00001618
 Iteration  2 RMS(Cart)=  0.00001126 RMS(Int)=  0.00001064
 Iteration  3 RMS(Cart)=  0.00000000 RMS(Int)=  0.00001064
 ClnCor:  largest displacement from symmetrization is 1.50D-11 for atom     1.
 Variable       Old X    -DE/DX   Delta X   Delta X   Delta X     New X
                                 (Linear)    (Quad)   (Total)
    R1        2.51383   0.01628   0.00000   0.02545   0.02544   2.53927
    R2        2.43626   0.02407   0.00000   0.03312   0.03311   2.46938
    R3        2.01785   0.00718   0.00000   0.01892   0.01892   2.03677
    R4        2.50598   0.01803   0.00000   0.02964   0.02964   2.53562
    R5        1.87858   0.01241   0.00000   0.02525   0.02525   1.90382
    R6        2.36600   0.03486   0.00000   0.04331   0.04333   2.40933
    R7        2.53497   0.01578   0.00000   0.02871   0.02872   2.56369
    A1        1.88804   0.00206   0.00000   0.00174   0.00172   1.88976
    A2        2.18209  -0.00091   0.00000  -0.00016  -0.00014   2.18195
    A3        2.21305  -0.00115   0.00000  -0.00159  -0.00157   2.21147
    A4        1.88509   0.00192   0.00000   0.00369   0.00368   1.88877
    A5        2.29039  -0.00088   0.00000  -0.00137  -0.00136   2.28902
    A6        2.10770  -0.00104   0.00000  -0.00232  -0.00231   2.10539
    A7        1.86199  -0.00214   0.00000  -0.00403  -0.00401   1.85798
    A8        1.94382  -0.00214   0.00000  -0.00116  -0.00113   1.94269
    A9        1.84584   0.00030   0.00000  -0.00025  -0.00025   1.84558
    D1        0.00000   0.00000   0.00000   0.00000   0.00000   0.00000
    D2        3.14159   0.00000   0.00000   0.00000   0.00000   3.14159
    D3        3.14159   0.00000   0.00000   0.00000   0.00000   3.14159
    D4        0.00000   0.00000   0.00000   0.00000   0.00000   0.00000
    D5        0.00000   0.00000   0.00000   0.00000   0.00000   0.00000
    D6        3.14159   0.00000   0.00000   0.00000   0.00000   3.14159
    D7        0.00000   0.00000   0.00000   0.00000   0.00000   0.00000
    D8        3.14159   0.00000   0.00000   0.00000   0.00000   3.14159
    D9        0.00000   0.00000   0.00000   0.00000   0.00000   0.00000
   D10        0.00000   0.00000   0.00000   0.00000   0.00000   0.00000
         Item               Value     Threshold  Converged?
 Maximum Force            0.034856     0.000450     NO 
 RMS     Force            0.010488     0.000300     NO 
 Maximum Displacement     0.038206     0.001800     NO 
 RMS     Displacement     0.016763     0.001200     NO 
 Predicted change in Energy=-2.105719D-03
 GradGradGradGradGradGradGradGradGradGradGradGradGradGradGradGradGradGrad

                          Input orientation:                          
 ---------------------------------------------------------------------
 Center     Atomic      Atomic             Coordinates (Angstroms)
 Number     Number       Type             X           Y           Z
 ---------------------------------------------------------------------
      1          6           0        1.007849    0.003624    0.000000
      2          7           0        0.388650   -1.188930    0.000000
      3          7           0       -0.935802   -0.973924    0.000000
      4          7           0       -1.096336    0.290889    0.000000
      5          7           0        0.095441    0.939081    0.000000
      6          1           0        2.076251    0.145749    0.000000
      7          1           0        0.756402   -2.126870    0.000000
 ---------------------------------------------------------------------
                    Distance matrix (angstroms):
                    1          2          3          4          5
     1  C    0.000000
     2  N    1.343724   0.000000
     3  N    2.175634   1.341790   0.000000
     4  N    2.123704   2.096437   1.274960   0.000000
     5  N    1.306739   2.148116   2.173258   1.356645   0.000000
     6  H    1.077813   2.151595   3.213429   3.175905   2.133771
     7  H    2.145282   1.007459   2.047643   3.046014   3.136387
                    6          7
     6  H    0.000000
     7  H    2.628079   0.000000
 Stoichiometry    CH2N4
 Framework group  CS[SG(CH2N4)]
 Deg. of freedom    11
 Full point group                 CS      NOp   2
 Largest Abelian subgroup         CS      NOp   2
 Largest concise Abelian subgroup C1      NOp   1
                         Standard orientation:                         
 ---------------------------------------------------------------------
 Center     Atomic      Atomic             Coordinates (Angstroms)
 Number     Number       Type             X           Y           Z
 ---------------------------------------------------------------------
      1          6           0        1.064161    0.230570    0.000000
      2          7           0        0.000000    1.051030    0.000000
      3          7           0       -1.110434    0.297812    0.000000
      4          7           0       -0.722904   -0.916826    0.000000
      5          7           0        0.631045   -1.002304    0.000000
      6          1           0        2.092926    0.552008    0.000000
      7          1           0       -0.061844    2.056589    0.000000
 ---------------------------------------------------------------------
 Rotational constants (GHZ):     10.6373340     10.4717409      5.2769440
 Standard basis: TZVP (5D, 7F)
 There are    85 symmetry adapted cartesian basis functions of A'  symmetry.
 There are    27 symmetry adapted cartesian basis functions of A"  symmetry.
 There are    80 symmetry adapted basis functions of A'  symmetry.
 There are    27 symmetry adapted basis functions of A"  symmetry.
   107 basis functions,   191 primitive gaussians,   112 cartesian basis functions
    18 alpha electrons       18 beta electrons
       nuclear repulsion energy       167.6625083963 Hartrees.
 NAtoms=    7 NActive=    7 NUniq=    7 SFac= 1.00D+00 NAtFMM=   60 NAOKFM=F Big=F
 Integral buffers will be    131072 words long.
 Raffenetti 2 integral format.
 Two-electron integral symmetry is turned on.
 One-electron integrals computed using PRISM.
 NBasis=   107 RedAO= T EigKep=  8.39D-04  NBF=    80    27
 NBsUse=   107 1.00D-06 EigRej= -1.00D+00 NBFU=    80    27
 Initial guess from the checkpoint file:  "/tmp/rdj3/g09-9462/Gau-9091.chk"
 B after Tr=     0.000000    0.000000    0.000000
         Rot=    1.000000    0.000000    0.000000   -0.000429 Ang=  -0.05 deg.
 Initial guess orbital symmetries:
       Occupied  (A') (A') (A') (A') (A') (A') (A') (A') (A') (A')
                 (A') (A") (A') (A') (A") (A") (A') (A')
       Virtual   (A') (A') (A') (A') (A') (A') (A') (A') (A') (A')
                 (A') (A') (A') (A') (A') (A') (A') (A') (A') (A')
                 (A') (A') (A') (A') (A') (A') (A') (A') (A') (A')
                 (A') (A') (A') (A') (A') (A') (A') (A') (A') (A')
                 (A') (A') (A') (A') (A') (A') (A') (A') (A') (A')
                 (A') (A') (A') (A') (A') (A') (A') (A') (A') (A')
                 (A') (A') (A') (A') (A') (A") (A") (A") (A") (A")
                 (A") (A") (A") (A") (A") (A") (A") (A") (A") (A")
                 (A") (A") (A") (A") (A") (A") (A") (A") (A")
 ExpMin= 9.52D-02 ExpMax= 1.97D+04 ExpMxC= 6.73D+02 IAcc=2 IRadAn=         4 AccDes= 0.00D+00
 Harris functional with IExCor=  408 and IRadAn=       4 diagonalized for initial guess.
 HarFok:  IExCor=  408 AccDes= 0.00D+00 IRadAn=         4 IDoV= 1 UseB2=F ITyADJ=14
 ICtDFT=  3500011 ScaDFX=  1.000000  1.000000  1.000000  1.000000
 FoFCou: FMM=F IPFlag=           0 FMFlag=      100000 FMFlg1=           0
         NFxFlg=           0 DoJE=T BraDBF=F KetDBF=T FulRan=T
         wScrn=  0.000000 ICntrl=     500 IOpCl=  0 I1Cent=   200000004 NGrid=           0
         NMat0=    1 NMatS0=      1 NMatT0=    0 NMatD0=    1 NMtDS0=    0 NMtDT0=    0
 Petite list used in FoFCou.
 Keep R1 ints in memory in symmetry-blocked form, NReq=25647217.
 Requested convergence on RMS density matrix=1.00D-08 within 128 cycles.
 Requested convergence on MAX density matrix=1.00D-06.
 Requested convergence on             energy=1.00D-06.
 No special actions if energy rises.
 Integral accuracy reduced to 1.0D-05 until final iterations.
 Initial convergence to 1.0D-05 achieved.  Increase integral accuracy.
 SCF Done:  E(RB3PW91) =  -258.236264983     A.U. after   12 cycles
            NFock= 12  Conv=0.56D-08     -V/T= 2.0042
 Calling FoFJK, ICntrl=      2127 FMM=F ISym2X=1 I1Cent= 0 IOpClX= 0 NMat=1 NMatS=1 NMatT=0.
 ***** Axes restored to original set *****
 -------------------------------------------------------------------
 Center     Atomic                   Forces (Hartrees/Bohr)
 Number     Number              X              Y              Z
 -------------------------------------------------------------------
      1        6           0.000734436   -0.002393252    0.000000000
      2        7           0.001903532    0.002573755    0.000000000
      3        7          -0.001825643   -0.007566047    0.000000000
      4        7          -0.000519406    0.005555300    0.000000000
      5        7           0.000197868    0.001749055    0.000000000
      6        1          -0.000346098    0.000044034    0.000000000
      7        1          -0.000144689    0.000037155    0.000000000
 -------------------------------------------------------------------
 Cartesian Forces:  Max     0.007566047 RMS     0.002303892

 GradGradGradGradGradGradGradGradGradGradGradGradGradGradGradGradGradGrad
 Berny optimization.
 Using GEDIIS/GDIIS optimizer.
 FormGI is forming the generalized inverse of G from B-inverse, IUseBI=4.
 Internal  Forces:  Max     0.005933103 RMS     0.001382574
 Search for a local minimum.
 Step number   2 out of a maximum of   36
 All quantities printed in internal units (Hartrees-Bohrs-Radians)
 Mixed Optimization -- RFO/linear search
 Update second derivatives using D2CorX and points    1    2
 DE= -2.23D-03 DEPred=-2.11D-03 R= 1.06D+00
 TightC=F SS=  1.41D+00  RLast= 7.98D-02 DXNew= 5.0454D-01 2.3931D-01
 Trust test= 1.06D+00 RLast= 7.98D-02 DXMaxT set to 3.00D-01
 ITU=  1  0
 Use linear search instead of GDIIS.
     Eigenvalues ---    0.02505   0.02639   0.02674   0.02834   0.15998
     Eigenvalues ---    0.16000   0.22543   0.24555   0.37737   0.48956
     Eigenvalues ---    0.50693   0.55795   0.60012   0.67321   0.72099
 RFO step:  Lambda=-6.30110201D-05 EMin= 2.50499714D-02
 Quartic linear search produced a step of  0.09743.
 Iteration  1 RMS(Cart)=  0.00234604 RMS(Int)=  0.00000728
 Iteration  2 RMS(Cart)=  0.00000685 RMS(Int)=  0.00000349
 Iteration  3 RMS(Cart)=  0.00000000 RMS(Int)=  0.00000349
 ClnCor:  largest displacement from symmetrization is 2.86D-12 for atom     1.
 Variable       Old X    -DE/DX   Delta X   Delta X   Delta X     New X
                                 (Linear)    (Quad)   (Total)
    R1        2.53927  -0.00096   0.00248  -0.00449  -0.00202   2.53725
    R2        2.46938   0.00125   0.00323  -0.00106   0.00216   2.47154
    R3        2.03677  -0.00034   0.00184  -0.00237  -0.00053   2.03624
    R4        2.53562   0.00142   0.00289   0.00034   0.00324   2.53885
    R5        1.90382  -0.00009   0.00246  -0.00210   0.00036   1.90418
    R6        2.40933   0.00593   0.00422   0.00509   0.00932   2.41864
    R7        2.56369   0.00078   0.00280  -0.00018   0.00261   2.56630
    A1        1.88976   0.00080   0.00017   0.00027   0.00043   1.89019
    A2        2.18195  -0.00031  -0.00001   0.00040   0.00038   2.18234
    A3        2.21147  -0.00048  -0.00015  -0.00067  -0.00082   2.21066
    A4        1.88877   0.00155   0.00036   0.00528   0.00564   1.89441
    A5        2.28902  -0.00065  -0.00013  -0.00183  -0.00197   2.28706
    A6        2.10539  -0.00090  -0.00023  -0.00344  -0.00367   2.10172
    A7        1.85798  -0.00215  -0.00039  -0.00706  -0.00744   1.85054
    A8        1.94269  -0.00001  -0.00011   0.00328   0.00317   1.94586
    A9        1.84558  -0.00019  -0.00002  -0.00176  -0.00180   1.84379
    D1        0.00000   0.00000   0.00000   0.00000   0.00000   0.00000
    D2        3.14159   0.00000   0.00000   0.00000   0.00000   3.14159
    D3        3.14159   0.00000   0.00000   0.00000   0.00000   3.14159
    D4        0.00000   0.00000   0.00000   0.00000   0.00000   0.00000
    D5        0.00000   0.00000   0.00000   0.00000   0.00000   0.00000
    D6        3.14159   0.00000   0.00000   0.00000   0.00000   3.14159
    D7        0.00000   0.00000   0.00000   0.00000   0.00000   0.00000
    D8        3.14159   0.00000   0.00000   0.00000   0.00000   3.14159
    D9        0.00000   0.00000   0.00000   0.00000   0.00000   0.00000
   D10        0.00000   0.00000   0.00000   0.00000   0.00000   0.00000
         Item               Value     Threshold  Converged?
 Maximum Force            0.005933     0.000450     NO 
 RMS     Force            0.001383     0.000300     NO 
 Maximum Displacement     0.008395     0.001800     NO 
 RMS     Displacement     0.002347     0.001200     NO 
 Predicted change in Energy=-4.724040D-05
 GradGradGradGradGradGradGradGradGradGradGradGradGradGradGradGradGradGrad

                          Input orientation:                          
 ---------------------------------------------------------------------
 Center     Atomic      Atomic             Coordinates (Angstroms)
 Number     Number       Type             X           Y           Z
 ---------------------------------------------------------------------
      1          6           0        1.008429    0.003375    0.000000
      2          7           0        0.388459   -1.187576    0.000000
      3          7           0       -0.938655   -0.978367    0.000000
      4          7           0       -1.096173    0.291793    0.000000
      5          7           0        0.096619    0.941012    0.000000
      6          1           0        2.076649    0.144740    0.000000
      7          1           0        0.757129   -2.125359    0.000000
 ---------------------------------------------------------------------
                    Distance matrix (angstroms):
                    1          2          3          4          5
     1  C    0.000000
     2  N    1.342657   0.000000
     3  N    2.180586   1.343503   0.000000
     4  N    2.124273   2.095868   1.279890   0.000000
     5  N    1.307884   2.148500   2.180781   1.358028   0.000000
     6  H    1.077534   2.150594   3.217675   3.176229   2.134143
     7  H    2.143515   1.007648   2.047260   3.045874   3.136702
                    6          7
     6  H    0.000000
     7  H    2.625735   0.000000
 Stoichiometry    CH2N4
 Framework group  CS[SG(CH2N4)]
 Deg. of freedom    11
 Full point group                 CS      NOp   2
 Largest Abelian subgroup         CS      NOp   2
 Largest concise Abelian subgroup C1      NOp   1
                         Standard orientation:                         
 ---------------------------------------------------------------------
 Center     Atomic      Atomic             Coordinates (Angstroms)
 Number     Number       Type             X           Y           Z
 ---------------------------------------------------------------------
      1          6           0        1.064663    0.231679    0.000000
      2          7           0        0.000000    1.049738    0.000000
      3          7           0       -1.114852    0.300002    0.000000
      4          7           0       -0.721622   -0.917983    0.000000
      5          7           0        0.633731   -1.003172    0.000000
      6          1           0        2.092756    0.554331    0.000000
      7          1           0       -0.061533    2.055505    0.000000
 ---------------------------------------------------------------------
 Rotational constants (GHZ):     10.6373947     10.4263237      5.2654008
 Standard basis: TZVP (5D, 7F)
 There are    85 symmetry adapted cartesian basis functions of A'  symmetry.
 There are    27 symmetry adapted cartesian basis functions of A"  symmetry.
 There are    80 symmetry adapted basis functions of A'  symmetry.
 There are    27 symmetry adapted basis functions of A"  symmetry.
   107 basis functions,   191 primitive gaussians,   112 cartesian basis functions
    18 alpha electrons       18 beta electrons
       nuclear repulsion energy       167.4729901400 Hartrees.
 NAtoms=    7 NActive=    7 NUniq=    7 SFac= 1.00D+00 NAtFMM=   60 NAOKFM=F Big=F
 Integral buffers will be    131072 words long.
 Raffenetti 2 integral format.
 Two-electron integral symmetry is turned on.
 One-electron integrals computed using PRISM.
 NBasis=   107 RedAO= T EigKep=  8.54D-04  NBF=    80    27
 NBsUse=   107 1.00D-06 EigRej= -1.00D+00 NBFU=    80    27
 Initial guess from the checkpoint file:  "/tmp/rdj3/g09-9462/Gau-9091.chk"
 B after Tr=     0.000000    0.000000    0.000000
         Rot=    1.000000    0.000000    0.000000   -0.000306 Ang=  -0.04 deg.
 Initial guess orbital symmetries:
       Occupied  (A') (A') (A') (A') (A') (A') (A') (A') (A') (A')
                 (A') (A") (A') (A') (A") (A") (A') (A')
       Virtual   (A') (A') (A') (A') (A') (A') (A') (A') (A') (A')
                 (A') (A') (A') (A') (A') (A') (A') (A') (A') (A')
                 (A') (A') (A') (A') (A') (A') (A') (A') (A') (A')
                 (A') (A') (A') (A') (A') (A') (A') (A') (A') (A')
                 (A') (A') (A') (A') (A') (A') (A') (A') (A') (A')
                 (A') (A') (A') (A') (A') (A') (A') (A') (A') (A')
                 (A') (A') (A') (A') (A') (A") (A") (A") (A") (A")
                 (A") (A") (A") (A") (A") (A") (A") (A") (A") (A")
                 (A") (A") (A") (A") (A") (A") (A") (A") (A")
 Keep R1 ints in memory in symmetry-blocked form, NReq=25647217.
 Requested convergence on RMS density matrix=1.00D-08 within 128 cycles.
 Requested convergence on MAX density matrix=1.00D-06.
 Requested convergence on             energy=1.00D-06.
 No special actions if energy rises.
 SCF Done:  E(RB3PW91) =  -258.236312189     A.U. after    9 cycles
            NFock=  9  Conv=0.86D-08     -V/T= 2.0042
 Calling FoFJK, ICntrl=      2127 FMM=F ISym2X=1 I1Cent= 0 IOpClX= 0 NMat=1 NMatS=1 NMatT=0.
 ***** Axes restored to original set *****
 -------------------------------------------------------------------
 Center     Atomic                   Forces (Hartrees/Bohr)
 Number     Number              X              Y              Z
 -------------------------------------------------------------------
      1        6          -0.000364577   -0.001594242    0.000000000
      2        7           0.000989722    0.000243221    0.000000000
      3        7           0.001310487   -0.000649349    0.000000000
      4        7          -0.000587187    0.002734386    0.000000000
      5        7          -0.001291009   -0.000875196    0.000000000
      6        1          -0.000114188   -0.000035021    0.000000000
      7        1           0.000056752    0.000176201    0.000000000
 -------------------------------------------------------------------
 Cartesian Forces:  Max     0.002734386 RMS     0.000877093

 GradGradGradGradGradGradGradGradGradGradGradGradGradGradGradGradGradGrad
 Berny optimization.
 Using GEDIIS/GDIIS optimizer.
 FormGI is forming the generalized inverse of G from B-inverse, IUseBI=4.
 Internal  Forces:  Max     0.001551560 RMS     0.000659124
 Search for a local minimum.
 Step number   3 out of a maximum of   36
 All quantities printed in internal units (Hartrees-Bohrs-Radians)
 Mixed Optimization -- En-DIIS/RFO-DIIS
 Update second derivatives using D2CorX and points    1    2    3
 DE= -4.72D-05 DEPred=-4.72D-05 R= 9.99D-01
 TightC=F SS=  1.41D+00  RLast= 1.52D-02 DXNew= 5.0454D-01 4.5692D-02
 Trust test= 9.99D-01 RLast= 1.52D-02 DXMaxT set to 3.00D-01
 ITU=  1  1  0
 Use linear search instead of GDIIS.
     Eigenvalues ---    0.02505   0.02638   0.02674   0.02834   0.15995
     Eigenvalues ---    0.16030   0.22746   0.33001   0.37698   0.38425
     Eigenvalues ---    0.49314   0.52169   0.62155   0.66806   0.71432
 RFO step:  Lambda=-2.70473794D-05 EMin= 2.50512848D-02
 Quartic linear search produced a step of -0.02117.
 Iteration  1 RMS(Cart)=  0.00168515 RMS(Int)=  0.00000206
 Iteration  2 RMS(Cart)=  0.00000146 RMS(Int)=  0.00000109
 Iteration  3 RMS(Cart)=  0.00000000 RMS(Int)=  0.00000109
 ClnCor:  largest displacement from symmetrization is 6.19D-13 for atom     1.
 Variable       Old X    -DE/DX   Delta X   Delta X   Delta X     New X
                                 (Linear)    (Quad)   (Total)
    R1        2.53725  -0.00155   0.00004  -0.00315  -0.00311   2.53414
    R2        2.47154   0.00081  -0.00005   0.00179   0.00175   2.47329
    R3        2.03624  -0.00012   0.00001  -0.00036  -0.00035   2.03590
    R4        2.53885   0.00002  -0.00007   0.00111   0.00104   2.53990
    R5        1.90418  -0.00014  -0.00001  -0.00006  -0.00007   1.90411
    R6        2.41864   0.00152  -0.00020   0.00477   0.00457   2.42321
    R7        2.56630  -0.00120  -0.00006  -0.00110  -0.00116   2.56514
    A1        1.89019   0.00031  -0.00001   0.00080   0.00079   1.89098
    A2        2.18234  -0.00018  -0.00001  -0.00040  -0.00041   2.18193
    A3        2.21066  -0.00013   0.00002  -0.00040  -0.00038   2.21027
    A4        1.89441  -0.00055  -0.00012  -0.00115  -0.00127   1.89313
    A5        2.28706   0.00017   0.00004   0.00017   0.00021   2.28727
    A6        2.10172   0.00038   0.00008   0.00098   0.00106   2.10278
    A7        1.85054   0.00097   0.00016   0.00237   0.00252   1.85306
    A8        1.94586  -0.00151  -0.00007  -0.00434  -0.00440   1.94146
    A9        1.84379   0.00078   0.00004   0.00232   0.00236   1.84615
    D1        0.00000   0.00000   0.00000   0.00000   0.00000   0.00000
    D2        3.14159   0.00000   0.00000   0.00000   0.00000   3.14159
    D3        3.14159   0.00000   0.00000   0.00000   0.00000   3.14159
    D4        0.00000   0.00000   0.00000   0.00000   0.00000   0.00000
    D5        0.00000   0.00000   0.00000   0.00000   0.00000   0.00000
    D6        3.14159   0.00000   0.00000   0.00000   0.00000   3.14159
    D7        0.00000   0.00000   0.00000   0.00000   0.00000   0.00000
    D8        3.14159   0.00000   0.00000   0.00000   0.00000   3.14159
    D9        0.00000   0.00000   0.00000   0.00000   0.00000   0.00000
   D10        0.00000   0.00000   0.00000   0.00000   0.00000   0.00000
         Item               Value     Threshold  Converged?
 Maximum Force            0.001552     0.000450     NO 
 RMS     Force            0.000659     0.000300     NO 
 Maximum Displacement     0.005081     0.001800     NO 
 RMS     Displacement     0.001685     0.001200     NO 
 Predicted change in Energy=-1.354611D-05
 GradGradGradGradGradGradGradGradGradGradGradGradGradGradGradGradGradGrad

                          Input orientation:                          
 ---------------------------------------------------------------------
 Center     Atomic      Atomic             Coordinates (Angstroms)
 Number     Number       Type             X           Y           Z
 ---------------------------------------------------------------------
      1          6           0        1.008095    0.002055    0.000000
      2          7           0        0.389692   -1.187856    0.000000
      3          7           0       -0.937843   -0.977771    0.000000
      4          7           0       -1.098111    0.294482    0.000000
      5          7           0        0.095745    0.940456    0.000000
      6          1           0        2.076096    0.143687    0.000000
      7          1           0        0.758784   -2.125434    0.000000
 ---------------------------------------------------------------------
                    Distance matrix (angstroms):
                    1          2          3          4          5
     1  C    0.000000
     2  N    1.341011   0.000000
     3  N    2.178700   1.344055   0.000000
     4  N    2.126409   2.100210   1.282307   0.000000
     5  N    1.308808   2.148515   2.178968   1.357415   0.000000
     6  H    1.077351   2.148713   3.215820   3.177786   2.134626
     7  H    2.142047   1.007611   2.048334   3.050254   3.136766
                    6          7
     6  H    0.000000
     7  H    2.623781   0.000000
 Stoichiometry    CH2N4
 Framework group  CS[SG(CH2N4)]
 Deg. of freedom    11
 Full point group                 CS      NOp   2
 Largest Abelian subgroup         CS      NOp   2
 Largest concise Abelian subgroup C1      NOp   1
                         Standard orientation:                         
 ---------------------------------------------------------------------
 Center     Atomic      Atomic             Coordinates (Angstroms)
 Number     Number       Type             X           Y           Z
 ---------------------------------------------------------------------
      1          6           0        1.063630    0.234088    0.000000
      2          7           0        0.000000    1.050790    0.000000
      3          7           0       -1.114105    0.298955    0.000000
      4          7           0       -0.721249   -0.921691    0.000000
      5          7           0        0.633781   -1.002120    0.000000
      6          1           0        2.091310    0.557444    0.000000
      7          1           0       -0.062081    2.056487    0.000000
 ---------------------------------------------------------------------
 Rotational constants (GHZ):     10.6041265     10.4484093      5.2628460
 Standard basis: TZVP (5D, 7F)
 There are    85 symmetry adapted cartesian basis functions of A'  symmetry.
 There are    27 symmetry adapted cartesian basis functions of A"  symmetry.
 There are    80 symmetry adapted basis functions of A'  symmetry.
 There are    27 symmetry adapted basis functions of A"  symmetry.
   107 basis functions,   191 primitive gaussians,   112 cartesian basis functions
    18 alpha electrons       18 beta electrons
       nuclear repulsion energy       167.4266015260 Hartrees.
 NAtoms=    7 NActive=    7 NUniq=    7 SFac= 1.00D+00 NAtFMM=   60 NAOKFM=F Big=F
 Integral buffers will be    131072 words long.
 Raffenetti 2 integral format.
 Two-electron integral symmetry is turned on.
 One-electron integrals computed using PRISM.
 NBasis=   107 RedAO= T EigKep=  8.57D-04  NBF=    80    27
 NBsUse=   107 1.00D-06 EigRej= -1.00D+00 NBFU=    80    27
 Initial guess from the checkpoint file:  "/tmp/rdj3/g09-9462/Gau-9091.chk"
 B after Tr=     0.000000    0.000000    0.000000
         Rot=    1.000000    0.000000    0.000000   -0.000552 Ang=  -0.06 deg.
 Initial guess orbital symmetries:
       Occupied  (A') (A') (A') (A') (A') (A') (A') (A') (A') (A')
                 (A') (A") (A') (A') (A") (A") (A') (A')
       Virtual   (A') (A') (A') (A') (A') (A') (A') (A') (A') (A')
                 (A') (A') (A') (A') (A') (A') (A') (A') (A') (A')
                 (A') (A') (A') (A') (A') (A') (A') (A') (A') (A')
                 (A') (A') (A') (A') (A') (A') (A') (A') (A') (A')
                 (A') (A') (A') (A') (A') (A') (A') (A') (A') (A')
                 (A') (A') (A') (A') (A') (A') (A') (A') (A') (A')
                 (A') (A') (A') (A') (A') (A") (A") (A") (A") (A")
                 (A") (A") (A") (A") (A") (A") (A") (A") (A") (A")
                 (A") (A") (A") (A") (A") (A") (A") (A") (A")
 Keep R1 ints in memory in symmetry-blocked form, NReq=25647217.
 Requested convergence on RMS density matrix=1.00D-08 within 128 cycles.
 Requested convergence on MAX density matrix=1.00D-06.
 Requested convergence on             energy=1.00D-06.
 No special actions if energy rises.
 SCF Done:  E(RB3PW91) =  -258.236319626     A.U. after    9 cycles
            NFock=  9  Conv=0.65D-08     -V/T= 2.0043
 Calling FoFJK, ICntrl=      2127 FMM=F ISym2X=1 I1Cent= 0 IOpClX= 0 NMat=1 NMatS=1 NMatT=0.
 ***** Axes restored to original set *****
 -------------------------------------------------------------------
 Center     Atomic                   Forces (Hartrees/Bohr)
 Number     Number              X              Y              Z
 -------------------------------------------------------------------
      1        6          -0.000276039    0.000043741    0.000000000
      2        7          -0.000914703    0.000713494    0.000000000
      3        7          -0.000021798   -0.000181804    0.000000000
      4        7           0.002030918   -0.000521875    0.000000000
      5        7          -0.000693808   -0.000280885    0.000000000
      6        1          -0.000001409    0.000121147    0.000000000
      7        1          -0.000123162    0.000106182    0.000000000
 -------------------------------------------------------------------
 Cartesian Forces:  Max     0.002030918 RMS     0.000554452

 GradGradGradGradGradGradGradGradGradGradGradGradGradGradGradGradGradGrad
 Berny optimization.
 Using GEDIIS/GDIIS optimizer.
 FormGI is forming the generalized inverse of G from B-inverse, IUseBI=4.
 Internal  Forces:  Max     0.001061068 RMS     0.000429334
 Search for a local minimum.
 Step number   4 out of a maximum of   36
 All quantities printed in internal units (Hartrees-Bohrs-Radians)
 Mixed Optimization -- En-DIIS/RFO-DIIS
 Swapping is turned off.
 Update second derivatives using D2CorX and points    1    2    3    4
 DE= -7.44D-06 DEPred=-1.35D-05 R= 5.49D-01
 TightC=F SS=  1.41D+00  RLast= 8.44D-03 DXNew= 5.0454D-01 2.5312D-02
 Trust test= 5.49D-01 RLast= 8.44D-03 DXMaxT set to 3.00D-01
 ITU=  1  1  1  0
     Eigenvalues ---    0.02505   0.02638   0.02675   0.02834   0.15922
     Eigenvalues ---    0.16030   0.22793   0.31210   0.37662   0.48441
     Eigenvalues ---    0.50699   0.52733   0.60891   0.66537   0.73397
 En-DIIS/RFO-DIIS IScMMF=        0 using points:     4    3
 RFO step:  Lambda=-5.92836958D-06.
 DidBck=T Rises=F RFO-DIIS coefs:    0.69369    0.30631
 Iteration  1 RMS(Cart)=  0.00067855 RMS(Int)=  0.00000045
 Iteration  2 RMS(Cart)=  0.00000029 RMS(Int)=  0.00000029
 ClnCor:  largest displacement from symmetrization is 4.91D-14 for atom     1.
 Variable       Old X    -DE/DX   Delta X   Delta X   Delta X     New X
                                 (Linear)    (Quad)   (Total)
    R1        2.53414  -0.00001   0.00095  -0.00118  -0.00023   2.53392
    R2        2.47329  -0.00058  -0.00054   0.00003  -0.00050   2.47279
    R3        2.03590   0.00002   0.00011  -0.00010   0.00001   2.03591
    R4        2.53990  -0.00089  -0.00032  -0.00079  -0.00111   2.53878
    R5        1.90411  -0.00014   0.00002  -0.00028  -0.00026   1.90385
    R6        2.42321  -0.00060  -0.00140   0.00076  -0.00064   2.42257
    R7        2.56514  -0.00106   0.00035  -0.00201  -0.00165   2.56349
    A1        1.89098  -0.00012  -0.00024   0.00014  -0.00010   1.89088
    A2        2.18193   0.00017   0.00012   0.00037   0.00050   2.18243
    A3        2.21027  -0.00006   0.00012  -0.00051  -0.00039   2.20988
    A4        1.89313   0.00035   0.00039   0.00028   0.00067   1.89381
    A5        2.28727  -0.00010  -0.00007  -0.00005  -0.00011   2.28716
    A6        2.10278  -0.00025  -0.00032  -0.00024  -0.00056   2.10222
    A7        1.85306  -0.00078  -0.00077  -0.00067  -0.00145   1.85161
    A8        1.94146   0.00103   0.00135   0.00045   0.00180   1.94325
    A9        1.84615  -0.00048  -0.00072  -0.00020  -0.00092   1.84523
    D1        0.00000   0.00000   0.00000   0.00000   0.00000   0.00000
    D2        3.14159   0.00000   0.00000   0.00000   0.00000   3.14159
    D3        3.14159   0.00000   0.00000   0.00000   0.00000   3.14159
    D4        0.00000   0.00000   0.00000   0.00000   0.00000   0.00000
    D5        0.00000   0.00000   0.00000   0.00000   0.00000   0.00000
    D6        3.14159   0.00000   0.00000   0.00000   0.00000   3.14159
    D7        0.00000   0.00000   0.00000   0.00000   0.00000   0.00000
    D8        3.14159   0.00000   0.00000   0.00000   0.00000   3.14159
    D9        0.00000   0.00000   0.00000   0.00000   0.00000   0.00000
   D10        0.00000   0.00000   0.00000   0.00000   0.00000   0.00000
         Item               Value     Threshold  Converged?
 Maximum Force            0.001061     0.000450     NO 
 RMS     Force            0.000429     0.000300     NO 
 Maximum Displacement     0.002578     0.001800     NO 
 RMS     Displacement     0.000679     0.001200     YES
 Predicted change in Energy=-3.703602D-06
 GradGradGradGradGradGradGradGradGradGradGradGradGradGradGradGradGradGrad

                          Input orientation:                          
 ---------------------------------------------------------------------
 Center     Atomic      Atomic             Coordinates (Angstroms)
 Number     Number       Type             X           Y           Z
 ---------------------------------------------------------------------
      1          6           0        1.007873    0.002095    0.000000
      2          7           0        0.389260   -1.187571    0.000000
      3          7           0       -0.937788   -0.978176    0.000000
      4          7           0       -1.096747    0.293898    0.000000
      5          7           0        0.095822    0.940414    0.000000
      6          1           0        2.075840    0.144021    0.000000
      7          1           0        0.758197   -2.125063    0.000000
 ---------------------------------------------------------------------
                    Distance matrix (angstroms):
                    1          2          3          4          5
     1  C    0.000000
     2  N    1.340890   0.000000
     3  N    2.178653   1.343467   0.000000
     4  N    2.124753   2.098324   1.281967   0.000000
     5  N    1.308542   2.148121   2.179297   1.356541   0.000000
     6  H    1.077356   2.148881   3.215786   3.176125   2.134177
     7  H    2.141761   1.007476   2.047369   3.048310   3.136223
                    6          7
     6  H    0.000000
     7  H    2.623914   0.000000
 Stoichiometry    CH2N4
 Framework group  CS[SG(CH2N4)]
 Deg. of freedom    11
 Full point group                 CS      NOp   2
 Largest Abelian subgroup         CS      NOp   2
 Largest concise Abelian subgroup C1      NOp   1
                         Standard orientation:                         
 ---------------------------------------------------------------------
 Center     Atomic      Atomic             Coordinates (Angstroms)
 Number     Number       Type             X           Y           Z
 ---------------------------------------------------------------------
      1          6           0        1.063442    0.233431    0.000000
      2          7           0        0.000000    1.050180    0.000000
      3          7           0       -1.114208    0.299551    0.000000
      4          7           0       -0.720652   -0.920512    0.000000
      5          7           0        0.633413   -1.002432    0.000000
      6          1           0        2.091323    0.556160    0.000000
      7          1           0       -0.061846    2.055755    0.000000
 ---------------------------------------------------------------------
 Rotational constants (GHZ):     10.6195132     10.4470564      5.2662894
 Standard basis: TZVP (5D, 7F)
 There are    85 symmetry adapted cartesian basis functions of A'  symmetry.
 There are    27 symmetry adapted cartesian basis functions of A"  symmetry.
 There are    80 symmetry adapted basis functions of A'  symmetry.
 There are    27 symmetry adapted basis functions of A"  symmetry.
   107 basis functions,   191 primitive gaussians,   112 cartesian basis functions
    18 alpha electrons       18 beta electrons
       nuclear repulsion energy       167.4809241605 Hartrees.
 NAtoms=    7 NActive=    7 NUniq=    7 SFac= 1.00D+00 NAtFMM=   60 NAOKFM=F Big=F
 Integral buffers will be    131072 words long.
 Raffenetti 2 integral format.
 Two-electron integral symmetry is turned on.
 One-electron integrals computed using PRISM.
 NBasis=   107 RedAO= T EigKep=  8.56D-04  NBF=    80    27
 NBsUse=   107 1.00D-06 EigRej= -1.00D+00 NBFU=    80    27
 Initial guess from the checkpoint file:  "/tmp/rdj3/g09-9462/Gau-9091.chk"
 B after Tr=     0.000000    0.000000    0.000000
         Rot=    1.000000    0.000000    0.000000    0.000167 Ang=   0.02 deg.
 Initial guess orbital symmetries:
       Occupied  (A') (A') (A') (A') (A') (A') (A') (A') (A') (A')
                 (A') (A") (A') (A') (A") (A") (A') (A')
       Virtual   (A') (A') (A') (A') (A') (A') (A') (A') (A') (A')
                 (A') (A') (A') (A') (A') (A') (A') (A') (A') (A')
                 (A') (A') (A') (A') (A') (A') (A') (A') (A') (A')
                 (A') (A') (A') (A') (A') (A') (A') (A') (A') (A')
                 (A') (A') (A') (A') (A') (A') (A') (A') (A') (A')
                 (A') (A') (A') (A') (A') (A') (A') (A') (A') (A')
                 (A') (A') (A') (A') (A') (A") (A") (A") (A") (A")
                 (A") (A") (A") (A") (A") (A") (A") (A") (A") (A")
                 (A") (A") (A") (A") (A") (A") (A") (A") (A")
 Keep R1 ints in memory in symmetry-blocked form, NReq=25647217.
 Requested convergence on RMS density matrix=1.00D-08 within 128 cycles.
 Requested convergence on MAX density matrix=1.00D-06.
 Requested convergence on             energy=1.00D-06.
 No special actions if energy rises.
 SCF Done:  E(RB3PW91) =  -258.236324003     A.U. after    8 cycles
            NFock=  8  Conv=0.96D-08     -V/T= 2.0042
 Calling FoFJK, ICntrl=      2127 FMM=F ISym2X=1 I1Cent= 0 IOpClX= 0 NMat=1 NMatS=1 NMatT=0.
 ***** Axes restored to original set *****
 -------------------------------------------------------------------
 Center     Atomic                   Forces (Hartrees/Bohr)
 Number     Number              X              Y              Z
 -------------------------------------------------------------------
      1        6           0.000241741   -0.000099194    0.000000000
      2        7          -0.000303404    0.000175419    0.000000000
      3        7           0.000154333   -0.000012560    0.000000000
      4        7           0.000495683    0.000196999    0.000000000
      5        7          -0.000606976   -0.000308721    0.000000000
      6        1           0.000009245    0.000039178    0.000000000
      7        1           0.000009377    0.000008880    0.000000000
 -------------------------------------------------------------------
 Cartesian Forces:  Max     0.000606976 RMS     0.000214377

 GradGradGradGradGradGradGradGradGradGradGradGradGradGradGradGradGradGrad
 Berny optimization.
 Using GEDIIS/GDIIS optimizer.
 FormGI is forming the generalized inverse of G from B-inverse, IUseBI=4.
 Internal  Forces:  Max     0.000523817 RMS     0.000123644
 Search for a local minimum.
 Step number   5 out of a maximum of   36
 All quantities printed in internal units (Hartrees-Bohrs-Radians)
 Mixed Optimization -- En-DIIS/RFO-DIIS
 Swapping is turned off.
 Update second derivatives using D2CorX and points    1    2    3    4    5
 DE= -4.38D-06 DEPred=-3.70D-06 R= 1.18D+00
 TightC=F SS=  1.41D+00  RLast= 3.48D-03 DXNew= 5.0454D-01 1.0448D-02
 Trust test= 1.18D+00 RLast= 3.48D-03 DXMaxT set to 3.00D-01
 ITU=  1  1  1  1  0
     Eigenvalues ---    0.02505   0.02638   0.02675   0.02834   0.15608
     Eigenvalues ---    0.16044   0.20988   0.32388   0.37910   0.45865
     Eigenvalues ---    0.50489   0.51873   0.55584   0.66213   0.77301
 En-DIIS/RFO-DIIS IScMMF=        0 using points:     5    4    3
 RFO step:  Lambda=-6.94971569D-07.
 DidBck=F Rises=F RFO-DIIS coefs:    1.42648   -0.31421   -0.11228
 Iteration  1 RMS(Cart)=  0.00034368 RMS(Int)=  0.00000010
 Iteration  2 RMS(Cart)=  0.00000008 RMS(Int)=  0.00000006
 ClnCor:  largest displacement from symmetrization is 5.55D-14 for atom     1.
 Variable       Old X    -DE/DX   Delta X   Delta X   Delta X     New X
                                 (Linear)    (Quad)   (Total)
    R1        2.53392  -0.00005  -0.00045   0.00011  -0.00034   2.53358
    R2        2.47279   0.00007  -0.00002   0.00025   0.00023   2.47302
    R3        2.03591   0.00002  -0.00004   0.00005   0.00001   2.03592
    R4        2.53878  -0.00021  -0.00036  -0.00016  -0.00052   2.53827
    R5        1.90385  -0.00001  -0.00012   0.00005  -0.00007   1.90379
    R6        2.42257  -0.00007   0.00024  -0.00007   0.00017   2.42274
    R7        2.56349  -0.00052  -0.00083  -0.00078  -0.00161   2.56188
    A1        1.89088  -0.00018   0.00004  -0.00091  -0.00087   1.89001
    A2        2.18243   0.00012   0.00017   0.00061   0.00077   2.18320
    A3        2.20988   0.00006  -0.00021   0.00031   0.00010   2.20997
    A4        1.89381   0.00005   0.00014   0.00045   0.00059   1.89440
    A5        2.28716  -0.00003  -0.00002  -0.00030  -0.00032   2.28684
    A6        2.10222  -0.00002  -0.00012  -0.00015  -0.00027   2.10195
    A7        1.85161  -0.00003  -0.00033  -0.00010  -0.00043   1.85118
    A8        1.94325   0.00006   0.00027  -0.00018   0.00010   1.94335
    A9        1.84523   0.00010  -0.00013   0.00074   0.00061   1.84584
    D1        0.00000   0.00000   0.00000   0.00000   0.00000   0.00000
    D2        3.14159   0.00000   0.00000   0.00000   0.00000   3.14159
    D3        3.14159   0.00000   0.00000   0.00000   0.00000   3.14159
    D4        0.00000   0.00000   0.00000   0.00000   0.00000   0.00000
    D5        0.00000   0.00000   0.00000   0.00000   0.00000   0.00000
    D6        3.14159   0.00000   0.00000   0.00000   0.00000   3.14159
    D7        0.00000   0.00000   0.00000   0.00000   0.00000   0.00000
    D8        3.14159   0.00000   0.00000   0.00000   0.00000   3.14159
    D9        0.00000   0.00000   0.00000   0.00000   0.00000   0.00000
   D10        0.00000   0.00000   0.00000   0.00000   0.00000   0.00000
         Item               Value     Threshold  Converged?
 Maximum Force            0.000524     0.000450     NO 
 RMS     Force            0.000124     0.000300     YES
 Maximum Displacement     0.000975     0.001800     YES
 RMS     Displacement     0.000344     0.001200     YES
 Predicted change in Energy=-6.329301D-07
 GradGradGradGradGradGradGradGradGradGradGradGradGradGradGradGradGradGrad

                          Input orientation:                          
 ---------------------------------------------------------------------
 Center     Atomic      Atomic             Coordinates (Angstroms)
 Number     Number       Type             X           Y           Z
 ---------------------------------------------------------------------
      1          6           0        1.008082    0.001923    0.000000
      2          7           0        0.389080   -1.187338    0.000000
      3          7           0       -0.937738   -0.978248    0.000000
      4          7           0       -1.096407    0.293954    0.000000
      5          7           0        0.095501    0.939898    0.000000
      6          1           0        2.076002    0.144254    0.000000
      7          1           0        0.757937   -2.124825    0.000000
 ---------------------------------------------------------------------
                    Distance matrix (angstroms):
                    1          2          3          4          5
     1  C    0.000000
     2  N    1.340711   0.000000
     3  N    2.178750   1.343193   0.000000
     4  N    2.124654   2.097833   1.282059   0.000000
     5  N    1.308664   2.147399   2.178731   1.355687   0.000000
     6  H    1.077363   2.149149   3.215997   3.175939   2.134346
     7  H    2.141408   1.007440   2.046938   3.047800   3.135498
                    6          7
     6  H    0.000000
     7  H    2.624121   0.000000
 Stoichiometry    CH2N4
 Framework group  CS[SG(CH2N4)]
 Deg. of freedom    11
 Full point group                 CS      NOp   2
 Largest Abelian subgroup         CS      NOp   2
 Largest concise Abelian subgroup C1      NOp   1
                         Standard orientation:                         
 ---------------------------------------------------------------------
 Center     Atomic      Atomic             Coordinates (Angstroms)
 Number     Number       Type             X           Y           Z
 ---------------------------------------------------------------------
      1          6           0        1.063589    0.233560    0.000000
      2          7           0        0.000000    1.049822    0.000000
      3          7           0       -1.114159    0.299611    0.000000
      4          7           0       -0.720336   -0.920462    0.000000
      5          7           0        0.632885   -1.002197    0.000000
      6          1           0        2.091613    0.555861    0.000000
      7          1           0       -0.061876    2.055360    0.000000
 ---------------------------------------------------------------------
 Rotational constants (GHZ):     10.6223794     10.4510614      5.2680120
 Standard basis: TZVP (5D, 7F)
 There are    85 symmetry adapted cartesian basis functions of A'  symmetry.
 There are    27 symmetry adapted cartesian basis functions of A"  symmetry.
 There are    80 symmetry adapted basis functions of A'  symmetry.
 There are    27 symmetry adapted basis functions of A"  symmetry.
   107 basis functions,   191 primitive gaussians,   112 cartesian basis functions
    18 alpha electrons       18 beta electrons
       nuclear repulsion energy       167.5069943989 Hartrees.
 NAtoms=    7 NActive=    7 NUniq=    7 SFac= 1.00D+00 NAtFMM=   60 NAOKFM=F Big=F
 Integral buffers will be    131072 words long.
 Raffenetti 2 integral format.
 Two-electron integral symmetry is turned on.
 One-electron integrals computed using PRISM.
 NBasis=   107 RedAO= T EigKep=  8.54D-04  NBF=    80    27
 NBsUse=   107 1.00D-06 EigRej= -1.00D+00 NBFU=    80    27
 Initial guess from the checkpoint file:  "/tmp/rdj3/g09-9462/Gau-9091.chk"
 B after Tr=     0.000000    0.000000    0.000000
         Rot=    1.000000    0.000000    0.000000    0.000015 Ang=   0.00 deg.
 Initial guess orbital symmetries:
       Occupied  (A') (A') (A') (A') (A') (A') (A') (A') (A') (A')
                 (A') (A") (A') (A') (A") (A") (A') (A')
       Virtual   (A') (A') (A') (A') (A') (A') (A') (A') (A') (A')
                 (A') (A') (A') (A') (A') (A') (A') (A') (A') (A')
                 (A') (A') (A') (A') (A') (A') (A') (A') (A') (A')
                 (A') (A') (A') (A') (A') (A') (A') (A') (A') (A')
                 (A') (A') (A') (A') (A') (A') (A') (A') (A') (A')
                 (A') (A') (A') (A') (A') (A') (A') (A') (A') (A')
                 (A') (A') (A') (A') (A') (A") (A") (A") (A") (A")
                 (A") (A") (A") (A") (A") (A") (A") (A") (A") (A")
                 (A") (A") (A") (A") (A") (A") (A") (A") (A")
 Keep R1 ints in memory in symmetry-blocked form, NReq=25647217.
 Requested convergence on RMS density matrix=1.00D-08 within 128 cycles.
 Requested convergence on MAX density matrix=1.00D-06.
 Requested convergence on             energy=1.00D-06.
 No special actions if energy rises.
 SCF Done:  E(RB3PW91) =  -258.236324725     A.U. after    8 cycles
            NFock=  8  Conv=0.75D-08     -V/T= 2.0042
 Calling FoFJK, ICntrl=      2127 FMM=F ISym2X=1 I1Cent= 0 IOpClX= 0 NMat=1 NMatS=1 NMatT=0.
 ***** Axes restored to original set *****
 -------------------------------------------------------------------
 Center     Atomic                   Forces (Hartrees/Bohr)
 Number     Number              X              Y              Z
 -------------------------------------------------------------------
      1        6           0.000071450   -0.000000365    0.000000000
      2        7          -0.000074042   -0.000180482    0.000000000
      3        7           0.000110667   -0.000017187    0.000000000
      4        7           0.000099584    0.000130269    0.000000000
      5        7          -0.000223764    0.000092852    0.000000000
      6        1          -0.000009074    0.000005654    0.000000000
      7        1           0.000025179   -0.000030741    0.000000000
 -------------------------------------------------------------------
 Cartesian Forces:  Max     0.000223764 RMS     0.000082513

 GradGradGradGradGradGradGradGradGradGradGradGradGradGradGradGradGradGrad
 Berny optimization.
 Using GEDIIS/GDIIS optimizer.
 FormGI is forming the generalized inverse of G from B-inverse, IUseBI=4.
 Internal  Forces:  Max     0.000157209 RMS     0.000060526
 Search for a local minimum.
 Step number   6 out of a maximum of   36
 All quantities printed in internal units (Hartrees-Bohrs-Radians)
 Mixed Optimization -- En-DIIS/RFO-DIIS
 Swapping is turned off.
 Update second derivatives using D2CorX and points    1    2    3    4    5
                                                      6
 DE= -7.22D-07 DEPred=-6.33D-07 R= 1.14D+00
 Trust test= 1.14D+00 RLast= 2.35D-03 DXMaxT set to 3.00D-01
 ITU=  0  1  1  1  1  0
     Eigenvalues ---    0.02505   0.02638   0.02675   0.02834   0.15209
     Eigenvalues ---    0.16050   0.21167   0.30231   0.38012   0.41840
     Eigenvalues ---    0.49807   0.52350   0.54600   0.70663   0.77140
 En-DIIS/RFO-DIIS IScMMF=        0 using points:     6    5    4    3
 RFO step:  Lambda=-1.41766468D-07.
 DidBck=F Rises=F RFO-DIIS coefs:    0.93860    0.22322   -0.09843   -0.06339
 Iteration  1 RMS(Cart)=  0.00012873 RMS(Int)=  0.00000003
 Iteration  2 RMS(Cart)=  0.00000000 RMS(Int)=  0.00000003
 ClnCor:  largest displacement from symmetrization is 5.15D-14 for atom     1.
 Variable       Old X    -DE/DX   Delta X   Delta X   Delta X     New X
                                 (Linear)    (Quad)   (Total)
    R1        2.53358   0.00011  -0.00021   0.00030   0.00009   2.53366
    R2        2.47302   0.00016   0.00002   0.00024   0.00025   2.47327
    R3        2.03592  -0.00001  -0.00002  -0.00001  -0.00003   2.03589
    R4        2.53827  -0.00006  -0.00008  -0.00009  -0.00017   2.53809
    R5        1.90379   0.00004  -0.00004   0.00009   0.00004   1.90383
    R6        2.42274   0.00009   0.00017   0.00003   0.00021   2.42295
    R7        2.56188  -0.00014  -0.00024  -0.00028  -0.00052   2.56136
    A1        1.89001   0.00004   0.00009  -0.00001   0.00007   1.89008
    A2        2.18320  -0.00002   0.00001   0.00003   0.00003   2.18323
    A3        2.20997  -0.00002  -0.00009  -0.00001  -0.00011   2.20987
    A4        1.89440  -0.00010  -0.00001  -0.00016  -0.00017   1.89423
    A5        2.28684   0.00004   0.00002   0.00005   0.00006   2.28690
    A6        2.10195   0.00005  -0.00001   0.00011   0.00010   2.10205
    A7        1.85118   0.00008  -0.00005   0.00011   0.00006   1.85124
    A8        1.94335   0.00002   0.00001   0.00010   0.00010   1.94346
    A9        1.84584  -0.00004  -0.00004  -0.00004  -0.00007   1.84576
    D1        0.00000   0.00000   0.00000   0.00000   0.00000   0.00000
    D2        3.14159   0.00000   0.00000   0.00000   0.00000   3.14159
    D3        3.14159   0.00000   0.00000   0.00000   0.00000   3.14159
    D4        0.00000   0.00000   0.00000   0.00000   0.00000   0.00000
    D5        0.00000   0.00000   0.00000   0.00000   0.00000   0.00000
    D6        3.14159   0.00000   0.00000   0.00000   0.00000   3.14159
    D7        0.00000   0.00000   0.00000   0.00000   0.00000   0.00000
    D8        3.14159   0.00000   0.00000   0.00000   0.00000   3.14159
    D9        0.00000   0.00000   0.00000   0.00000   0.00000   0.00000
   D10        0.00000   0.00000   0.00000   0.00000   0.00000   0.00000
         Item               Value     Threshold  Converged?
 Maximum Force            0.000157     0.000450     YES
 RMS     Force            0.000061     0.000300     YES
 Maximum Displacement     0.000286     0.001800     YES
 RMS     Displacement     0.000129     0.001200     YES
 Predicted change in Energy=-1.096316D-07
 Optimization completed.
    -- Stationary point found.
                           ----------------------------
                           !   Optimized Parameters   !
                           ! (Angstroms and Degrees)  !
 --------------------------                            --------------------------
 ! Name  Definition              Value          Derivative Info.                !
 --------------------------------------------------------------------------------
 ! R1    R(1,2)                  1.3407         -DE/DX =    0.0001              !
 ! R2    R(1,5)                  1.3087         -DE/DX =    0.0002              !
 ! R3    R(1,6)                  1.0774         -DE/DX =    0.0                 !
 ! R4    R(2,3)                  1.3432         -DE/DX =   -0.0001              !
 ! R5    R(2,7)                  1.0074         -DE/DX =    0.0                 !
 ! R6    R(3,4)                  1.2821         -DE/DX =    0.0001              !
 ! R7    R(4,5)                  1.3557         -DE/DX =   -0.0001              !
 ! A1    A(2,1,5)              108.2895         -DE/DX =    0.0                 !
 ! A2    A(2,1,6)              125.0882         -DE/DX =    0.0                 !
 ! A3    A(5,1,6)              126.6222         -DE/DX =    0.0                 !
 ! A4    A(1,2,3)              108.5412         -DE/DX =   -0.0001              !
 ! A5    A(1,2,7)              131.026          -DE/DX =    0.0                 !
 ! A6    A(3,2,7)              120.4328         -DE/DX =    0.0001              !
 ! A7    A(2,3,4)              106.0647         -DE/DX =    0.0001              !
 ! A8    A(3,4,5)              111.3459         -DE/DX =    0.0                 !
 ! A9    A(1,5,4)              105.7587         -DE/DX =    0.0                 !
 ! D1    D(5,1,2,3)              0.0            -DE/DX =    0.0                 !
 ! D2    D(5,1,2,7)            180.0            -DE/DX =    0.0                 !
 ! D3    D(6,1,2,3)            180.0            -DE/DX =    0.0                 !
 ! D4    D(6,1,2,7)              0.0            -DE/DX =    0.0                 !
 ! D5    D(2,1,5,4)              0.0            -DE/DX =    0.0                 !
 ! D6    D(6,1,5,4)            180.0            -DE/DX =    0.0                 !
 ! D7    D(1,2,3,4)              0.0            -DE/DX =    0.0                 !
 ! D8    D(7,2,3,4)            180.0            -DE/DX =    0.0                 !
 ! D9    D(2,3,4,5)              0.0            -DE/DX =    0.0                 !
 ! D10   D(3,4,5,1)              0.0            -DE/DX =    0.0                 !
 --------------------------------------------------------------------------------
 GradGradGradGradGradGradGradGradGradGradGradGradGradGradGradGradGradGrad

                          Input orientation:                          
 ---------------------------------------------------------------------
 Center     Atomic      Atomic             Coordinates (Angstroms)
 Number     Number       Type             X           Y           Z
 ---------------------------------------------------------------------
      1          6           0        1.008082    0.001923    0.000000
      2          7           0        0.389080   -1.187338    0.000000
      3          7           0       -0.937738   -0.978248    0.000000
      4          7           0       -1.096407    0.293954    0.000000
      5          7           0        0.095501    0.939898    0.000000
      6          1           0        2.076002    0.144254    0.000000
      7          1           0        0.757937   -2.124825    0.000000
 ---------------------------------------------------------------------
                    Distance matrix (angstroms):
                    1          2          3          4          5
     1  C    0.000000
     2  N    1.340711   0.000000
     3  N    2.178750   1.343193   0.000000
     4  N    2.124654   2.097833   1.282059   0.000000
     5  N    1.308664   2.147399   2.178731   1.355687   0.000000
     6  H    1.077363   2.149149   3.215997   3.175939   2.134346
     7  H    2.141408   1.007440   2.046938   3.047800   3.135498
                    6          7
     6  H    0.000000
     7  H    2.624121   0.000000
 Stoichiometry    CH2N4
 Framework group  CS[SG(CH2N4)]
 Deg. of freedom    11
 Full point group                 CS      NOp   2
 Largest Abelian subgroup         CS      NOp   2
 Largest concise Abelian subgroup C1      NOp   1
                         Standard orientation:                         
 ---------------------------------------------------------------------
 Center     Atomic      Atomic             Coordinates (Angstroms)
 Number     Number       Type             X           Y           Z
 ---------------------------------------------------------------------
      1          6           0        1.063589    0.233560    0.000000
      2          7           0        0.000000    1.049822    0.000000
      3          7           0       -1.114159    0.299611    0.000000
      4          7           0       -0.720336   -0.920462    0.000000
      5          7           0        0.632885   -1.002197    0.000000
      6          1           0        2.091613    0.555861    0.000000
      7          1           0       -0.061876    2.055360    0.000000
 ---------------------------------------------------------------------
 Rotational constants (GHZ):     10.6223794     10.4510614      5.2680120

 **********************************************************************

            Population analysis using the SCF density.

 **********************************************************************

 Orbital symmetries:
       Occupied  (A') (A') (A') (A') (A') (A') (A') (A') (A') (A')
                 (A') (A") (A') (A') (A") (A") (A') (A')
       Virtual   (A") (A") (A') (A') (A') (A') (A') (A") (A') (A')
                 (A') (A') (A") (A') (A') (A") (A') (A') (A') (A')
                 (A") (A') (A") (A') (A') (A') (A') (A') (A') (A')
                 (A') (A") (A') (A') (A") (A') (A") (A") (A') (A')
                 (A") (A") (A') (A') (A") (A') (A') (A') (A") (A')
                 (A') (A") (A') (A') (A') (A") (A') (A") (A') (A")
                 (A') (A') (A') (A') (A') (A") (A') (A") (A') (A')
                 (A') (A') (A") (A") (A') (A") (A') (A') (A') (A')
                 (A') (A') (A') (A') (A') (A') (A') (A') (A')
 The electronic state is 1-A'.
 Alpha  occ. eigenvalues --  -14.43006 -14.39409 -14.37634 -14.34759 -10.26010
 Alpha  occ. eigenvalues --   -1.17038  -0.96757  -0.91468  -0.69732  -0.68398
[...]
 Calling FoFJK, ICntrl=    100127 FMM=F ISym2X=1 I1Cent= 0 IOpClX= 0 NMat=1 NMatS=1 NMatT=0.
 Full mass-weighted force constant matrix:
 Low frequencies ---   -0.0007   -0.0006    0.0008    2.2341    3.1399    4.9482
 Low frequencies ---  589.2290  697.5269  741.5465
 Diagonal vibrational polarizability:
        1.2225504       1.1890259       7.7308768
 Harmonic frequencies (cm**-1), IR intensities (KM/Mole), Raman scattering
 activities (A**4/AMU), depolarization ratios for plane and unpolarized
 incident light, reduced masses (AMU), force constants (mDyne/A),
 and normal coordinates:
                      1                      2                      3
                     A"                     A"                     A"
 Frequencies --    589.2288               697.5268               741.5465
 Red. masses --      2.1177                 1.7838                 7.1119
 Frc consts  --      0.4332                 0.5114                 2.3042
 IR Inten    --     69.8476                16.0925                10.1481
  Atom  AN      X      Y      Z        X      Y      Z        X      Y      Z
     1   6     0.00   0.00  -0.12     0.00   0.00   0.16     0.00   0.00  -0.09
     2   7     0.00   0.00   0.24     0.00   0.00  -0.07     0.00   0.00  -0.10
     3   7     0.00   0.00  -0.11     0.00   0.00   0.08     0.00   0.00   0.39
     4   7     0.00   0.00   0.01     0.00   0.00   0.04     0.00   0.00  -0.46
     5   7     0.00   0.00   0.04     0.00   0.00  -0.16     0.00   0.00   0.30
     6   1     0.00   0.00  -0.25     0.00   0.00   0.46     0.00   0.00  -0.05
     7   1     0.00   0.00  -0.92     0.00   0.00  -0.85     0.00   0.00  -0.73
                      4                      5                      6
                     A"                     A'                     A'
 Frequencies --    848.0960               978.3457              1017.8956
 Red. masses --      1.3251                 4.8026                 6.4696
 Frc consts  --      0.5616                 2.7084                 3.9494
 IR Inten    --     24.8611                 4.8667                 0.3345
  Atom  AN      X      Y      Z        X      Y      Z        X      Y      Z
     1   6     0.00   0.00   0.16     0.08   0.11   0.00    -0.37  -0.07   0.00
     2   7     0.00   0.00  -0.02     0.10   0.05   0.00     0.02   0.41   0.00
     3   7     0.00   0.00   0.00     0.12  -0.14   0.00     0.08  -0.05   0.00
     4   7     0.00   0.00  -0.02     0.08  -0.18   0.00     0.24  -0.04   0.00
     5   7     0.00   0.00  -0.02    -0.37   0.22   0.00    -0.02  -0.25   0.00
     6   1     0.00   0.00  -0.98     0.33  -0.69   0.00    -0.27  -0.48   0.00
     7   1     0.00   0.00  -0.09    -0.36   0.02   0.00     0.25   0.44   0.00
                      7                      8                      9
                     A'                     A'                     A'
 Frequencies --   1052.8228              1076.5030              1153.4730
 Red. masses --      4.8115                 3.4089                 1.9866
 Frc consts  --      3.1422                 2.3275                 1.5573
 IR Inten    --     17.4086                30.3335                15.5343
  Atom  AN      X      Y      Z        X      Y      Z        X      Y      Z
     1   6     0.09   0.02   0.00    -0.04   0.04   0.00     0.09  -0.11   0.00
     2   7     0.21   0.18   0.00     0.07  -0.15   0.00    -0.14  -0.01   0.00
     3   7    -0.32  -0.24   0.00    -0.22   0.04   0.00    -0.08   0.04   0.00
     4   7    -0.16   0.00   0.00     0.28   0.06   0.00     0.13   0.12   0.00
     5   7     0.14   0.07   0.00    -0.14   0.02   0.00     0.03   0.00   0.00
     6   1     0.29  -0.56   0.00    -0.11   0.25   0.00     0.31  -0.80   0.00
     7   1     0.51   0.20   0.00     0.85  -0.12   0.00    -0.43  -0.03   0.00
                     10                     11                     12
                     A'                     A'                     A'
 Frequencies --   1274.3530              1307.4959              1465.0485
 Red. masses --      2.2905                10.7428                 3.2147
 Frc consts  --      2.1916                10.8205                 4.0654
 IR Inten    --      3.5604                15.7748                 8.9884
  Atom  AN      X      Y      Z        X      Y      Z        X      Y      Z
     1   6     0.16   0.03   0.00     0.29   0.07   0.00    -0.17   0.26   0.00
     2   7     0.06   0.09   0.00    -0.12   0.17   0.00     0.19  -0.14   0.00
     3   7    -0.08  -0.07   0.00    -0.22   0.47   0.00    -0.06   0.10   0.00
     4   7     0.04   0.08   0.00     0.02  -0.58   0.00    -0.01  -0.01   0.00
     5   7    -0.11  -0.18   0.00     0.03  -0.15   0.00     0.07  -0.12   0.00
     6   1    -0.01   0.65   0.00     0.37  -0.01   0.00     0.06  -0.53   0.00
     7   1    -0.68   0.06   0.00     0.22   0.23   0.00    -0.70  -0.22   0.00
                     13                     14                     15
                     A'                     A'                     A'
 Frequencies --   1518.0321              3290.3359              3666.0884
 Red. masses --      3.2710                 1.1014                 1.0838
 Frc consts  --      4.4411                 7.0256                 8.5822
 IR Inten    --     17.1346                 2.3314                99.3237
  Atom  AN      X      Y      Z        X      Y      Z        X      Y      Z
     1   6     0.11   0.28   0.00     0.09   0.03   0.00     0.00   0.00   0.00
     2   7    -0.17  -0.02   0.00     0.00   0.00   0.00    -0.01   0.08   0.00
     3   7     0.10  -0.08   0.00     0.00   0.00   0.00     0.00   0.00   0.00
     4   7    -0.06   0.09   0.00     0.00   0.00   0.00     0.00   0.00   0.00
     5   7    -0.05  -0.20   0.00     0.00   0.00   0.00     0.00   0.00   0.00
     6   1     0.35  -0.35   0.00    -0.95  -0.29   0.00    -0.02   0.00   0.00
     7   1     0.75   0.03   0.00     0.01   0.02   0.00     0.06  -0.99   0.00

 -------------------
 - Thermochemistry -
 -------------------
 Temperature   298.150 Kelvin.  Pressure   1.00000 Atm.
 Atom     1 has atomic number  6 and mass  12.00000
 Atom     2 has atomic number  7 and mass  14.00307
 Atom     3 has atomic number  7 and mass  14.00307
 Atom     4 has atomic number  7 and mass  14.00307
 Atom     5 has atomic number  7 and mass  14.00307
 Atom     6 has atomic number  1 and mass   1.00783
 Atom     7 has atomic number  1 and mass   1.00783
 Molecular mass:    70.02795 amu.
 Principal axes and moments of inertia in atomic units:
                           1         2         3
     Eigenvalues --   169.89990 172.68497 342.58487
           X            0.88454   0.46646   0.00000
           Y           -0.46646   0.88454   0.00000
           Z            0.00000   0.00000   1.00000
 This molecule is an asymmetric top.
 Rotational symmetry number  1.
 Rotational temperatures (Kelvin)      0.50979     0.50157     0.25282
 Rotational constants (GHZ):          10.62238    10.45106     5.26801
 Zero-point vibrational energy     123674.7 (Joules/Mol)
                                   29.55896 (Kcal/Mol)
 Warning -- explicit consideration of   1 degrees of freedom as
           vibrations may cause significant error
 Vibrational temperatures:    847.77  1003.58  1066.92  1220.22  1407.62
          (Kelvin)           1464.52  1514.78  1548.85  1659.59  1833.51
                             1881.19  2107.88  2184.11  4734.05  5274.68
 
 Zero-point correction=                           0.047105 (Hartree/Particle)
 Thermal correction to Energy=                    0.050566
 Thermal correction to Enthalpy=                  0.051510
 Thermal correction to Gibbs Free Energy=         0.021028
 Sum of electronic and zero-point Energies=           -258.189220
 Sum of electronic and thermal Energies=              -258.185759
 Sum of electronic and thermal Enthalpies=            -258.184815
 Sum of electronic and thermal Free Energies=         -258.215296
 
                     E (Thermal)             CV                S
                      KCal/Mol        Cal/Mol-Kelvin    Cal/Mol-Kelvin
 Total                   31.730             11.258             64.153
 Electronic               0.000              0.000              0.000
 Translational            0.889              2.981             38.656
 Rotational               0.889              2.981             23.823
 Vibrational             29.953              5.296              1.674
 Vibration     1          0.947              1.055              0.469
                       Q            Log10(Q)             Ln(Q)
 Total Bot       0.212643D-09         -9.672349        -22.271407
 Total V=0       0.987396D+12         11.994492         27.618338
 Vib (Bot)       0.257237D-21        -21.589666        -49.712043
 Vib (Bot)    1  0.256219D+00         -0.591389         -1.361724
 Vib (V=0)       0.119447D+01          0.077175          0.177702
 Vib (V=0)    1  0.106183D+01          0.026053          0.059990
 Electronic      0.100000D+01          0.000000          0.000000
 Translational   0.230336D+08          7.362362         16.952466
 Rotational      0.358884D+05          4.554954         10.488170
 ***** Axes restored to original set *****
 -------------------------------------------------------------------
 Center     Atomic                   Forces (Hartrees/Bohr)
 Number     Number              X              Y              Z
 -------------------------------------------------------------------
      1        6           0.000071489   -0.000000306    0.000000000
      2        7          -0.000074036   -0.000180445    0.000000000
      3        7           0.000110560   -0.000017121    0.000000000
      4        7           0.000099573    0.000130148    0.000000000
      5        7          -0.000223707    0.000092848    0.000000000
      6        1          -0.000009078    0.000005652    0.000000000
      7        1           0.000025199   -0.000030776    0.000000000
 -------------------------------------------------------------------
 Cartesian Forces:  Max     0.000223707 RMS     0.000082487
 FormGI is forming the generalized inverse of G from B-inverse, IUseBI=4.

 GradGradGradGradGradGradGradGradGradGradGradGradGradGradGradGradGradGrad
 Berny optimization.
 Internal  Forces:  Max     0.000157173 RMS     0.000060508
 Search for a local minimum.
 Step number   1 out of a maximum of    2
 All quantities printed in internal units (Hartrees-Bohrs-Radians)
 Second derivative matrix not updated -- analytic derivatives used.
 ITU=  0
     Eigenvalues ---    0.00846   0.02517   0.07007   0.07767   0.10178
     Eigenvalues ---    0.10598   0.19753   0.24574   0.35050   0.37791
     Eigenvalues ---    0.43756   0.47192   0.48045   0.58281   0.63800
 Angle between quadratic step and forces=  22.48 degrees.
 Linear search not attempted -- first point.
 Iteration  1 RMS(Cart)=  0.00012633 RMS(Int)=  0.00000001
 Iteration  2 RMS(Cart)=  0.00000000 RMS(Int)=  0.00000000
 ClnCor:  largest displacement from symmetrization is 2.05D-13 for atom     6.
 Variable       Old X    -DE/DX   Delta X   Delta X   Delta X     New X
                                 (Linear)    (Quad)   (Total)
    R1        2.53358   0.00011   0.00000   0.00023   0.00023   2.53381
    R2        2.47302   0.00016   0.00000   0.00030   0.00030   2.47332
    R3        2.03592  -0.00001   0.00000  -0.00002  -0.00002   2.03590
    R4        2.53827  -0.00006   0.00000  -0.00020  -0.00020   2.53807
    R5        1.90379   0.00004   0.00000   0.00007   0.00007   1.90386
    R6        2.42274   0.00009   0.00000   0.00023   0.00023   2.42297
    R7        2.56188  -0.00014   0.00000  -0.00051  -0.00051   2.56137
    A1        1.89001   0.00004   0.00000  -0.00002  -0.00002   1.88999
    A2        2.18320  -0.00002   0.00000   0.00001   0.00001   2.18321
    A3        2.20997  -0.00002   0.00000   0.00001   0.00001   2.20998
    A4        1.89440  -0.00010   0.00000  -0.00015  -0.00015   1.89425
    A5        2.28684   0.00004   0.00000   0.00002   0.00002   2.28685
    A6        2.10195   0.00005   0.00000   0.00014   0.00014   2.10209
    A7        1.85118   0.00008   0.00000   0.00011   0.00011   1.85129
    A8        1.94335   0.00002   0.00000   0.00006   0.00006   1.94341
    A9        1.84584  -0.00004   0.00000   0.00000   0.00000   1.84584
    D1        0.00000   0.00000   0.00000   0.00000   0.00000   0.00000
    D2        3.14159   0.00000   0.00000   0.00000   0.00000   3.14159
    D3        3.14159   0.00000   0.00000   0.00000   0.00000   3.14159
    D4        0.00000   0.00000   0.00000   0.00000   0.00000   0.00000
    D5        0.00000   0.00000   0.00000   0.00000   0.00000   0.00000
    D6        3.14159   0.00000   0.00000   0.00000   0.00000   3.14159
    D7        0.00000   0.00000   0.00000   0.00000   0.00000   0.00000
    D8        3.14159   0.00000   0.00000   0.00000   0.00000   3.14159
    D9        0.00000   0.00000   0.00000   0.00000   0.00000   0.00000
   D10        0.00000   0.00000   0.00000   0.00000   0.00000   0.00000
         Item               Value     Threshold  Converged?
 Maximum Force            0.000157     0.000450     YES
 RMS     Force            0.000061     0.000300     YES
 Maximum Displacement     0.000309     0.001800     YES
 RMS     Displacement     0.000126     0.001200     YES
 Predicted change in Energy=-1.059281D-07
 Optimization completed.
    -- Stationary point found.
                           ----------------------------
                           !   Optimized Parameters   !
                           ! (Angstroms and Degrees)  !
 --------------------------                            --------------------------
 ! Name  Definition              Value          Derivative Info.                !
 --------------------------------------------------------------------------------
 ! R1    R(1,2)                  1.3407         -DE/DX =    0.0001              !
 ! R2    R(1,5)                  1.3087         -DE/DX =    0.0002              !
 ! R3    R(1,6)                  1.0774         -DE/DX =    0.0                 !
 ! R4    R(2,3)                  1.3432         -DE/DX =   -0.0001              !
 ! R5    R(2,7)                  1.0074         -DE/DX =    0.0                 !
 ! R6    R(3,4)                  1.2821         -DE/DX =    0.0001              !
 ! R7    R(4,5)                  1.3557         -DE/DX =   -0.0001              !
 ! A1    A(2,1,5)              108.2895         -DE/DX =    0.0                 !
 ! A2    A(2,1,6)              125.0882         -DE/DX =    0.0                 !
 ! A3    A(5,1,6)              126.6222         -DE/DX =    0.0                 !
 ! A4    A(1,2,3)              108.5412         -DE/DX =   -0.0001              !
 ! A5    A(1,2,7)              131.026          -DE/DX =    0.0                 !
 ! A6    A(3,2,7)              120.4328         -DE/DX =    0.0001              !
 ! A7    A(2,3,4)              106.0647         -DE/DX =    0.0001              !
 ! A8    A(3,4,5)              111.3459         -DE/DX =    0.0                 !
 ! A9    A(1,5,4)              105.7587         -DE/DX =    0.0                 !
 ! D1    D(5,1,2,3)              0.0            -DE/DX =    0.0                 !
 ! D2    D(5,1,2,7)            180.0            -DE/DX =    0.0                 !
 ! D3    D(6,1,2,3)            180.0            -DE/DX =    0.0                 !
 ! D4    D(6,1,2,7)              0.0            -DE/DX =    0.0                 !
 ! D5    D(2,1,5,4)              0.0            -DE/DX =    0.0                 !
 ! D6    D(6,1,5,4)            180.0            -DE/DX =    0.0                 !
 ! D7    D(1,2,3,4)              0.0            -DE/DX =    0.0                 !
 ! D8    D(7,2,3,4)            180.0            -DE/DX =    0.0                 !
 ! D9    D(2,3,4,5)              0.0            -DE/DX =    0.0                 !
 ! D10   D(3,4,5,1)              0.0            -DE/DX =    0.0                 !
 --------------------------------------------------------------------------------
 GradGradGradGradGradGradGradGradGradGradGradGradGradGradGradGradGradGrad

 1\1\GINC-N755\Freq\RB3PW91\TZVP\C1H2N4\RDJ3\16-Dec-2013\0\\#N Geom=All
 Check Guess=TCheck SCRF=Check GenChk RB3PW91/TZVP Freq\\1H-tetrazole C
 H2N4 casno=288948 state=1 config=1 method=16 basis=32\\0,1\C,1.0080819
 496,0.001923038,0.\N,0.3890802397,-1.187338495,0.\N,-0.9377382618,-0.9
 782480241,0.\N,-1.0964071511,0.293954394,0.\N,0.0955009994,0.939898039
 1,0.\H,2.0760017108,0.1442542082,0.\H,0.7579373012,-2.1248245144,0.\\V
 ersion=EM64L-G09RevD.01\State=1-A'\HF=-258.2363247\RMSD=2.588e-09\RMSF
 =8.249e-05\ZeroPoint=0.0471052\Thermal=0.0505655\Dipole=1.7280355,-1.3
 145579,0.\DipoleDeriv=0.1614269,0.0248313,0.,-0.0996723,0.4522689,0.,0
 .,0.,0.0645008,-0.226318,0.3121338,0.,0.2192777,-0.3860188,0.,0.,0.,-0
 .1084627,0.1200177,-0.3621628,0.,-0.3596843,-0.1714755,0.,0.,0.,-0.106
 0134,0.0583929,0.1721027,0.,0.2336276,0.0085549,0.,0.,0.,-0.1689612,-0
 .3844974,-0.1275531,0.,0.0160749,-0.3093004,0.,0.,0.,-0.1975341,0.0627
 542,0.0105139,0.,0.0069842,0.1203757,0.,0.,0.,0.1782847,0.2082237,-0.0
 298658,0.,-0.016608,0.2855951,0.,0.,0.,0.3381859\Polar=41.9199532,-0.2
 650423,40.5440409,0.,0.,21.8720927\PG=CS [SG(C1H2N4)]\NImag=0\\0.96257
 232,0.01872350,0.61220862,0.,0.,0.13430691,-0.16953883,-0.07431624,0.,
 0.57407136,-0.10497570,-0.27915407,0.,-0.11660026,1.00773124,0.,0.,-0.
 05707421,0.,0.,0.08919129,-0.09358246,-0.09144793,0.,-0.22247817,-0.03
 257688,0.,0.45401650,0.00312169,-0.02647692,0.,0.00136845,-0.10698365,
 0.,0.07485601,0.58786723,0.,0.,0.01885385,0.,0.,-0.06609934,0.,0.,0.11
 412216,-0.12170579,0.07180183,0.,-0.07937585,0.03749700,0.,-0.11375184
 ,-0.00012617,0.,0.50709099,-0.03087810,0.03032681,0.,0.11673389,-0.101
 46712,0.,0.05746985,-0.34858661,0.,-0.10438721,0.52934086,0.,0.,0.0194
 1243,0.,0.,0.02568939,0.,0.,-0.09706346,0.,0.,0.12509132,-0.23680636,0
 .13216929,0.,0.01791226,0.08963780,0.,-0.02598671,-0.11651410,0.,-0.17
 909558,-0.04409342,0.,0.43857601,0.14097175,-0.26953925,0.,-0.02715749
 ,-0.10498053,0.,-0.00867587,-0.10267930,0.,-0.00703743,-0.10933945,0.,
 -0.08461475,0.57850714,0.,0.,-0.07695776,0.,0.,0.01933688,0.,0.,0.0362
 8433,0.,0.,-0.09049110,0.,0.,0.10945233,-0.35814983,-0.04465822,0.,-0.
 00191722,0.00230415,0.,0.00085185,0.00219508,0.,-0.00144345,0.00042773
 ,0.,-0.01211853,-0.00358936,0.,0.37324145,-0.04079763,-0.06112420,0.,-
 0.03223032,0.00217865,0.,-0.00101518,-0.00687093,0.,0.00643962,-0.0028
 9624,0.,0.02348229,0.01145023,0.,0.04395909,0.05747837,0.,0.,-0.028582
 17,0.,0.,-0.00340154,0.,0.,0.00643006,0.,0.,0.00910118,0.,0.,-0.005556
 03,0.,0.,0.02274126,0.01721095,-0.01227223,0.,-0.11867355,0.12471390,0
 .,0.00093083,0.03509904,0.,-0.01171848,0.00472726,0.,-0.00248109,-0.00
 989686,0.,-0.00046426,0.00016212,0.,0.11519560,0.01383449,-0.00624098,
 0.,0.13220198,-0.41732452,0.,0.00138999,0.00373017,0.,-0.00418764,0.00
 262174,0.,-0.00006712,-0.00341884,0.,-0.00063847,-0.00021588,0.,-0.142
 53323,0.42084831,0.,0.,-0.00995905,0.,0.,-0.00764247,0.,0.,-0.01252760
 ,0.,0.,0.00826024,0.,0.,0.00793133,0.,0.,-0.00073276,0.,0.,0.01467030\
 \-0.00007149,0.00000031,0.,0.00007404,0.00018044,0.,-0.00011056,0.0000
 1712,0.,-0.00009957,-0.00013015,0.,0.00022371,-0.00009285,0.,0.0000090
 8,-0.00000565,0.,-0.00002520,0.00003078,0.\\\@


 ... I FELL INTO A REVERIE ... THE ATOMS WERE GAMBOLING BEFORE MY EYES
 ... I SAW HOW TWO SMALL ONES UNITED TO FORM A PAIR;
 HOW THE LARGER ONES SEIZED TWO OF THE SMALLER ONES;
 HOW STILL LARGER ONES KEPT HOLD OF THREE OR FOUR
 SMALLER ONES ... I SAW HOW THE LARGER ONES FORMED A CHAIN ...
 THIS WAS THE ORIGIN OF THE STRUCTURE THEORY.

                                   -- C.F.KEKULE VON STRADONITZ
 Job cpu time:       0 days  0 hours  1 minutes 48.2 seconds.
 File lengths (MBytes):  RWF=     13 Int=      0 D2E=      0 Chk=      2 Scr=      1
 Normal termination of Gaussian 09 at Mon Dec 16 16:56:05 2013.
