 Entering Gaussian System, Link 0=g09
 Initial command:
 /usr/local/gaussian/g09.d01.em64t.legacy.linda/g09/l1.exe "/tmp/rdj3/g09-9462/Gau-7616.inp" -scrdir="/tmp/rdj3/g09-9462/"
 Entering Link 1 = /usr/local/gaussian/g09.d01.em64t.legacy.linda/g09/l1.exe PID=      7617.
  
 Copyright (c) 1988,1990,1992,1993,1995,1998,2003,2009,2013,
            Gaussian, Inc.  All Rights Reserved.
  
 This is part of the Gaussian(R) 09 program.  It is based on
 the Gaussian(R) 03 system (copyright 2003, Gaussian, Inc.),
 the Gaussian(R) 98 system (copyright 1998, Gaussian, Inc.),
 the Gaussian(R) 94 system (copyright 1995, Gaussian, Inc.),
 the Gaussian 92(TM) system (copyright 1992, Gaussian, Inc.),
 the Gaussian 90(TM) system (copyright 1990, Gaussian, Inc.),
 the Gaussian 88(TM) system (copyright 1988, Gaussian, Inc.),
 the Gaussian 86(TM) system (copyright 1986, Carnegie Mellon
 University), and the Gaussian 82(TM) system (copyright 1983,
 Carnegie Mellon University). Gaussian is a federally registered
 trademark of Gaussian, Inc.
  
 This software contains proprietary and confidential information,
 including trade secrets, belonging to Gaussian, Inc.
  
 This software is provided under written license and may be
 used, copied, transmitted, or stored only in accord with that
 written license.
  
 The following legend is applicable only to US Government
 contracts under FAR:
  
                    RESTRICTED RIGHTS LEGEND
  
 Use, reproduction and disclosure by the US Government is
 subject to restrictions as set forth in subparagraphs (a)
 and (c) of the Commercial Computer Software - Restricted
 Rights clause in FAR 52.227-19.
  
 Gaussian, Inc.
 340 Quinnipiac St., Bldg. 40, Wallingford CT 06492
  
  
 ---------------------------------------------------------------
 Warning -- This program may not be used in any manner that
 competes with the business of Gaussian, Inc. or will provide
 assistance to any competitor of Gaussian, Inc.  The licensee
 of this program is prohibited from giving any competitor of
 Gaussian, Inc. access to this program.  By using this program,
 the user acknowledges that Gaussian, Inc. is engaged in the
 business of creating and licensing software in the field of
 computational chemistry and represents and warrants to the
 licensee that it is not a competitor of Gaussian, Inc. and that
 it will not use this program in any manner prohibited above.
 ---------------------------------------------------------------
  

 Cite this work as:
 Gaussian 09, Revision D.01,
 M. J. Frisch, G. W. Trucks, H. B. Schlegel, G. E. Scuseria, 
 M. A. Robb, J. R. Cheeseman, G. Scalmani, V. Barone, B. Mennucci, 
 G. A. Petersson, H. Nakatsuji, M. Caricato, X. Li, H. P. Hratchian, 
 A. F. Izmaylov, J. Bloino, G. Zheng, J. L. Sonnenberg, M. Hada, 
 M. Ehara, K. Toyota, R. Fukuda, J. Hasegawa, M. Ishida, T. Nakajima, 
 Y. Honda, O. Kitao, H. Nakai, T. Vreven, J. A. Montgomery, Jr., 
 J. E. Peralta, F. Ogliaro, M. Bearpark, J. J. Heyd, E. Brothers, 
 K. N. Kudin, V. N. Staroverov, T. Keith, R. Kobayashi, J. Normand, 
 K. Raghavachari, A. Rendell, J. C. Burant, S. S. Iyengar, J. Tomasi, 
 M. Cossi, N. Rega, J. M. Millam, M. Klene, J. E. Knox, J. B. Cross, 
 V. Bakken, C. Adamo, J. Jaramillo, R. Gomperts, R. E. Stratmann, 
 O. Yazyev, A. J. Austin, R. Cammi, C. Pomelli, J. W. Ochterski, 
 R. L. Martin, K. Morokuma, V. G. Zakrzewski, G. A. Voth, 
 P. Salvador, J. J. Dannenberg, S. Dapprich, A. D. Daniels, 
 O. Farkas, J. B. Foresman, J. V. Ortiz, J. Cioslowski, 
 and D. J. Fox, Gaussian, Inc., Wallingford CT, 2013.
 
 ******************************************
 Gaussian 09:  EM64L-G09RevD.01 24-Apr-2013
                16-Dec-2013 
 ******************************************
 %Nproc=8
 Will use up to    8 processors via shared memory.
 %mem=436000000
 -----------------------------
 #B3PW91/6-31G(2df,p) opt freq
 -----------------------------
 1/14=-1,18=20,19=15,26=3,38=1/1,3;
 2/9=110,12=2,17=6,18=5,40=1/2;
 3/5=1,6=6,7=104,11=2,16=1,25=1,30=1,71=1,74=-6/1,2,3;
 4//1;
 5/5=2,38=5/2;
 6/7=2,8=2,9=2,10=2,28=1/1;
 7//1,2,3,16;
 1/14=-1,18=20,19=15,26=3/3(2);
 2/9=110/2;
 99//99;
 2/9=110/2;
 3/5=1,6=6,7=104,11=2,16=1,25=1,30=1,71=1,74=-6/1,2,3;
 4/5=5,16=3,69=1/1;
 5/5=2,38=5/2;
 7//1,2,3,16;
 1/14=-1,18=20,19=15,26=3/3(-5);
 2/9=110/2;
 6/7=2,8=2,9=2,10=2,19=2,28=1/1;
 99/9=1/99;
 -------------------------------------------------------------------
 1H-tetrazole CH2N4 casno=288948 state=1 config=1 method=16 basis=19
 -------------------------------------------------------------------
 Symbolic Z-matrix:
 Charge =  0 Multiplicity = 1
 X
 X                    1     1. 
 C                    1     1.       2     90. 
 N                    1    rn1      2     90.      3    an1      0
 N                    1    rn2      2     90.      3    an2      0
 N                    1    rn3      2     90.      3    an3      0
 N                    1    rn4      2     90.      3    an4      0
 H                    3    rch      4    ach      5     180.     0
 H                    4    rnh      5    anh      6     180.     0
       Variables:
  rn1                   1.2426                   
  rn2                   1.333                    
  rn3                   1.1146                   
  rn4                   0.9264                   
  rch                   1.0678                   
  rnh                   0.9941                   
  an1                  71.8427                   
  an2                 133.7028                   
  an3                 194.4597                   
  an4                 276.0768                   
  ach                 125.0248                   
  anh                 120.7626                   
 

 GradGradGradGradGradGradGradGradGradGradGradGradGradGradGradGradGradGrad
 Berny optimization.
 Initialization pass.
                           ----------------------------
                           !    Initial Parameters    !
                           ! (Angstroms and Degrees)  !
 --------------------------                            --------------------------
 ! Name  Definition              Value          Derivative Info.                !
 --------------------------------------------------------------------------------
 ! R1    R(1,2)                  1.3303         estimate D2E/DX2                !
 ! R2    R(1,5)                  1.2892         estimate D2E/DX2                !
 ! R3    R(1,6)                  1.0678         estimate D2E/DX2                !
 ! R4    R(2,3)                  1.3261         estimate D2E/DX2                !
 ! R5    R(2,7)                  0.9941         estimate D2E/DX2                !
 ! R6    R(3,4)                  1.252          estimate D2E/DX2                !
 ! R7    R(4,5)                  1.3414         estimate D2E/DX2                !
 ! A1    A(2,1,5)              108.177          estimate D2E/DX2                !
 ! A2    A(2,1,6)              125.0248         estimate D2E/DX2                !
 ! A3    A(5,1,6)              126.7982         estimate D2E/DX2                !
 ! A4    A(1,2,3)              108.008          estimate D2E/DX2                !
 ! A5    A(1,2,7)              131.2294         estimate D2E/DX2                !
 ! A6    A(3,2,7)              120.7626         estimate D2E/DX2                !
 ! A7    A(2,3,4)              106.684          estimate D2E/DX2                !
 ! A8    A(3,4,5)              111.3724         estimate D2E/DX2                !
 ! A9    A(1,5,4)              105.7586         estimate D2E/DX2                !
 ! D1    D(5,1,2,3)              0.0            estimate D2E/DX2                !
 ! D2    D(5,1,2,7)            180.0            estimate D2E/DX2                !
 ! D3    D(6,1,2,3)            180.0            estimate D2E/DX2                !
 ! D4    D(6,1,2,7)              0.0            estimate D2E/DX2                !
 ! D5    D(2,1,5,4)              0.0            estimate D2E/DX2                !
 ! D6    D(6,1,5,4)            180.0            estimate D2E/DX2                !
 ! D7    D(1,2,3,4)              0.0            estimate D2E/DX2                !
 ! D8    D(7,2,3,4)            180.0            estimate D2E/DX2                !
 ! D9    D(2,3,4,5)              0.0            estimate D2E/DX2                !
 ! D10   D(3,4,5,1)              0.0            estimate D2E/DX2                !
 --------------------------------------------------------------------------------
 Trust Radius=3.00D-01 FncErr=1.00D-07 GrdErr=1.00D-06
 Number of steps in this run=     36 maximum allowed number of steps=    100.
 GradGradGradGradGradGradGradGradGradGradGradGradGradGradGradGradGradGrad

                          Input orientation:                          
 ---------------------------------------------------------------------
 Center     Atomic      Atomic             Coordinates (Angstroms)
 Number     Number       Type             X           Y           Z
 ---------------------------------------------------------------------
      1          6           0        1.000000    0.000000    0.000000
      2          7           0        0.387228   -1.180724    0.000000
      3          7           0       -0.920993   -0.963670    0.000000
      4          7           0       -1.079293    0.278314    0.000000
      5          7           0        0.098070    0.921194    0.000000
      6          1           0        2.058429    0.141157    0.000000
      7          1           0        0.749017   -2.106652    0.000000
 ---------------------------------------------------------------------
                    Distance matrix (angstroms):
                    1          2          3          4          5
     1  C    0.000000
     2  N    1.330263   0.000000
     3  N    2.149157   1.326105   0.000000
     4  N    2.097837   2.068690   1.252032   0.000000
     5  N    1.289216   2.121715   2.142710   1.341447   0.000000
     6  H    1.067800   2.130794   3.177672   3.140719   2.109850
     7  H    2.121551   0.994100   2.023695   3.005127   3.097029
                    6          7
     6  H    0.000000
     7  H    2.601385   0.000000
 Stoichiometry    CH2N4
 Framework group  CS[SG(CH2N4)]
 Deg. of freedom    11
 Full point group                 CS      NOp   2
 Largest Abelian subgroup         CS      NOp   2
 Largest concise Abelian subgroup C1      NOp   1
                         Standard orientation:                         
 ---------------------------------------------------------------------
 Center     Atomic      Atomic             Coordinates (Angstroms)
 Number     Number       Type             X           Y           Z
 ---------------------------------------------------------------------
      1          6           0        1.052733    0.225621    0.000000
      2          7           0        0.000000    1.038857    0.000000
      3          7           0       -1.095416    0.291448    0.000000
      4          7           0       -0.716382   -0.901832    0.000000
      5          7           0        0.622191   -0.989579    0.000000
      6          1           0        2.072287    0.542964    0.000000
      7          1           0       -0.061439    2.031056    0.000000
 ---------------------------------------------------------------------
 Rotational constants (GHZ):     10.9201517     10.7345054      5.4132664
 Standard basis: 6-31G(2df,p) (6D, 7F)
 There are   113 symmetry adapted cartesian basis functions of A'  symmetry.
 There are    52 symmetry adapted cartesian basis functions of A"  symmetry.
 There are   103 symmetry adapted basis functions of A'  symmetry.
 There are    47 symmetry adapted basis functions of A"  symmetry.
   150 basis functions,   234 primitive gaussians,   165 cartesian basis functions
    18 alpha electrons       18 beta electrons
       nuclear repulsion energy       169.8308489506 Hartrees.
 NAtoms=    7 NActive=    7 NUniq=    7 SFac= 1.00D+00 NAtFMM=   60 NAOKFM=F Big=F
 Integral buffers will be    131072 words long.
 Raffenetti 2 integral format.
 Two-electron integral symmetry is turned on.
 One-electron integrals computed using PRISM.
 NBasis=   150 RedAO= T EigKep=  2.73D-04  NBF=   103    47
 NBsUse=   150 1.00D-06 EigRej= -1.00D+00 NBFU=   103    47
 ExpMin= 1.61D-01 ExpMax= 4.17D+03 ExpMxC= 6.27D+02 IAcc=1 IRadAn=         1 AccDes= 0.00D+00
 Harris functional with IExCor=  408 and IRadAn=       1 diagonalized for initial guess.
 HarFok:  IExCor=  408 AccDes= 0.00D+00 IRadAn=         1 IDoV= 1 UseB2=F ITyADJ=14
 ICtDFT=  3500011 ScaDFX=  1.000000  1.000000  1.000000  1.000000
 FoFCou: FMM=F IPFlag=           0 FMFlag=      100000 FMFlg1=           0
         NFxFlg=           0 DoJE=T BraDBF=F KetDBF=T FulRan=T
         wScrn=  0.000000 ICntrl=     500 IOpCl=  0 I1Cent=   200000004 NGrid=           0
         NMat0=    1 NMatS0=      1 NMatT0=    0 NMatD0=    1 NMtDS0=    0 NMtDT0=    0
 Petite list used in FoFCou.
 Initial guess orbital symmetries:
       Occupied  (A') (A') (A') (A') (A') (A') (A') (A') (A') (A')
                 (A') (A') (A") (A') (A") (A') (A") (A')
       Virtual   (A") (A") (A') (A') (A') (A') (A') (A') (A') (A')
                 (A') (A") (A') (A') (A') (A') (A") (A') (A") (A")
                 (A') (A') (A") (A") (A') (A') (A') (A") (A") (A')
                 (A') (A") (A") (A') (A') (A') (A') (A") (A") (A')
                 (A') (A') (A") (A') (A') (A") (A') (A') (A') (A")
                 (A') (A') (A') (A') (A') (A") (A') (A') (A") (A')
                 (A") (A') (A') (A") (A') (A") (A') (A") (A') (A')
                 (A') (A") (A') (A") (A') (A") (A') (A') (A') (A")
                 (A') (A') (A") (A') (A') (A") (A') (A') (A") (A")
                 (A") (A') (A') (A") (A") (A") (A') (A") (A") (A')
                 (A") (A') (A') (A") (A') (A") (A") (A') (A") (A')
                 (A") (A') (A') (A') (A') (A') (A') (A') (A") (A')
                 (A') (A') (A') (A') (A') (A') (A') (A') (A') (A')
                 (A') (A')
 The electronic state of the initial guess is 1-A'.
 Keep R1 ints in memory in symmetry-blocked form, NReq=97005431.
 Requested convergence on RMS density matrix=1.00D-08 within 128 cycles.
 Requested convergence on MAX density matrix=1.00D-06.
 Requested convergence on             energy=1.00D-06.
 No special actions if energy rises.
 Integral accuracy reduced to 1.0D-05 until final iterations.
 Initial convergence to 1.0D-05 achieved.  Increase integral accuracy.
 SCF Done:  E(RB3PW91) =  -258.169654152     A.U. after   14 cycles
            NFock= 14  Conv=0.59D-08     -V/T= 2.0054

 **********************************************************************

            Population analysis using the SCF density.

 **********************************************************************

 Orbital symmetries:
       Occupied  (A') (A') (A') (A') (A') (A') (A') (A') (A') (A')
                 (A') (A") (A') (A') (A") (A") (A') (A')
       Virtual   (A") (A") (A') (A') (A') (A') (A') (A') (A') (A')
                 (A") (A') (A') (A') (A') (A") (A') (A') (A") (A")
                 (A') (A') (A") (A') (A") (A') (A') (A") (A") (A')
                 (A') (A") (A") (A') (A') (A') (A') (A") (A") (A')
                 (A') (A") (A') (A') (A') (A") (A') (A') (A") (A')
                 (A') (A') (A') (A') (A') (A") (A') (A') (A") (A')
                 (A') (A") (A') (A") (A') (A") (A') (A") (A') (A')
                 (A") (A') (A') (A") (A') (A") (A') (A') (A") (A')
                 (A') (A') (A') (A") (A') (A") (A') (A') (A") (A")
                 (A") (A') (A') (A") (A") (A") (A') (A") (A") (A')
                 (A") (A') (A") (A') (A') (A") (A") (A') (A") (A')
                 (A") (A') (A') (A') (A') (A') (A') (A') (A") (A')
                 (A') (A') (A') (A') (A') (A') (A') (A') (A') (A')
                 (A') (A')
 The electronic state is 1-A'.
 Alpha  occ. eigenvalues --  -14.43052 -14.39323 -14.37552 -14.34596 -10.25704
 Alpha  occ. eigenvalues --   -1.17214  -0.96132  -0.91054  -0.69006  -0.67683
 Alpha  occ. eigenvalues --   -0.60845  -0.51460  -0.50656  -0.38600  -0.33921
 Alpha  occ. eigenvalues --   -0.31887  -0.30255  -0.28799
 Alpha virt. eigenvalues --   -0.01315   0.02383   0.07132   0.12068   0.19275
 Alpha virt. eigenvalues --    0.20882   0.27816   0.30475   0.39540   0.44323
 Alpha virt. eigenvalues --    0.46252   0.48389   0.52196   0.55977   0.57606
 Alpha virt. eigenvalues --    0.60500   0.61221   0.62594   0.65534   0.66757
 Alpha virt. eigenvalues --    0.72826   0.73430   0.76870   0.77440   0.78531
 Alpha virt. eigenvalues --    0.84538   0.86505   0.86797   0.87092   0.91269
 Alpha virt. eigenvalues --    0.95960   1.06393   1.07259   1.08224   1.22051
 Alpha virt. eigenvalues --    1.25918   1.27460   1.35043   1.36682   1.40989
 Alpha virt. eigenvalues --    1.44482   1.49451   1.53024   1.59909   1.62815
 Alpha virt. eigenvalues --    1.62860   1.66819   1.69991   1.78917   1.79279
 Alpha virt. eigenvalues --    1.92401   1.94020   2.01942   2.10271   2.16756
 Alpha virt. eigenvalues --    2.20910   2.32664   2.45348   2.56544   2.79179
 Alpha virt. eigenvalues --    2.88629   2.88742   2.93351   2.98116   3.05855
 Alpha virt. eigenvalues --    3.09596   3.11426   3.18048   3.21999   3.29631
 Alpha virt. eigenvalues --    3.33039   3.34901   3.37292   3.40774   3.45579
 Alpha virt. eigenvalues --    3.48689   3.57931   3.60817   3.71138   3.71577
 Alpha virt. eigenvalues --    3.78110   3.85157   3.93912   3.93958   4.02033
 Alpha virt. eigenvalues --    4.04086   4.04417   4.06060   4.13013   4.17110
 Alpha virt. eigenvalues --    4.19522   4.22853   4.27293   4.31133   4.39154
 Alpha virt. eigenvalues --    4.44780   4.47764   4.50141   4.52926   4.53289
 Alpha virt. eigenvalues --    4.55973   4.56195   4.59287   4.60418   4.65297
 Alpha virt. eigenvalues --    4.80777   4.83185   4.87489   4.87910   4.97350
 Alpha virt. eigenvalues --    4.99519   5.04724   5.06553   5.19913   5.26015
 Alpha virt. eigenvalues --    5.35470   5.46077   5.51865   5.55296   5.59496
 Alpha virt. eigenvalues --    5.74401   5.81383   6.28011   6.45536   8.12449
 Alpha virt. eigenvalues --   10.35633  11.26864  11.28656  11.36713  11.47228
 Alpha virt. eigenvalues --   16.02903  19.13584
          Condensed to atoms (all electrons):
               1          2          3          4          5          6
     1  C    4.826163   0.447725  -0.103833  -0.133322   0.532503   0.380496
     2  N    0.447725   6.228804   0.370865  -0.122935  -0.032696  -0.028441
     3  N   -0.103833   0.370865   6.476720   0.494628  -0.151823   0.003196
     4  N   -0.133322  -0.122935   0.494628   6.370073   0.468000   0.004482
     5  N    0.532503  -0.032696  -0.151823   0.468000   6.416391  -0.019090
     6  H    0.380496  -0.028441   0.003196   0.004482  -0.019090   0.467015
     7  H   -0.031712   0.350868  -0.023743   0.006068   0.006523   0.000468
               7
     1  C   -0.031712
     2  N    0.350868
     3  N   -0.023743
     4  N    0.006068
     5  N    0.006523
     6  H    0.000468
     7  H    0.378380
 Mulliken charges:
               1
     1  C    0.081981
     2  N   -0.214190
     3  N   -0.066010
     4  N   -0.086994
     5  N   -0.219810
     6  H    0.191874
     7  H    0.313148
 Sum of Mulliken charges =   0.00000
 Mulliken charges with hydrogens summed into heavy atoms:
               1
     1  C    0.273855
     2  N    0.098959
     3  N   -0.066010
     4  N   -0.086994
     5  N   -0.219810
 Electronic spatial extent (au):  <R**2>=            243.0799
 Charge=              0.0000 electrons
 Dipole moment (field-independent basis, Debye):
    X=              2.4025    Y=              4.6123    Z=              0.0000  Tot=              5.2005
 Quadrupole moment (field-independent basis, Debye-Ang):
   XX=            -28.2412   YY=            -25.7047   ZZ=            -27.6954
   XY=              1.6972   XZ=              0.0000   YZ=              0.0000
 Traceless Quadrupole moment (field-independent basis, Debye-Ang):
   XX=             -1.0274   YY=              1.5091   ZZ=             -0.4817
   XY=              1.6972   XZ=              0.0000   YZ=              0.0000
 Octapole moment (field-independent basis, Debye-Ang**2):
  XXX=             11.1037  YYY=             21.1162  ZZZ=              0.0000  XYY=             -0.6047
  XXY=              4.2763  XXZ=              0.0000  XZZ=             -0.6345  YZZ=              0.5267
  YYZ=              0.0000  XYZ=              0.0000
 Hexadecapole moment (field-independent basis, Debye-Ang**3):
 XXXX=           -135.8480 YYYY=           -113.7994 ZZZZ=            -23.7026 XXXY=              6.0626
 XXXZ=              0.0000 YYYX=             -0.5477 YYYZ=              0.0000 ZZZX=              0.0000
 ZZZY=              0.0000 XXYY=            -50.8200 XXZZ=            -28.6904 YYZZ=            -26.9770
 XXYZ=              0.0000 YYXZ=              0.0000 ZZXY=             -0.1438
 N-N= 1.698308489506D+02 E-N=-9.423298716615D+02  KE= 2.567790936427D+02
 Symmetry A'   KE= 2.473429794112D+02
 Symmetry A"   KE= 9.436114231475D+00
 Calling FoFJK, ICntrl=      2127 FMM=F ISym2X=1 I1Cent= 0 IOpClX= 0 NMat=1 NMatS=1 NMatT=0.
 ***** Axes restored to original set *****
 -------------------------------------------------------------------
 Center     Atomic                   Forces (Hartrees/Bohr)
 Number     Number              X              Y              Z
 -------------------------------------------------------------------
      1        6           0.017517307   -0.006595372    0.000000000
      2        7           0.006782537   -0.005097668    0.000000000
      3        7          -0.013211828   -0.039621778    0.000000000
      4        7          -0.019634009    0.032579586    0.000000000
      5        7          -0.003441122    0.029284635    0.000000000
      6        1           0.007858010    0.000652690    0.000000000
      7        1           0.004129105   -0.011202094    0.000000000
 -------------------------------------------------------------------
 Cartesian Forces:  Max     0.039621778 RMS     0.014940911

 GradGradGradGradGradGradGradGradGradGradGradGradGradGradGradGradGradGrad
 Berny optimization.
 FormGI is forming the generalized inverse of G from B-inverse, IUseBI=4.
 Internal  Forces:  Max     0.040503925 RMS     0.011715976
 Search for a local minimum.
 Step number   1 out of a maximum of   36
 All quantities printed in internal units (Hartrees-Bohrs-Radians)
 Mixed Optimization -- RFO/linear search
 Second derivative matrix not updated -- first step.
 ITU=  0
     Eigenvalues ---    0.02505   0.02639   0.02674   0.02834   0.16000
     Eigenvalues ---    0.16000   0.22605   0.24688   0.37510   0.48741
     Eigenvalues ---    0.50870   0.56601   0.58498   0.66939   0.78934
 RFO step:  Lambda=-5.12912156D-03 EMin= 2.50488176D-02
 Linear search not attempted -- first point.
 Iteration  1 RMS(Cart)=  0.01797734 RMS(Int)=  0.00002943
 Iteration  2 RMS(Cart)=  0.00002731 RMS(Int)=  0.00001387
 Iteration  3 RMS(Cart)=  0.00000000 RMS(Int)=  0.00001387
 ClnCor:  largest displacement from symmetrization is 1.74D-11 for atom     1.
 Variable       Old X    -DE/DX   Delta X   Delta X   Delta X     New X
                                 (Linear)    (Quad)   (Total)
    R1        2.51383   0.01728   0.00000   0.02668   0.02666   2.54049
    R2        2.43626   0.02817   0.00000   0.03881   0.03881   2.47507
    R3        2.01785   0.00788   0.00000   0.02072   0.02072   2.03857
    R4        2.50598   0.01799   0.00000   0.02935   0.02934   2.53532
    R5        1.87858   0.01194   0.00000   0.02423   0.02423   1.90281
    R6        2.36600   0.04050   0.00000   0.05029   0.05030   2.41630
    R7        2.53497   0.01655   0.00000   0.03041   0.03042   2.56539
    A1        1.88804   0.00316   0.00000   0.00527   0.00524   1.89328
    A2        2.18209  -0.00199   0.00000  -0.00509  -0.00508   2.17701
    A3        2.21305  -0.00117   0.00000  -0.00017  -0.00016   2.21289
    A4        1.88509   0.00223   0.00000   0.00342   0.00339   1.88849
    A5        2.29039  -0.00089   0.00000  -0.00034  -0.00032   2.29006
    A6        2.10770  -0.00134   0.00000  -0.00308  -0.00307   2.10463
    A7        1.86199  -0.00241   0.00000  -0.00505  -0.00504   1.85695
    A8        1.94382  -0.00195   0.00000   0.00123   0.00127   1.94508
    A9        1.84584  -0.00103   0.00000  -0.00486  -0.00486   1.84098
    D1        0.00000   0.00000   0.00000   0.00000   0.00000   0.00000
    D2        3.14159   0.00000   0.00000   0.00000   0.00000   3.14159
    D3        3.14159   0.00000   0.00000   0.00000   0.00000   3.14159
    D4        0.00000   0.00000   0.00000   0.00000   0.00000   0.00000
    D5        0.00000   0.00000   0.00000   0.00000   0.00000   0.00000
    D6        3.14159   0.00000   0.00000   0.00000   0.00000   3.14159
    D7        0.00000   0.00000   0.00000   0.00000   0.00000   0.00000
    D8        3.14159   0.00000   0.00000   0.00000   0.00000   3.14159
    D9        0.00000   0.00000   0.00000   0.00000   0.00000   0.00000
   D10        0.00000   0.00000   0.00000   0.00000   0.00000   0.00000
         Item               Value     Threshold  Converged?
 Maximum Force            0.040504     0.000450     NO 
 RMS     Force            0.011716     0.000300     NO 
 Maximum Displacement     0.042573     0.001800     NO 
 RMS     Displacement     0.017971     0.001200     NO 
 Predicted change in Energy=-2.583930D-03
 GradGradGradGradGradGradGradGradGradGradGradGradGradGradGradGradGradGrad

                          Input orientation:                          
 ---------------------------------------------------------------------
 Center     Atomic      Atomic             Coordinates (Angstroms)
 Number     Number       Type             X           Y           Z
 ---------------------------------------------------------------------
      1          6           0        1.006906    0.004293    0.000000
      2          7           0        0.389238   -1.189781    0.000000
      3          7           0       -0.935327   -0.976458    0.000000
      4          7           0       -1.096606    0.291983    0.000000
      5          7           0        0.094262    0.943723    0.000000
      6          1           0        2.076728    0.142901    0.000000
      7          1           0        0.757256   -2.127042    0.000000
 ---------------------------------------------------------------------
                    Distance matrix (angstroms):
                    1          2          3          4          5
     1  C    0.000000
     2  N    1.344369   0.000000
     3  N    2.175808   1.341633   0.000000
     4  N    2.123094   2.098418   1.278652   0.000000
     5  N    1.309751   2.153799   2.178795   1.357547   0.000000
     6  H    1.078763   2.150270   3.213322   3.176834   2.138103
     7  H    2.145906   1.006923   2.046626   3.047701   3.141521
                    6          7
     6  H    0.000000
     7  H    2.625575   0.000000
 Stoichiometry    CH2N4
 Framework group  CS[SG(CH2N4)]
 Deg. of freedom    11
 Full point group                 CS      NOp   2
 Largest Abelian subgroup         CS      NOp   2
 Largest concise Abelian subgroup C1      NOp   1
                         Standard orientation:                         
 ---------------------------------------------------------------------
 Center     Atomic      Atomic             Coordinates (Angstroms)
 Number     Number       Type             X           Y           Z
 ---------------------------------------------------------------------
      1          6           0        1.063528    0.230236    0.000000
      2          7           0        0.000000    1.052572    0.000000
      3          7           0       -1.111140    0.300676    0.000000
      4          7           0       -0.722587   -0.917511    0.000000
      5          7           0        0.632046   -1.006401    0.000000
      6          1           0        2.092053    0.555606    0.000000
      7          1           0       -0.061456    2.057618    0.000000
 ---------------------------------------------------------------------
 Rotational constants (GHZ):     10.6211813     10.4394073      5.2647549
 Standard basis: 6-31G(2df,p) (6D, 7F)
 There are   113 symmetry adapted cartesian basis functions of A'  symmetry.
 There are    52 symmetry adapted cartesian basis functions of A"  symmetry.
 There are   103 symmetry adapted basis functions of A'  symmetry.
 There are    47 symmetry adapted basis functions of A"  symmetry.
   150 basis functions,   234 primitive gaussians,   165 cartesian basis functions
    18 alpha electrons       18 beta electrons
       nuclear repulsion energy       167.4692956622 Hartrees.
 NAtoms=    7 NActive=    7 NUniq=    7 SFac= 1.00D+00 NAtFMM=   60 NAOKFM=F Big=F
 Integral buffers will be    131072 words long.
 Raffenetti 2 integral format.
 Two-electron integral symmetry is turned on.
 One-electron integrals computed using PRISM.
 NBasis=   150 RedAO= T EigKep=  2.91D-04  NBF=   103    47
 NBsUse=   150 1.00D-06 EigRej= -1.00D+00 NBFU=   103    47
 Initial guess from the checkpoint file:  "/tmp/rdj3/g09-9462/Gau-7617.chk"
 B after Tr=     0.000000    0.000000    0.000000
         Rot=    1.000000    0.000000    0.000000   -0.000234 Ang=  -0.03 deg.
 Initial guess orbital symmetries:
       Occupied  (A') (A') (A') (A') (A') (A') (A') (A') (A') (A')
                 (A') (A") (A') (A') (A") (A") (A') (A')
       Virtual   (A') (A') (A') (A') (A') (A') (A') (A') (A') (A')
                 (A') (A') (A') (A') (A') (A') (A') (A') (A') (A')
                 (A') (A') (A') (A') (A') (A') (A') (A') (A') (A')
                 (A') (A') (A') (A') (A') (A') (A') (A') (A') (A')
                 (A') (A') (A') (A') (A') (A') (A') (A') (A') (A')
                 (A') (A') (A') (A') (A') (A') (A') (A') (A') (A')
                 (A') (A') (A') (A') (A') (A') (A') (A') (A') (A')
                 (A') (A') (A') (A') (A') (A') (A') (A') (A') (A')
                 (A') (A') (A') (A') (A') (A') (A') (A') (A") (A")
                 (A") (A") (A") (A") (A") (A") (A") (A") (A") (A")
                 (A") (A") (A") (A") (A") (A") (A") (A") (A") (A")
                 (A") (A") (A") (A") (A") (A") (A") (A") (A") (A")
                 (A") (A") (A") (A") (A") (A") (A") (A") (A") (A")
                 (A") (A")
 ExpMin= 1.61D-01 ExpMax= 4.17D+03 ExpMxC= 6.27D+02 IAcc=1 IRadAn=         1 AccDes= 0.00D+00
 Harris functional with IExCor=  408 and IRadAn=       1 diagonalized for initial guess.
 HarFok:  IExCor=  408 AccDes= 0.00D+00 IRadAn=         1 IDoV= 1 UseB2=F ITyADJ=14
 ICtDFT=  3500011 ScaDFX=  1.000000  1.000000  1.000000  1.000000
 FoFCou: FMM=F IPFlag=           0 FMFlag=      100000 FMFlg1=           0
         NFxFlg=           0 DoJE=T BraDBF=F KetDBF=T FulRan=T
         wScrn=  0.000000 ICntrl=     500 IOpCl=  0 I1Cent=   200000004 NGrid=           0
         NMat0=    1 NMatS0=      1 NMatT0=    0 NMatD0=    1 NMtDS0=    0 NMtDT0=    0
 Petite list used in FoFCou.
 Keep R1 ints in memory in symmetry-blocked form, NReq=97005431.
 Requested convergence on RMS density matrix=1.00D-08 within 128 cycles.
 Requested convergence on MAX density matrix=1.00D-06.
 Requested convergence on             energy=1.00D-06.
 No special actions if energy rises.
 Integral accuracy reduced to 1.0D-05 until final iterations.
 Initial convergence to 1.0D-05 achieved.  Increase integral accuracy.
 SCF Done:  E(RB3PW91) =  -258.172358190     A.U. after   11 cycles
            NFock= 11  Conv=0.58D-08     -V/T= 2.0066
 Calling FoFJK, ICntrl=      2127 FMM=F ISym2X=1 I1Cent= 0 IOpClX= 0 NMat=1 NMatS=1 NMatT=0.
 ***** Axes restored to original set *****
 -------------------------------------------------------------------
 Center     Atomic                   Forces (Hartrees/Bohr)
 Number     Number              X              Y              Z
 -------------------------------------------------------------------
      1        6           0.001580605   -0.002917893    0.000000000
      2        7           0.001401587    0.003948424    0.000000000
      3        7          -0.001212796   -0.008292855    0.000000000
      4        7          -0.000783909    0.006639511    0.000000000
      5        7          -0.000622958    0.000681309    0.000000000
      6        1          -0.000280221   -0.000128944    0.000000000
      7        1          -0.000082307    0.000070448    0.000000000
 -------------------------------------------------------------------
 Cartesian Forces:  Max     0.008292855 RMS     0.002622848

 GradGradGradGradGradGradGradGradGradGradGradGradGradGradGradGradGradGrad
 Berny optimization.
 Using GEDIIS/GDIIS optimizer.
 FormGI is forming the generalized inverse of G from B-inverse, IUseBI=4.
 Internal  Forces:  Max     0.006357751 RMS     0.001513073
 Search for a local minimum.
 Step number   2 out of a maximum of   36
 All quantities printed in internal units (Hartrees-Bohrs-Radians)
 Mixed Optimization -- RFO/linear search
 Update second derivatives using D2CorX and points    1    2
 DE= -2.70D-03 DEPred=-2.58D-03 R= 1.05D+00
 TightC=F SS=  1.41D+00  RLast= 8.76D-02 DXNew= 5.0454D-01 2.6282D-01
 Trust test= 1.05D+00 RLast= 8.76D-02 DXMaxT set to 3.00D-01
 ITU=  1  0
 Use linear search instead of GDIIS.
     Eigenvalues ---    0.02505   0.02640   0.02675   0.02835   0.15996
     Eigenvalues ---    0.16000   0.22559   0.24600   0.37699   0.48858
     Eigenvalues ---    0.50621   0.56048   0.60783   0.67242   0.71876
 RFO step:  Lambda=-8.57629730D-05 EMin= 2.50534806D-02
 Quartic linear search produced a step of  0.08733.
 Iteration  1 RMS(Cart)=  0.00288147 RMS(Int)=  0.00000873
 Iteration  2 RMS(Cart)=  0.00000799 RMS(Int)=  0.00000386
 Iteration  3 RMS(Cart)=  0.00000000 RMS(Int)=  0.00000386
 ClnCor:  largest displacement from symmetrization is 3.38D-12 for atom     1.
 Variable       Old X    -DE/DX   Delta X   Delta X   Delta X     New X
                                 (Linear)    (Quad)   (Total)
    R1        2.54049  -0.00181   0.00233  -0.00590  -0.00358   2.53691
    R2        2.47507   0.00149   0.00339  -0.00068   0.00270   2.47777
    R3        2.03857  -0.00029   0.00181  -0.00212  -0.00031   2.03826
    R4        2.53532   0.00113   0.00256   0.00010   0.00267   2.53799
    R5        1.90281  -0.00010   0.00212  -0.00175   0.00036   1.90317
    R6        2.41630   0.00636   0.00439   0.00567   0.01006   2.42637
    R7        2.56539   0.00035   0.00266  -0.00069   0.00197   2.56736
    A1        1.89328   0.00016   0.00046  -0.00330  -0.00285   1.89044
    A2        2.17701  -0.00018  -0.00044   0.00106   0.00062   2.17763
    A3        2.21289   0.00003  -0.00001   0.00224   0.00223   2.21512
    A4        1.88849   0.00212   0.00030   0.00771   0.00801   1.89650
    A5        2.29006  -0.00100  -0.00003  -0.00353  -0.00356   2.28651
    A6        2.10463  -0.00112  -0.00027  -0.00418  -0.00445   2.10018
    A7        1.85695  -0.00211  -0.00044  -0.00686  -0.00729   1.84965
    A8        1.94508  -0.00072   0.00011   0.00041   0.00052   1.94560
    A9        1.84098   0.00056  -0.00042   0.00204   0.00161   1.84259
    D1        0.00000   0.00000   0.00000   0.00000   0.00000   0.00000
    D2        3.14159   0.00000   0.00000   0.00000   0.00000   3.14159
    D3        3.14159   0.00000   0.00000   0.00000   0.00000   3.14159
    D4        0.00000   0.00000   0.00000   0.00000   0.00000   0.00000
    D5        0.00000   0.00000   0.00000   0.00000   0.00000   0.00000
    D6        3.14159   0.00000   0.00000   0.00000   0.00000   3.14159
    D7        0.00000   0.00000   0.00000   0.00000   0.00000   0.00000
    D8        3.14159   0.00000   0.00000   0.00000   0.00000   3.14159
    D9        0.00000   0.00000   0.00000   0.00000   0.00000   0.00000
   D10        0.00000   0.00000   0.00000   0.00000   0.00000   0.00000
         Item               Value     Threshold  Converged?
 Maximum Force            0.006358     0.000450     NO 
 RMS     Force            0.001513     0.000300     NO 
 Maximum Displacement     0.008446     0.001800     NO 
 RMS     Displacement     0.002881     0.001200     NO 
 Predicted change in Energy=-5.822532D-05
 GradGradGradGradGradGradGradGradGradGradGradGradGradGradGradGradGradGrad

                          Input orientation:                          
 ---------------------------------------------------------------------
 Center     Atomic      Atomic             Coordinates (Angstroms)
 Number     Number       Type             X           Y           Z
 ---------------------------------------------------------------------
      1          6           0        1.008583    0.003920    0.000000
      2          7           0        0.388954   -1.187004    0.000000
      3          7           0       -0.938187   -0.980927    0.000000
      4          7           0       -1.098024    0.293062    0.000000
      5          7           0        0.094499    0.943946    0.000000
      6          1           0        2.078484    0.140629    0.000000
      7          1           0        0.758148   -2.124008    0.000000
 ---------------------------------------------------------------------
                    Distance matrix (angstroms):
                    1          2          3          4          5
     1  C    0.000000
     2  N    1.342476   0.000000
     3  N    2.181706   1.343045   0.000000
     4  N    2.126357   2.098023   1.283977   0.000000
     5  N    1.311182   2.151198   2.184394   1.358588   0.000000
     6  H    1.078599   2.148749   3.218415   3.180163   2.140447
     7  H    2.142614   1.007115   2.045528   3.047557   3.138912
                    6          7
     6  H    0.000000
     7  H    2.621424   0.000000
 Stoichiometry    CH2N4
 Framework group  CS[SG(CH2N4)]
 Deg. of freedom    11
 Full point group                 CS      NOp   2
 Largest Abelian subgroup         CS      NOp   2
 Largest concise Abelian subgroup C1      NOp   1
                         Standard orientation:                         
 ---------------------------------------------------------------------
 Center     Atomic      Atomic             Coordinates (Angstroms)
 Number     Number       Type             X           Y           Z
 ---------------------------------------------------------------------
      1          6           0        1.065073    0.232806    0.000000
      2          7           0        0.000000    1.050035    0.000000
      3          7           0       -1.115531    0.302131    0.000000
      4          7           0       -0.721696   -0.919954    0.000000
      5          7           0        0.634193   -1.005556    0.000000
      6          1           0        2.092431    0.561306    0.000000
      7          1           0       -0.061626    2.055262    0.000000
 ---------------------------------------------------------------------
 Rotational constants (GHZ):     10.6105398     10.4098163      5.2546098
 Standard basis: 6-31G(2df,p) (6D, 7F)
 There are   113 symmetry adapted cartesian basis functions of A'  symmetry.
 There are    52 symmetry adapted cartesian basis functions of A"  symmetry.
 There are   103 symmetry adapted basis functions of A'  symmetry.
 There are    47 symmetry adapted basis functions of A"  symmetry.
   150 basis functions,   234 primitive gaussians,   165 cartesian basis functions
    18 alpha electrons       18 beta electrons
       nuclear repulsion energy       167.2983568102 Hartrees.
 NAtoms=    7 NActive=    7 NUniq=    7 SFac= 1.00D+00 NAtFMM=   60 NAOKFM=F Big=F
 Integral buffers will be    131072 words long.
 Raffenetti 2 integral format.
 Two-electron integral symmetry is turned on.
 One-electron integrals computed using PRISM.
 NBasis=   150 RedAO= T EigKep=  2.93D-04  NBF=   103    47
 NBsUse=   150 1.00D-06 EigRej= -1.00D+00 NBFU=   103    47
 Initial guess from the checkpoint file:  "/tmp/rdj3/g09-9462/Gau-7617.chk"
 B after Tr=     0.000000    0.000000    0.000000
         Rot=    1.000000    0.000000    0.000000   -0.000584 Ang=  -0.07 deg.
 Initial guess orbital symmetries:
       Occupied  (A') (A') (A') (A') (A') (A') (A') (A') (A') (A')
                 (A') (A") (A') (A') (A") (A") (A') (A')
       Virtual   (A') (A') (A') (A') (A') (A') (A') (A') (A') (A')
                 (A') (A') (A') (A') (A') (A') (A') (A') (A') (A')
                 (A') (A') (A') (A') (A') (A') (A') (A') (A') (A')
                 (A') (A') (A') (A') (A') (A') (A') (A') (A') (A')
                 (A') (A') (A') (A') (A') (A') (A') (A') (A') (A')
                 (A') (A') (A') (A') (A') (A') (A') (A') (A') (A')
                 (A') (A') (A') (A') (A') (A') (A') (A') (A') (A')
                 (A') (A') (A') (A') (A') (A') (A') (A') (A') (A')
                 (A') (A') (A') (A') (A') (A') (A') (A') (A") (A")
                 (A") (A") (A") (A") (A") (A") (A") (A") (A") (A")
                 (A") (A") (A") (A") (A") (A") (A") (A") (A") (A")
                 (A") (A") (A") (A") (A") (A") (A") (A") (A") (A")
                 (A") (A") (A") (A") (A") (A") (A") (A") (A") (A")
                 (A") (A")
 Keep R1 ints in memory in symmetry-blocked form, NReq=97005431.
 Requested convergence on RMS density matrix=1.00D-08 within 128 cycles.
 Requested convergence on MAX density matrix=1.00D-06.
 Requested convergence on             energy=1.00D-06.
 No special actions if energy rises.
 SCF Done:  E(RB3PW91) =  -258.172420602     A.U. after    9 cycles
            NFock=  9  Conv=0.74D-08     -V/T= 2.0067
 Calling FoFJK, ICntrl=      2127 FMM=F ISym2X=1 I1Cent= 0 IOpClX= 0 NMat=1 NMatS=1 NMatT=0.
 ***** Axes restored to original set *****
 -------------------------------------------------------------------
 Center     Atomic                   Forces (Hartrees/Bohr)
 Number     Number              X              Y              Z
 -------------------------------------------------------------------
      1        6          -0.000792589   -0.001693732    0.000000000
      2        7           0.000414363    0.000203049    0.000000000
      3        7           0.001737664   -0.001460541    0.000000000
      4        7           0.000591287    0.003136043    0.000000000
      5        7          -0.001758003   -0.000266924    0.000000000
      6        1          -0.000226041   -0.000030009    0.000000000
      7        1           0.000033320    0.000112114    0.000000000
 -------------------------------------------------------------------
 Cartesian Forces:  Max     0.003136043 RMS     0.001029896

 GradGradGradGradGradGradGradGradGradGradGradGradGradGradGradGradGradGrad
 Berny optimization.
 Using GEDIIS/GDIIS optimizer.
 FormGI is forming the generalized inverse of G from B-inverse, IUseBI=4.
 Internal  Forces:  Max     0.002049959 RMS     0.000715642
 Search for a local minimum.
 Step number   3 out of a maximum of   36
 All quantities printed in internal units (Hartrees-Bohrs-Radians)
 Mixed Optimization -- En-DIIS/RFO-DIIS
 Update second derivatives using D2CorX and points    1    2    3
 DE= -6.24D-05 DEPred=-5.82D-05 R= 1.07D+00
 TightC=F SS=  1.41D+00  RLast= 1.73D-02 DXNew= 5.0454D-01 5.1843D-02
 Trust test= 1.07D+00 RLast= 1.73D-02 DXMaxT set to 3.00D-01
 ITU=  1  1  0
 Use linear search instead of GDIIS.
     Eigenvalues ---    0.02505   0.02638   0.02675   0.02835   0.15975
     Eigenvalues ---    0.16008   0.24051   0.30102   0.37583   0.37861
     Eigenvalues ---    0.49226   0.52452   0.62125   0.67945   0.70298
 RFO step:  Lambda=-2.92104625D-05 EMin= 2.50528500D-02
 Quartic linear search produced a step of  0.05895.
 Iteration  1 RMS(Cart)=  0.00171025 RMS(Int)=  0.00000101
 Iteration  2 RMS(Cart)=  0.00000072 RMS(Int)=  0.00000060
 ClnCor:  largest displacement from symmetrization is 7.80D-13 for atom     1.
 Variable       Old X    -DE/DX   Delta X   Delta X   Delta X     New X
                                 (Linear)    (Quad)   (Total)
    R1        2.53691  -0.00133  -0.00021  -0.00300  -0.00321   2.53370
    R2        2.47777   0.00087   0.00016   0.00189   0.00205   2.47983
    R3        2.03826  -0.00023  -0.00002  -0.00055  -0.00057   2.03769
    R4        2.53799  -0.00079   0.00016  -0.00071  -0.00056   2.53743
    R5        1.90317  -0.00009   0.00002   0.00002   0.00004   1.90321
    R6        2.42637   0.00205   0.00059   0.00482   0.00541   2.43178
    R7        2.56736  -0.00184   0.00012  -0.00278  -0.00266   2.56470
    A1        1.89044   0.00075  -0.00017   0.00228   0.00211   1.89255
    A2        2.17763  -0.00039   0.00004  -0.00138  -0.00134   2.17629
    A3        2.21512  -0.00036   0.00013  -0.00090  -0.00077   2.21434
    A4        1.89650  -0.00061   0.00047  -0.00198  -0.00151   1.89499
    A5        2.28651   0.00025  -0.00021   0.00069   0.00048   2.28698
    A6        2.10018   0.00037  -0.00026   0.00129   0.00103   2.10121
    A7        1.84965   0.00063  -0.00043   0.00205   0.00162   1.85127
    A8        1.94560  -0.00083   0.00003  -0.00257  -0.00254   1.94306
    A9        1.84259   0.00006   0.00009   0.00022   0.00032   1.84291
    D1        0.00000   0.00000   0.00000   0.00000   0.00000   0.00000
    D2        3.14159   0.00000   0.00000   0.00000   0.00000   3.14159
    D3        3.14159   0.00000   0.00000   0.00000   0.00000   3.14159
    D4        0.00000   0.00000   0.00000   0.00000   0.00000   0.00000
    D5        0.00000   0.00000   0.00000   0.00000   0.00000   0.00000
    D6        3.14159   0.00000   0.00000   0.00000   0.00000   3.14159
    D7        0.00000   0.00000   0.00000   0.00000   0.00000   0.00000
    D8        3.14159   0.00000   0.00000   0.00000   0.00000   3.14159
    D9        0.00000   0.00000   0.00000   0.00000   0.00000   0.00000
   D10        0.00000   0.00000   0.00000   0.00000   0.00000   0.00000
         Item               Value     Threshold  Converged?
 Maximum Force            0.002050     0.000450     NO 
 RMS     Force            0.000716     0.000300     NO 
 Maximum Displacement     0.005059     0.001800     NO 
 RMS     Displacement     0.001710     0.001200     NO 
 Predicted change in Energy=-1.478752D-05
 GradGradGradGradGradGradGradGradGradGradGradGradGradGradGradGradGradGrad

                          Input orientation:                          
 ---------------------------------------------------------------------
 Center     Atomic      Atomic             Coordinates (Angstroms)
 Number     Number       Type             X           Y           Z
 ---------------------------------------------------------------------
      1          6           0        1.007457    0.002729    0.000000
      2          7           0        0.389979   -1.187398    0.000000
      3          7           0       -0.936798   -0.980890    0.000000
      4          7           0       -1.098597    0.295740    0.000000
      5          7           0        0.093524    0.944417    0.000000
      6          1           0        2.077084    0.139193    0.000000
      7          1           0        0.759807   -2.124172    0.000000
 ---------------------------------------------------------------------
                    Distance matrix (angstroms):
                    1          2          3          4          5
     1  C    0.000000
     2  N    1.340776   0.000000
     3  N    2.178906   1.342751   0.000000
     4  N    2.126339   2.101322   1.286842   0.000000
     5  N    1.312268   2.152328   2.183660   1.357179   0.000000
     6  H    1.078296   2.146198   3.215286   3.179537   2.140769
     7  H    2.141271   1.007135   2.045865   3.051170   3.140091
                    6          7
     6  H    0.000000
     7  H    2.618786   0.000000
 Stoichiometry    CH2N4
 Framework group  CS[SG(CH2N4)]
 Deg. of freedom    11
 Full point group                 CS      NOp   2
 Largest Abelian subgroup         CS      NOp   2
 Largest concise Abelian subgroup C1      NOp   1
                         Standard orientation:                         
 ---------------------------------------------------------------------
 Center     Atomic      Atomic             Coordinates (Angstroms)
 Number     Number       Type             X           Y           Z
 ---------------------------------------------------------------------
      1          6           0        1.063289    0.234340    0.000000
      2          7           0        0.000000    1.051102    0.000000
      3          7           0       -1.114559    0.302276    0.000000
      4          7           0       -0.720631   -0.922789    0.000000
      5          7           0        0.634011   -1.005728    0.000000
      6          1           0        2.090092    0.563578    0.000000
      7          1           0       -0.061573    2.056352    0.000000
 ---------------------------------------------------------------------
 Rotational constants (GHZ):     10.5906922     10.4256174      5.2537533
 Standard basis: 6-31G(2df,p) (6D, 7F)
 There are   113 symmetry adapted cartesian basis functions of A'  symmetry.
 There are    52 symmetry adapted cartesian basis functions of A"  symmetry.
 There are   103 symmetry adapted basis functions of A'  symmetry.
 There are    47 symmetry adapted basis functions of A"  symmetry.
   150 basis functions,   234 primitive gaussians,   165 cartesian basis functions
    18 alpha electrons       18 beta electrons
       nuclear repulsion energy       167.2786597399 Hartrees.
 NAtoms=    7 NActive=    7 NUniq=    7 SFac= 1.00D+00 NAtFMM=   60 NAOKFM=F Big=F
 Integral buffers will be    131072 words long.
 Raffenetti 2 integral format.
 Two-electron integral symmetry is turned on.
 One-electron integrals computed using PRISM.
 NBasis=   150 RedAO= T EigKep=  2.93D-04  NBF=   103    47
 NBsUse=   150 1.00D-06 EigRej= -1.00D+00 NBFU=   103    47
 Initial guess from the checkpoint file:  "/tmp/rdj3/g09-9462/Gau-7617.chk"
 B after Tr=     0.000000    0.000000    0.000000
         Rot=    1.000000    0.000000    0.000000   -0.000325 Ang=  -0.04 deg.
 Initial guess orbital symmetries:
       Occupied  (A') (A') (A') (A') (A') (A') (A') (A') (A') (A')
                 (A') (A") (A') (A') (A") (A") (A') (A')
       Virtual   (A') (A') (A') (A') (A') (A') (A') (A') (A') (A')
                 (A') (A') (A') (A') (A') (A') (A') (A') (A') (A')
                 (A') (A') (A') (A') (A') (A') (A') (A') (A') (A')
                 (A') (A') (A') (A') (A') (A') (A') (A') (A') (A')
                 (A') (A') (A') (A') (A') (A') (A') (A') (A') (A')
                 (A') (A') (A') (A') (A') (A') (A') (A') (A') (A')
                 (A') (A') (A') (A') (A') (A') (A') (A') (A') (A')
                 (A') (A') (A') (A') (A') (A') (A') (A') (A') (A')
                 (A') (A') (A') (A') (A') (A') (A') (A') (A") (A")
                 (A") (A") (A") (A") (A") (A") (A") (A") (A") (A")
                 (A") (A") (A") (A") (A") (A") (A") (A") (A") (A")
                 (A") (A") (A") (A") (A") (A") (A") (A") (A") (A")
                 (A") (A") (A") (A") (A") (A") (A") (A") (A") (A")
                 (A") (A")
 Keep R1 ints in memory in symmetry-blocked form, NReq=97005431.
 Requested convergence on RMS density matrix=1.00D-08 within 128 cycles.
 Requested convergence on MAX density matrix=1.00D-06.
 Requested convergence on             energy=1.00D-06.
 No special actions if energy rises.
 SCF Done:  E(RB3PW91) =  -258.172432525     A.U. after    9 cycles
            NFock=  9  Conv=0.59D-08     -V/T= 2.0067
 Calling FoFJK, ICntrl=      2127 FMM=F ISym2X=1 I1Cent= 0 IOpClX= 0 NMat=1 NMatS=1 NMatT=0.
 ***** Axes restored to original set *****
 -------------------------------------------------------------------
 Center     Atomic                   Forces (Hartrees/Bohr)
 Number     Number              X              Y              Z
 -------------------------------------------------------------------
      1        6           0.000137948    0.000113546    0.000000000
      2        7          -0.001018552    0.000680898    0.000000000
      3        7           0.000047980   -0.000233630    0.000000000
      4        7           0.001740369   -0.000191851    0.000000000
      5        7          -0.000836464   -0.000641962    0.000000000
      6        1           0.000009850    0.000140627    0.000000000
      7        1          -0.000081130    0.000132372    0.000000000
 -------------------------------------------------------------------
 Cartesian Forces:  Max     0.001740369 RMS     0.000526051

 GradGradGradGradGradGradGradGradGradGradGradGradGradGradGradGradGradGrad
 Berny optimization.
 Using GEDIIS/GDIIS optimizer.
 FormGI is forming the generalized inverse of G from B-inverse, IUseBI=4.
 Internal  Forces:  Max     0.001076541 RMS     0.000377679
 Search for a local minimum.
 Step number   4 out of a maximum of   36
 All quantities printed in internal units (Hartrees-Bohrs-Radians)
 Mixed Optimization -- En-DIIS/RFO-DIIS
 Swapping is turned off.
 Update second derivatives using D2CorX and points    1    2    3    4
 DE= -1.19D-05 DEPred=-1.48D-05 R= 8.06D-01
 TightC=F SS=  1.41D+00  RLast= 8.44D-03 DXNew= 5.0454D-01 2.5310D-02
 Trust test= 8.06D-01 RLast= 8.44D-03 DXMaxT set to 3.00D-01
 ITU=  1  1  1  0
     Eigenvalues ---    0.02505   0.02638   0.02675   0.02835   0.16006
     Eigenvalues ---    0.16059   0.23906   0.25298   0.37613   0.47497
     Eigenvalues ---    0.49529   0.53209   0.61261   0.67824   0.70681
 En-DIIS/RFO-DIIS IScMMF=        0 using points:     4    3
 RFO step:  Lambda=-4.97278407D-06.
 DidBck=F Rises=F RFO-DIIS coefs:    0.84313    0.15687
 Iteration  1 RMS(Cart)=  0.00071248 RMS(Int)=  0.00000044
 Iteration  2 RMS(Cart)=  0.00000030 RMS(Int)=  0.00000026
 ClnCor:  largest displacement from symmetrization is 1.63D-13 for atom     1.
 Variable       Old X    -DE/DX   Delta X   Delta X   Delta X     New X
                                 (Linear)    (Quad)   (Total)
    R1        2.53370   0.00003   0.00050  -0.00090  -0.00039   2.53331
    R2        2.47983  -0.00051  -0.00032   0.00011  -0.00021   2.47962
    R3        2.03769   0.00003   0.00009  -0.00010  -0.00001   2.03768
    R4        2.53743  -0.00077   0.00009  -0.00127  -0.00118   2.53625
    R5        1.90321  -0.00015  -0.00001  -0.00023  -0.00024   1.90297
    R6        2.43178  -0.00047  -0.00085   0.00118   0.00033   2.43211
    R7        2.56470  -0.00108   0.00042  -0.00258  -0.00216   2.56253
    A1        1.89255  -0.00034  -0.00033  -0.00024  -0.00057   1.89198
    A2        2.17629   0.00030   0.00021   0.00071   0.00092   2.17722
    A3        2.21434   0.00004   0.00012  -0.00048  -0.00036   2.21399
    A4        1.89499   0.00040   0.00024   0.00103   0.00126   1.89625
    A5        2.28698  -0.00016  -0.00008  -0.00043  -0.00051   2.28648
    A6        2.10121  -0.00023  -0.00016  -0.00060  -0.00076   2.10045
    A7        1.85127  -0.00066  -0.00025  -0.00164  -0.00189   1.84938
    A8        1.94306   0.00075   0.00040   0.00129   0.00169   1.94475
    A9        1.84291  -0.00014  -0.00005  -0.00044  -0.00049   1.84242
    D1        0.00000   0.00000   0.00000   0.00000   0.00000   0.00000
    D2        3.14159   0.00000   0.00000   0.00000   0.00000   3.14159
    D3        3.14159   0.00000   0.00000   0.00000   0.00000   3.14159
    D4        0.00000   0.00000   0.00000   0.00000   0.00000   0.00000
    D5        0.00000   0.00000   0.00000   0.00000   0.00000   0.00000
    D6        3.14159   0.00000   0.00000   0.00000   0.00000   3.14159
    D7        0.00000   0.00000   0.00000   0.00000   0.00000   0.00000
    D8        3.14159   0.00000   0.00000   0.00000   0.00000   3.14159
    D9        0.00000   0.00000   0.00000   0.00000   0.00000   0.00000
   D10        0.00000   0.00000   0.00000   0.00000   0.00000   0.00000
         Item               Value     Threshold  Converged?
 Maximum Force            0.001077     0.000450     NO 
 RMS     Force            0.000378     0.000300     NO 
 Maximum Displacement     0.002540     0.001800     NO 
 RMS     Displacement     0.000713     0.001200     YES
 Predicted change in Energy=-3.504138D-06
 GradGradGradGradGradGradGradGradGradGradGradGradGradGradGradGradGradGrad

                          Input orientation:                          
 ---------------------------------------------------------------------
 Center     Atomic      Atomic             Coordinates (Angstroms)
 Number     Number       Type             X           Y           Z
 ---------------------------------------------------------------------
      1          6           0        1.007420    0.002653    0.000000
      2          7           0        0.389444   -1.186981    0.000000
      3          7           0       -0.936870   -0.981586    0.000000
      4          7           0       -1.097253    0.295400    0.000000
      5          7           0        0.093499    0.944197    0.000000
      6          1           0        2.076983    0.139571    0.000000
      7          1           0        0.759234   -2.123635    0.000000
 ---------------------------------------------------------------------
                    Distance matrix (angstroms):
                    1          2          3          4          5
     1  C    0.000000
     2  N    1.340568   0.000000
     3  N    2.179218   1.342124   0.000000
     4  N    2.124935   2.099457   1.287017   0.000000
     5  N    1.312157   2.151629   2.184102   1.356034   0.000000
     6  H    1.078291   2.146516   3.215634   3.178058   2.140475
     7  H    2.140723   1.007008   2.044761   3.049307   3.139236
                    6          7
     6  H    0.000000
     7  H    2.618886   0.000000
 Stoichiometry    CH2N4
 Framework group  CS[SG(CH2N4)]
 Deg. of freedom    11
 Full point group                 CS      NOp   2
 Largest Abelian subgroup         CS      NOp   2
 Largest concise Abelian subgroup C1      NOp   1
                         Standard orientation:                         
 ---------------------------------------------------------------------
 Center     Atomic      Atomic             Coordinates (Angstroms)
 Number     Number       Type             X           Y           Z
 ---------------------------------------------------------------------
      1          6           0        1.063261    0.233858    0.000000
      2          7           0        0.000000    1.050314    0.000000
      3          7           0       -1.114858    0.303060    0.000000
      4          7           0       -0.719902   -0.921858    0.000000
      5          7           0        0.633524   -1.005934    0.000000
      6          1           0        2.090308    0.562317    0.000000
      7          1           0       -0.061224    2.055459    0.000000
 ---------------------------------------------------------------------
 Rotational constants (GHZ):     10.6053804     10.4235280      5.2568339
 Standard basis: 6-31G(2df,p) (6D, 7F)
 There are   113 symmetry adapted cartesian basis functions of A'  symmetry.
 There are    52 symmetry adapted cartesian basis functions of A"  symmetry.
 There are   103 symmetry adapted basis functions of A'  symmetry.
 There are    47 symmetry adapted basis functions of A"  symmetry.
   150 basis functions,   234 primitive gaussians,   165 cartesian basis functions
    18 alpha electrons       18 beta electrons
       nuclear repulsion energy       167.3262880487 Hartrees.
 NAtoms=    7 NActive=    7 NUniq=    7 SFac= 1.00D+00 NAtFMM=   60 NAOKFM=F Big=F
 Integral buffers will be    131072 words long.
 Raffenetti 2 integral format.
 Two-electron integral symmetry is turned on.
 One-electron integrals computed using PRISM.
 NBasis=   150 RedAO= T EigKep=  2.93D-04  NBF=   103    47
 NBsUse=   150 1.00D-06 EigRej= -1.00D+00 NBFU=   103    47
 Initial guess from the checkpoint file:  "/tmp/rdj3/g09-9462/Gau-7617.chk"
 B after Tr=     0.000000    0.000000    0.000000
         Rot=    1.000000    0.000000    0.000000    0.000155 Ang=   0.02 deg.
 Initial guess orbital symmetries:
       Occupied  (A') (A') (A') (A') (A') (A') (A') (A') (A') (A')
                 (A') (A") (A') (A') (A") (A") (A') (A')
       Virtual   (A') (A') (A') (A') (A') (A') (A') (A') (A') (A')
                 (A') (A') (A') (A') (A') (A') (A') (A') (A') (A')
                 (A') (A') (A') (A') (A') (A') (A') (A') (A') (A')
                 (A') (A') (A') (A') (A') (A') (A') (A') (A') (A')
                 (A') (A') (A') (A') (A') (A') (A') (A') (A') (A')
                 (A') (A') (A') (A') (A') (A') (A') (A') (A') (A')
                 (A') (A') (A') (A') (A') (A') (A') (A') (A') (A')
                 (A') (A') (A') (A') (A') (A') (A') (A') (A') (A')
                 (A') (A') (A') (A') (A') (A') (A') (A') (A") (A")
                 (A") (A") (A") (A") (A") (A") (A") (A") (A") (A")
                 (A") (A") (A") (A") (A") (A") (A") (A") (A") (A")
                 (A") (A") (A") (A") (A") (A") (A") (A") (A") (A")
                 (A") (A") (A") (A") (A") (A") (A") (A") (A") (A")
                 (A") (A")
 Keep R1 ints in memory in symmetry-blocked form, NReq=97005431.
 Requested convergence on RMS density matrix=1.00D-08 within 128 cycles.
 Requested convergence on MAX density matrix=1.00D-06.
 Requested convergence on             energy=1.00D-06.
 No special actions if energy rises.
 SCF Done:  E(RB3PW91) =  -258.172436319     A.U. after    8 cycles
            NFock=  8  Conv=0.67D-08     -V/T= 2.0067
 Calling FoFJK, ICntrl=      2127 FMM=F ISym2X=1 I1Cent= 0 IOpClX= 0 NMat=1 NMatS=1 NMatT=0.
 ***** Axes restored to original set *****
 -------------------------------------------------------------------
 Center     Atomic                   Forces (Hartrees/Bohr)
 Number     Number              X              Y              Z
 -------------------------------------------------------------------
      1        6           0.000417354    0.000056877    0.000000000
      2        7          -0.000358449   -0.000051664    0.000000000
      3        7           0.000286074    0.000401780    0.000000000
      4        7           0.000217376    0.000096213    0.000000000
      5        7          -0.000625859   -0.000568672    0.000000000
      6        1           0.000018127    0.000041029    0.000000000
      7        1           0.000045376    0.000024438    0.000000000
 -------------------------------------------------------------------
 Cartesian Forces:  Max     0.000625859 RMS     0.000251482

 GradGradGradGradGradGradGradGradGradGradGradGradGradGradGradGradGradGrad
 Berny optimization.
 Using GEDIIS/GDIIS optimizer.
 FormGI is forming the generalized inverse of G from B-inverse, IUseBI=4.
 Internal  Forces:  Max     0.000494971 RMS     0.000162994
 Search for a local minimum.
 Step number   5 out of a maximum of   36
 All quantities printed in internal units (Hartrees-Bohrs-Radians)
 Mixed Optimization -- En-DIIS/RFO-DIIS
 Swapping is turned off.
 Update second derivatives using D2CorX and points    1    2    3    4    5
 DE= -3.79D-06 DEPred=-3.50D-06 R= 1.08D+00
 TightC=F SS=  1.41D+00  RLast= 4.10D-03 DXNew= 5.0454D-01 1.2314D-02
 Trust test= 1.08D+00 RLast= 4.10D-03 DXMaxT set to 3.00D-01
 ITU=  1  1  1  1  0
     Eigenvalues ---    0.02505   0.02638   0.02675   0.02835   0.15118
     Eigenvalues ---    0.16062   0.18311   0.37861   0.38403   0.46122
     Eigenvalues ---    0.50251   0.53326   0.56981   0.65595   0.75587
 En-DIIS/RFO-DIIS IScMMF=        0 using points:     5    4    3
 RFO step:  Lambda=-1.16257106D-06.
 DidBck=F Rises=F RFO-DIIS coefs:    1.09016   -0.06941   -0.02075
 Iteration  1 RMS(Cart)=  0.00046843 RMS(Int)=  0.00000020
 Iteration  2 RMS(Cart)=  0.00000019 RMS(Int)=  0.00000009
 ClnCor:  largest displacement from symmetrization is 1.79D-14 for atom     1.
 Variable       Old X    -DE/DX   Delta X   Delta X   Delta X     New X
                                 (Linear)    (Quad)   (Total)
    R1        2.53331   0.00001  -0.00010  -0.00009  -0.00019   2.53312
    R2        2.47962   0.00008   0.00002   0.00016   0.00019   2.47980
    R3        2.03768   0.00003  -0.00001   0.00005   0.00004   2.03772
    R4        2.53625  -0.00014  -0.00012  -0.00049  -0.00061   2.53564
    R5        1.90297  -0.00001  -0.00002  -0.00007  -0.00009   1.90288
    R6        2.43211  -0.00028   0.00014  -0.00014   0.00000   2.43211
    R7        2.56253  -0.00049  -0.00025  -0.00148  -0.00173   2.56081
    A1        1.89198  -0.00031  -0.00001  -0.00129  -0.00129   1.89069
    A2        2.17722   0.00019   0.00006   0.00096   0.00102   2.17824
    A3        2.21399   0.00013  -0.00005   0.00032   0.00028   2.21426
    A4        1.89625  -0.00005   0.00008   0.00039   0.00048   1.89673
    A5        2.28648  -0.00001  -0.00004  -0.00042  -0.00046   2.28602
    A6        2.10045   0.00007  -0.00005   0.00003  -0.00002   2.10044
    A7        1.84938   0.00021  -0.00014   0.00024   0.00011   1.84949
    A8        1.94475  -0.00017   0.00010  -0.00067  -0.00058   1.94417
    A9        1.84242   0.00033  -0.00004   0.00132   0.00129   1.84370
    D1        0.00000   0.00000   0.00000   0.00000   0.00000   0.00000
    D2        3.14159   0.00000   0.00000   0.00000   0.00000   3.14159
    D3        3.14159   0.00000   0.00000   0.00000   0.00000   3.14159
    D4        0.00000   0.00000   0.00000   0.00000   0.00000   0.00000
    D5        0.00000   0.00000   0.00000   0.00000   0.00000   0.00000
    D6        3.14159   0.00000   0.00000   0.00000   0.00000   3.14159
    D7        0.00000   0.00000   0.00000   0.00000   0.00000   0.00000
    D8        3.14159   0.00000   0.00000   0.00000   0.00000   3.14159
    D9        0.00000   0.00000   0.00000   0.00000   0.00000   0.00000
   D10        0.00000   0.00000   0.00000   0.00000   0.00000   0.00000
         Item               Value     Threshold  Converged?
 Maximum Force            0.000495     0.000450     NO 
 RMS     Force            0.000163     0.000300     YES
 Maximum Displacement     0.001634     0.001800     YES
 RMS     Displacement     0.000468     0.001200     YES
 Predicted change in Energy=-1.056716D-06
 GradGradGradGradGradGradGradGradGradGradGradGradGradGradGradGradGradGrad

                          Input orientation:                          
 ---------------------------------------------------------------------
 Center     Atomic      Atomic             Coordinates (Angstroms)
 Number     Number       Type             X           Y           Z
 ---------------------------------------------------------------------
      1          6           0        1.007792    0.002436    0.000000
      2          7           0        0.389257   -1.186795    0.000000
      3          7           0       -0.936734   -0.981404    0.000000
      4          7           0       -1.097211    0.295569    0.000000
      5          7           0        0.093063    0.943333    0.000000
      6          1           0        2.077306    0.139903    0.000000
      7          1           0        0.758983   -2.123423    0.000000
 ---------------------------------------------------------------------
                    Distance matrix (angstroms):
                    1          2          3          4          5
     1  C    0.000000
     2  N    1.340468   0.000000
     3  N    2.179248   1.341804   0.000000
     4  N    2.125315   2.099283   1.287017   0.000000
     5  N    1.312256   2.150622   2.182910   1.355120   0.000000
     6  H    1.078313   2.147006   3.215862   3.178332   2.140729
     7  H    2.140370   1.006961   2.044423   3.049095   3.138223
                    6          7
     6  H    0.000000
     7  H    2.619279   0.000000
 Stoichiometry    CH2N4
 Framework group  CS[SG(CH2N4)]
 Deg. of freedom    11
 Full point group                 CS      NOp   2
 Largest Abelian subgroup         CS      NOp   2
 Largest concise Abelian subgroup C1      NOp   1
                         Standard orientation:                         
 ---------------------------------------------------------------------
 Center     Atomic      Atomic             Coordinates (Angstroms)
 Number     Number       Type             X           Y           Z
 ---------------------------------------------------------------------
      1          6           0        1.063570    0.234110    0.000000
      2          7           0        0.000000    1.049999    0.000000
      3          7           0       -1.114591    0.302922    0.000000
      4          7           0       -0.719766   -0.922038    0.000000
      5          7           0        0.632786   -1.005423    0.000000
      6          1           0        2.090816    0.562019    0.000000
      7          1           0       -0.061239    2.055096    0.000000
 ---------------------------------------------------------------------
 Rotational constants (GHZ):     10.6048403     10.4315187      5.2587327
 Standard basis: 6-31G(2df,p) (6D, 7F)
 There are   113 symmetry adapted cartesian basis functions of A'  symmetry.
 There are    52 symmetry adapted cartesian basis functions of A"  symmetry.
 There are   103 symmetry adapted basis functions of A'  symmetry.
 There are    47 symmetry adapted basis functions of A"  symmetry.
   150 basis functions,   234 primitive gaussians,   165 cartesian basis functions
    18 alpha electrons       18 beta electrons
       nuclear repulsion energy       167.3552226251 Hartrees.
 NAtoms=    7 NActive=    7 NUniq=    7 SFac= 1.00D+00 NAtFMM=   60 NAOKFM=F Big=F
 Integral buffers will be    131072 words long.
 Raffenetti 2 integral format.
 Two-electron integral symmetry is turned on.
 One-electron integrals computed using PRISM.
 NBasis=   150 RedAO= T EigKep=  2.93D-04  NBF=   103    47
 NBsUse=   150 1.00D-06 EigRej= -1.00D+00 NBFU=   103    47
 Initial guess from the checkpoint file:  "/tmp/rdj3/g09-9462/Gau-7617.chk"
 B after Tr=     0.000000    0.000000    0.000000
         Rot=    1.000000    0.000000    0.000000    0.000003 Ang=   0.00 deg.
 Initial guess orbital symmetries:
       Occupied  (A') (A') (A') (A') (A') (A') (A') (A') (A') (A')
                 (A') (A") (A') (A') (A") (A") (A') (A')
       Virtual   (A') (A') (A') (A') (A') (A') (A') (A') (A') (A')
                 (A') (A') (A') (A') (A') (A') (A') (A') (A') (A')
                 (A') (A') (A') (A') (A') (A') (A') (A') (A') (A')
                 (A') (A') (A') (A') (A') (A') (A') (A') (A') (A')
                 (A') (A') (A') (A') (A') (A') (A') (A') (A') (A')
                 (A') (A') (A') (A') (A') (A') (A') (A') (A') (A')
                 (A') (A') (A') (A') (A') (A') (A') (A') (A') (A')
                 (A') (A') (A') (A') (A') (A') (A') (A') (A') (A')
                 (A') (A') (A') (A') (A') (A') (A') (A') (A") (A")
                 (A") (A") (A") (A") (A") (A") (A") (A") (A") (A")
                 (A") (A") (A") (A") (A") (A") (A") (A") (A") (A")
                 (A") (A") (A") (A") (A") (A") (A") (A") (A") (A")
                 (A") (A") (A") (A") (A") (A") (A") (A") (A") (A")
                 (A") (A")
 Keep R1 ints in memory in symmetry-blocked form, NReq=97005431.
 Requested convergence on RMS density matrix=1.00D-08 within 128 cycles.
 Requested convergence on MAX density matrix=1.00D-06.
 Requested convergence on             energy=1.00D-06.
 No special actions if energy rises.
 SCF Done:  E(RB3PW91) =  -258.172437224     A.U. after    8 cycles
            NFock=  8  Conv=0.54D-08     -V/T= 2.0067
 Calling FoFJK, ICntrl=      2127 FMM=F ISym2X=1 I1Cent= 0 IOpClX= 0 NMat=1 NMatS=1 NMatT=0.
 ***** Axes restored to original set *****
 -------------------------------------------------------------------
 Center     Atomic                   Forces (Hartrees/Bohr)
 Number     Number              X              Y              Z
 -------------------------------------------------------------------
      1        6           0.000056329    0.000120825    0.000000000
      2        7          -0.000113328   -0.000286199    0.000000000
      3        7           0.000050556    0.000077077    0.000000000
      4        7           0.000122065   -0.000079948    0.000000000
      5        7          -0.000115882    0.000197388    0.000000000
      6        1          -0.000024413    0.000010596    0.000000000
      7        1           0.000024673   -0.000039739    0.000000000
 -------------------------------------------------------------------
 Cartesian Forces:  Max     0.000286199 RMS     0.000097003

 GradGradGradGradGradGradGradGradGradGradGradGradGradGradGradGradGradGrad
 Berny optimization.
 Using GEDIIS/GDIIS optimizer.
 FormGI is forming the generalized inverse of G from B-inverse, IUseBI=4.
 Internal  Forces:  Max     0.000237494 RMS     0.000072139
 Search for a local minimum.
 Step number   6 out of a maximum of   36
 All quantities printed in internal units (Hartrees-Bohrs-Radians)
 Mixed Optimization -- En-DIIS/RFO-DIIS
 Swapping is turned off.
 Update second derivatives using D2CorX and points    1    2    3    4    5
                                                      6
 DE= -9.05D-07 DEPred=-1.06D-06 R= 8.56D-01
 TightC=F SS=  1.41D+00  RLast= 2.94D-03 DXNew= 5.0454D-01 8.8275D-03
 Trust test= 8.56D-01 RLast= 2.94D-03 DXMaxT set to 3.00D-01
 ITU=  1  1  1  1  1  0
     Eigenvalues ---    0.02505   0.02638   0.02675   0.02835   0.15342
     Eigenvalues ---    0.16066   0.20801   0.37937   0.39015   0.42352
     Eigenvalues ---    0.49651   0.52735   0.56587   0.71728   0.75202
 En-DIIS/RFO-DIIS IScMMF=        0 using points:     6    5    4    3
 RFO step:  Lambda=-1.82114980D-07.
 DidBck=F Rises=F RFO-DIIS coefs:    0.86719    0.15677   -0.02540    0.00145
 Iteration  1 RMS(Cart)=  0.00014865 RMS(Int)=  0.00000002
 Iteration  2 RMS(Cart)=  0.00000001 RMS(Int)=  0.00000002
 ClnCor:  largest displacement from symmetrization is 6.87D-14 for atom     1.
 Variable       Old X    -DE/DX   Delta X   Delta X   Delta X     New X
                                 (Linear)    (Quad)   (Total)
    R1        2.53312   0.00024   0.00002   0.00036   0.00038   2.53350
    R2        2.47980   0.00011  -0.00003   0.00013   0.00010   2.47990
    R3        2.03772  -0.00002   0.00000  -0.00005  -0.00006   2.03766
    R4        2.53564  -0.00007   0.00005  -0.00013  -0.00008   2.53556
    R5        1.90288   0.00004   0.00001   0.00005   0.00005   1.90294
    R6        2.43211  -0.00002   0.00000  -0.00015  -0.00015   2.43196
    R7        2.56081  -0.00005   0.00018  -0.00026  -0.00008   2.56073
    A1        1.89069   0.00006   0.00016   0.00003   0.00019   1.89087
    A2        2.17824  -0.00003  -0.00011   0.00004  -0.00008   2.17816
    A3        2.21426  -0.00003  -0.00004  -0.00007  -0.00011   2.21415
    A4        1.89673  -0.00011  -0.00003  -0.00025  -0.00028   1.89645
    A5        2.28602   0.00006   0.00005   0.00009   0.00013   2.28615
    A6        2.10044   0.00005  -0.00002   0.00017   0.00015   2.10059
    A7        1.84949   0.00005  -0.00006   0.00018   0.00012   1.84961
    A8        1.94417   0.00013   0.00012   0.00012   0.00024   1.94441
    A9        1.84370  -0.00012  -0.00018  -0.00008  -0.00026   1.84344
    D1        0.00000   0.00000   0.00000   0.00000   0.00000   0.00000
    D2        3.14159   0.00000   0.00000   0.00000   0.00000   3.14159
    D3        3.14159   0.00000   0.00000   0.00000   0.00000   3.14159
    D4        0.00000   0.00000   0.00000   0.00000   0.00000   0.00000
    D5        0.00000   0.00000   0.00000   0.00000   0.00000   0.00000
    D6        3.14159   0.00000   0.00000   0.00000   0.00000   3.14159
    D7        0.00000   0.00000   0.00000   0.00000   0.00000   0.00000
    D8        3.14159   0.00000   0.00000   0.00000   0.00000   3.14159
    D9        0.00000   0.00000   0.00000   0.00000   0.00000   0.00000
   D10        0.00000   0.00000   0.00000   0.00000   0.00000   0.00000
         Item               Value     Threshold  Converged?
 Maximum Force            0.000237     0.000450     YES
 RMS     Force            0.000072     0.000300     YES
 Maximum Displacement     0.000399     0.001800     YES
 RMS     Displacement     0.000149     0.001200     YES
 Predicted change in Energy=-1.253704D-07
 Optimization completed.
    -- Stationary point found.
                           ----------------------------
                           !   Optimized Parameters   !
                           ! (Angstroms and Degrees)  !
 --------------------------                            --------------------------
 ! Name  Definition              Value          Derivative Info.                !
 --------------------------------------------------------------------------------
 ! R1    R(1,2)                  1.3405         -DE/DX =    0.0002              !
 ! R2    R(1,5)                  1.3123         -DE/DX =    0.0001              !
 ! R3    R(1,6)                  1.0783         -DE/DX =    0.0                 !
 ! R4    R(2,3)                  1.3418         -DE/DX =   -0.0001              !
 ! R5    R(2,7)                  1.007          -DE/DX =    0.0                 !
 ! R6    R(3,4)                  1.287          -DE/DX =    0.0                 !
 ! R7    R(4,5)                  1.3551         -DE/DX =   -0.0001              !
 ! A1    A(2,1,5)              108.3284         -DE/DX =    0.0001              !
 ! A2    A(2,1,6)              124.8037         -DE/DX =    0.0                 !
 ! A3    A(5,1,6)              126.8679         -DE/DX =    0.0                 !
 ! A4    A(1,2,3)              108.6746         -DE/DX =   -0.0001              !
 ! A5    A(1,2,7)              130.9793         -DE/DX =    0.0001              !
 ! A6    A(3,2,7)              120.3461         -DE/DX =    0.0001              !
 ! A7    A(2,3,4)              105.9677         -DE/DX =    0.0                 !
 ! A8    A(3,4,5)              111.3929         -DE/DX =    0.0001              !
 ! A9    A(1,5,4)              105.6364         -DE/DX =   -0.0001              !
 ! D1    D(5,1,2,3)              0.0            -DE/DX =    0.0                 !
 ! D2    D(5,1,2,7)            180.0            -DE/DX =    0.0                 !
 ! D3    D(6,1,2,3)            180.0            -DE/DX =    0.0                 !
 ! D4    D(6,1,2,7)              0.0            -DE/DX =    0.0                 !
 ! D5    D(2,1,5,4)              0.0            -DE/DX =    0.0                 !
 ! D6    D(6,1,5,4)            180.0            -DE/DX =    0.0                 !
 ! D7    D(1,2,3,4)              0.0            -DE/DX =    0.0                 !
 ! D8    D(7,2,3,4)            180.0            -DE/DX =    0.0                 !
 ! D9    D(2,3,4,5)              0.0            -DE/DX =    0.0                 !
 ! D10   D(3,4,5,1)              0.0            -DE/DX =    0.0                 !
 --------------------------------------------------------------------------------
 GradGradGradGradGradGradGradGradGradGradGradGradGradGradGradGradGradGrad

                          Input orientation:                          
 ---------------------------------------------------------------------
 Center     Atomic      Atomic             Coordinates (Angstroms)
 Number     Number       Type             X           Y           Z
 ---------------------------------------------------------------------
      1          6           0        1.007792    0.002436    0.000000
      2          7           0        0.389257   -1.186795    0.000000
      3          7           0       -0.936734   -0.981404    0.000000
      4          7           0       -1.097211    0.295569    0.000000
      5          7           0        0.093063    0.943333    0.000000
      6          1           0        2.077306    0.139903    0.000000
      7          1           0        0.758983   -2.123423    0.000000
 ---------------------------------------------------------------------
                    Distance matrix (angstroms):
[...]
 N-N= 1.673552226251D+02 E-N=-9.371914084175D+02  KE= 2.564597333041D+02
 Symmetry A'   KE= 2.470702446018D+02
 Symmetry A"   KE= 9.389488702246D+00
  Exact polarizability:  38.883   0.947  38.059   0.000   0.000  18.455
 Approx polarizability:  67.779   0.385  71.132   0.000   0.000  29.417
 Calling FoFJK, ICntrl=    100127 FMM=F ISym2X=1 I1Cent= 0 IOpClX= 0 NMat=1 NMatS=1 NMatT=0.
 Full mass-weighted force constant matrix:
 Low frequencies ---  -12.1461   -6.5314   -0.0011    0.0011    0.0011    3.7067
 Low frequencies ---  599.7611  697.5278  749.1367
 Diagonal vibrational polarizability:
        1.1597482       1.0252221       7.1188277
 Harmonic frequencies (cm**-1), IR intensities (KM/Mole), Raman scattering
 activities (A**4/AMU), depolarization ratios for plane and unpolarized
 incident light, reduced masses (AMU), force constants (mDyne/A),
 and normal coordinates:
                      1                      2                      3
                     A"                     A"                     A"
 Frequencies --    599.7610               697.5278               749.1367
 Red. masses --      1.7117                 2.0183                 8.2988
 Frc consts  --      0.3628                 0.5786                 2.7440
 IR Inten    --     77.9266                 7.2065                 8.1066
  Atom  AN      X      Y      Z        X      Y      Z        X      Y      Z
     1   6     0.00   0.00  -0.08     0.00   0.00   0.18     0.00   0.00  -0.09
     2   7     0.00   0.00   0.20     0.00   0.00  -0.10     0.00   0.00  -0.13
     3   7     0.00   0.00  -0.08     0.00   0.00   0.10     0.00   0.00   0.42
     4   7     0.00   0.00   0.00     0.00   0.00   0.04     0.00   0.00  -0.50
     5   7     0.00   0.00   0.02     0.00   0.00  -0.17     0.00   0.00   0.33
     6   1     0.00   0.00  -0.22     0.00   0.00   0.54     0.00   0.00  -0.11
     7   1     0.00   0.00  -0.95     0.00   0.00  -0.79     0.00   0.00  -0.65
                      4                      5                      6
                     A"                     A'                     A'
 Frequencies --    867.1365               985.6377              1020.4786
 Red. masses --      1.3735                 4.2971                 5.5872
 Frc consts  --      0.6085                 2.4596                 3.4281
 IR Inten    --     14.0146                 3.4824                 1.5374
  Atom  AN      X      Y      Z        X      Y      Z        X      Y      Z
     1   6     0.00   0.00   0.17     0.14   0.11   0.00    -0.32  -0.05   0.00
     2   7     0.00   0.00  -0.03     0.09   0.01   0.00     0.03   0.41   0.00
     3   7     0.00   0.00   0.00     0.12  -0.13   0.00     0.13  -0.09   0.00
     4   7     0.00   0.00  -0.02    -0.01  -0.17   0.00     0.17  -0.08   0.00
     5   7     0.00   0.00  -0.03    -0.31   0.24   0.00    -0.05  -0.18   0.00
     6   1     0.00   0.00  -0.98     0.37  -0.63   0.00    -0.14  -0.65   0.00
     7   1     0.00   0.00  -0.06    -0.46  -0.02   0.00     0.05   0.43   0.00
                      7                      8                      9
                     A'                     A'                     A'
 Frequencies --   1080.6798              1091.1334              1157.3393
 Red. masses --      3.5212                 4.3429                 1.9741
 Frc consts  --      2.4229                 3.0464                 1.5579
 IR Inten    --     22.9096                23.8976                12.7301
  Atom  AN      X      Y      Z        X      Y      Z        X      Y      Z
     1   6    -0.07  -0.02   0.00    -0.11   0.05   0.00     0.08  -0.10   0.00
     2   7    -0.17  -0.10   0.00     0.04  -0.16   0.00    -0.14  -0.02   0.00
     3   7     0.33   0.17   0.00    -0.11   0.07   0.00    -0.07   0.05   0.00
     4   7     0.04  -0.02   0.00     0.37   0.03   0.00     0.13   0.12   0.00
     5   7    -0.08  -0.07   0.00    -0.25   0.02   0.00     0.02   0.00   0.00
     6   1    -0.24   0.50   0.00    -0.19   0.26   0.00     0.29  -0.78   0.00
     7   1    -0.69  -0.14   0.00     0.79  -0.13   0.00    -0.48  -0.04   0.00
                     10                     11                     12
                     A'                     A'                     A'
 Frequencies --   1277.0043              1317.3169              1472.4828
 Red. masses --      2.4720                10.8787                 3.3022
 Frc consts  --      2.3751                11.1226                 4.2185
 IR Inten    --      2.3661                13.3489                 8.5092
  Atom  AN      X      Y      Z        X      Y      Z        X      Y      Z
     1   6     0.17   0.03   0.00     0.28   0.08   0.00    -0.19   0.25   0.00
     2   7     0.07   0.10   0.00    -0.13   0.16   0.00     0.21  -0.14   0.00
     3   7    -0.10  -0.08   0.00    -0.21   0.49   0.00    -0.07   0.10   0.00
     4   7     0.05   0.08   0.00     0.04  -0.58   0.00    -0.01  -0.02   0.00
     5   7    -0.12  -0.18   0.00     0.02  -0.15   0.00     0.07  -0.10   0.00
     6   1     0.00   0.65   0.00     0.37  -0.04   0.00     0.02  -0.48   0.00
     7   1    -0.67   0.07   0.00     0.20   0.22   0.00    -0.73  -0.22   0.00
                     13                     14                     15
                     A'                     A'                     A'
 Frequencies --   1517.8215              3297.8373              3683.4289
 Red. masses --      3.5540                 1.1008                 1.0834
 Frc consts  --      4.8240                 7.0538                 8.6609
 IR Inten    --     16.2284                 1.1535                91.1708
  Atom  AN      X      Y      Z        X      Y      Z        X      Y      Z
     1   6     0.10   0.31   0.00     0.09   0.03   0.00     0.00   0.00   0.00
     2   7    -0.16  -0.04   0.00     0.00   0.00   0.00    -0.01   0.08   0.00
     3   7     0.10  -0.07   0.00     0.00   0.00   0.00     0.00   0.00   0.00
     4   7    -0.06   0.09   0.00     0.00   0.00   0.00     0.00   0.00   0.00
     5   7    -0.05  -0.22   0.00     0.00   0.00   0.00     0.00   0.00   0.00
     6   1     0.37  -0.40   0.00    -0.95  -0.30   0.00    -0.02   0.00   0.00
     7   1     0.70   0.02   0.00     0.01   0.02   0.00     0.06  -0.99   0.00

 -------------------
 - Thermochemistry -
 -------------------
 Temperature   298.150 Kelvin.  Pressure   1.00000 Atm.
 Atom     1 has atomic number  6 and mass  12.00000
 Atom     2 has atomic number  7 and mass  14.00307
 Atom     3 has atomic number  7 and mass  14.00307
 Atom     4 has atomic number  7 and mass  14.00307
 Atom     5 has atomic number  7 and mass  14.00307
 Atom     6 has atomic number  1 and mass   1.00783
 Atom     7 has atomic number  1 and mass   1.00783
 Molecular mass:    70.02795 amu.
 Principal axes and moments of inertia in atomic units:
                           1         2         3
     Eigenvalues --   170.18089 173.00848 343.18938
           X            0.81646   0.57740   0.00000
           Y           -0.57740   0.81646   0.00000
           Z            0.00000   0.00000   1.00000
 This molecule is an asymmetric top.
 Rotational symmetry number  1.
 Rotational temperatures (Kelvin)      0.50895     0.50063     0.25238
 Rotational constants (GHZ):          10.60484    10.43152     5.25873
 Zero-point vibrational energy     124499.7 (Joules/Mol)
                                   29.75614 (Kcal/Mol)
 Warning -- explicit consideration of   1 degrees of freedom as
           vibrations may cause significant error
 Vibrational temperatures:    862.92  1003.59  1077.84  1247.61  1418.11
          (Kelvin)           1468.24  1554.86  1569.90  1665.15  1837.32
                             1895.32  2118.57  2183.80  4744.85  5299.63
 
 Zero-point correction=                           0.047419 (Hartree/Particle)
 Thermal correction to Energy=                    0.050860
 Thermal correction to Enthalpy=                  0.051804
 Thermal correction to Gibbs Free Energy=         0.021347
 Sum of electronic and zero-point Energies=           -258.125018
 Sum of electronic and thermal Energies=              -258.121578
 Sum of electronic and thermal Enthalpies=            -258.120633
 Sum of electronic and thermal Free Energies=         -258.151090
 
                     E (Thermal)             CV                S
                      KCal/Mol        Cal/Mol-Kelvin    Cal/Mol-Kelvin
 Total                   31.915             11.132             64.102
 Electronic               0.000              0.000              0.000
 Translational            0.889              2.981             38.656
 Rotational               0.889              2.981             23.828
 Vibrational             30.137              5.171              1.617
 Vibration     1          0.958              1.032              0.450
                       Q            Log10(Q)             Ln(Q)
 Total Bot       0.151728D-09         -9.818933        -22.608929
 Total V=0       0.982749D+12         11.992442         27.613619
 Vib (Bot)       0.183064D-21        -21.737398        -50.052209
 Vib (Bot)    1  0.249027D+00         -0.603754         -1.390195
 Vib (V=0)       0.118571D+01          0.073978          0.170340
 Vib (V=0)    1  0.105858D+01          0.024725          0.056931
 Electronic      0.100000D+01          0.000000          0.000000
 Translational   0.230336D+08          7.362362         16.952466
 Rotational      0.359834D+05          4.556102         10.490814
 ***** Axes restored to original set *****
 -------------------------------------------------------------------
 Center     Atomic                   Forces (Hartrees/Bohr)
 Number     Number              X              Y              Z
 -------------------------------------------------------------------
      1        6           0.000056351    0.000120927    0.000000000
      2        7          -0.000113330   -0.000286161    0.000000000
      3        7           0.000050447    0.000077192    0.000000000
      4        7           0.000122053   -0.000080116    0.000000000
      5        7          -0.000115799    0.000197366    0.000000000
      6        1          -0.000024420    0.000010589    0.000000000
      7        1           0.000024698   -0.000039798    0.000000000
 -------------------------------------------------------------------
 Cartesian Forces:  Max     0.000286161 RMS     0.000097006
 FormGI is forming the generalized inverse of G from B-inverse, IUseBI=4.

 GradGradGradGradGradGradGradGradGradGradGradGradGradGradGradGradGradGrad
 Berny optimization.
 Internal  Forces:  Max     0.000237541 RMS     0.000072138
 Search for a local minimum.
 Step number   1 out of a maximum of    2
 All quantities printed in internal units (Hartrees-Bohrs-Radians)
 Second derivative matrix not updated -- analytic derivatives used.
 ITU=  0
     Eigenvalues ---    0.00859   0.02564   0.07358   0.07980   0.10082
     Eigenvalues ---    0.10483   0.20581   0.25862   0.35650   0.37985
     Eigenvalues ---    0.44194   0.47793   0.49040   0.58887   0.64225
 Angle between quadratic step and forces=  16.10 degrees.
 Linear search not attempted -- first point.
 Iteration  1 RMS(Cart)=  0.00015958 RMS(Int)=  0.00000002
 Iteration  2 RMS(Cart)=  0.00000002 RMS(Int)=  0.00000001
 ClnCor:  largest displacement from symmetrization is 3.13D-13 for atom     4.
 Variable       Old X    -DE/DX   Delta X   Delta X   Delta X     New X
                                 (Linear)    (Quad)   (Total)
    R1        2.53312   0.00024   0.00000   0.00050   0.00050   2.53362
    R2        2.47980   0.00011   0.00000   0.00014   0.00014   2.47995
    R3        2.03772  -0.00002   0.00000  -0.00005  -0.00005   2.03767
    R4        2.53564  -0.00007   0.00000  -0.00009  -0.00009   2.53555
    R5        1.90288   0.00004   0.00000   0.00008   0.00008   1.90296
    R6        2.43211  -0.00002   0.00000  -0.00015  -0.00015   2.43196
    R7        2.56081  -0.00005   0.00000  -0.00006  -0.00006   2.56075
    A1        1.89069   0.00006   0.00000   0.00015   0.00015   1.89084
    A2        2.17824  -0.00003   0.00000  -0.00011  -0.00011   2.17813
    A3        2.21426  -0.00003   0.00000  -0.00005  -0.00005   2.21422
    A4        1.89673  -0.00011   0.00000  -0.00030  -0.00030   1.89643
    A5        2.28602   0.00006   0.00000   0.00011   0.00011   2.28613
    A6        2.10044   0.00005   0.00000   0.00019   0.00019   2.10063
    A7        1.84949   0.00005   0.00000   0.00017   0.00017   1.84965
    A8        1.94417   0.00013   0.00000   0.00023   0.00023   1.94440
    A9        1.84370  -0.00012   0.00000  -0.00024  -0.00024   1.84346
    D1        0.00000   0.00000   0.00000   0.00000   0.00000   0.00000
    D2        3.14159   0.00000   0.00000   0.00000   0.00000   3.14159
    D3        3.14159   0.00000   0.00000   0.00000   0.00000   3.14159
    D4        0.00000   0.00000   0.00000   0.00000   0.00000   0.00000
    D5        0.00000   0.00000   0.00000   0.00000   0.00000   0.00000
    D6        3.14159   0.00000   0.00000   0.00000   0.00000   3.14159
    D7        0.00000   0.00000   0.00000   0.00000   0.00000   0.00000
    D8        3.14159   0.00000   0.00000   0.00000   0.00000   3.14159
    D9        0.00000   0.00000   0.00000   0.00000   0.00000   0.00000
   D10        0.00000   0.00000   0.00000   0.00000   0.00000   0.00000
         Item               Value     Threshold  Converged?
 Maximum Force            0.000238     0.000450     YES
 RMS     Force            0.000072     0.000300     YES
 Maximum Displacement     0.000459     0.001800     YES
 RMS     Displacement     0.000160     0.001200     YES
 Predicted change in Energy=-1.408961D-07
 Optimization completed.
    -- Stationary point found.
                           ----------------------------
                           !   Optimized Parameters   !
                           ! (Angstroms and Degrees)  !
 --------------------------                            --------------------------
 ! Name  Definition              Value          Derivative Info.                !
 --------------------------------------------------------------------------------
 ! R1    R(1,2)                  1.3405         -DE/DX =    0.0002              !
 ! R2    R(1,5)                  1.3123         -DE/DX =    0.0001              !
 ! R3    R(1,6)                  1.0783         -DE/DX =    0.0                 !
 ! R4    R(2,3)                  1.3418         -DE/DX =   -0.0001              !
 ! R5    R(2,7)                  1.007          -DE/DX =    0.0                 !
 ! R6    R(3,4)                  1.287          -DE/DX =    0.0                 !
 ! R7    R(4,5)                  1.3551         -DE/DX =   -0.0001              !
 ! A1    A(2,1,5)              108.3284         -DE/DX =    0.0001              !
 ! A2    A(2,1,6)              124.8037         -DE/DX =    0.0                 !
 ! A3    A(5,1,6)              126.8679         -DE/DX =    0.0                 !
 ! A4    A(1,2,3)              108.6746         -DE/DX =   -0.0001              !
 ! A5    A(1,2,7)              130.9793         -DE/DX =    0.0001              !
 ! A6    A(3,2,7)              120.3461         -DE/DX =    0.0001              !
 ! A7    A(2,3,4)              105.9677         -DE/DX =    0.0                 !
 ! A8    A(3,4,5)              111.3929         -DE/DX =    0.0001              !
 ! A9    A(1,5,4)              105.6364         -DE/DX =   -0.0001              !
 ! D1    D(5,1,2,3)              0.0            -DE/DX =    0.0                 !
 ! D2    D(5,1,2,7)            180.0            -DE/DX =    0.0                 !
 ! D3    D(6,1,2,3)            180.0            -DE/DX =    0.0                 !
 ! D4    D(6,1,2,7)              0.0            -DE/DX =    0.0                 !
 ! D5    D(2,1,5,4)              0.0            -DE/DX =    0.0                 !
 ! D6    D(6,1,5,4)            180.0            -DE/DX =    0.0                 !
 ! D7    D(1,2,3,4)              0.0            -DE/DX =    0.0                 !
 ! D8    D(7,2,3,4)            180.0            -DE/DX =    0.0                 !
 ! D9    D(2,3,4,5)              0.0            -DE/DX =    0.0                 !
 ! D10   D(3,4,5,1)              0.0            -DE/DX =    0.0                 !
 --------------------------------------------------------------------------------
 GradGradGradGradGradGradGradGradGradGradGradGradGradGradGradGradGradGrad

 1\1\GINC-N755\Freq\RB3PW91\6-31G(2df,p)\C1H2N4\RDJ3\16-Dec-2013\0\\#N 
 Geom=AllCheck Guess=TCheck SCRF=Check GenChk RB3PW91/6-31G(2df,p) Freq
 \\1H-tetrazole CH2N4 casno=288948 state=1 config=1 method=16 basis=19\
 \0,1\C,1.007791794,0.002436307,0.\N,0.389257258,-1.1867947399,0.\N,-0.
 9367338003,-0.981404122,0.\N,-1.0972108961,0.2955689969,0.\N,0.0930629
 194,0.9433329408,0.\H,2.0773064679,0.1399026516,0.\H,0.758983045,-2.12
 34233885,0.\\Version=EM64L-G09RevD.01\State=1-A'\HF=-258.1724372\RMSD=
 2.133e-09\RMSF=9.701e-05\ZeroPoint=0.0474194\Thermal=0.0508596\Dipole=
 1.6423666,-1.250054,0.\DipoleDeriv=0.2052866,0.082234,0.,-0.0829548,0.
 4172517,0.,0.,0.,0.1029192,-0.2174137,0.268665,0.,0.20107,-0.3068744,0
 .,0.,0.,-0.118053,0.102087,-0.3717825,0.,-0.2892267,-0.2007835,0.,0.,0
 .,-0.105615,0.0268874,0.1576587,0.,0.1983329,0.001704,0.,0.,0.,-0.1492
 749,-0.3714089,-0.1187934,0.,-0.0222287,-0.3075696,0.,0.,0.,-0.2087854
 ,0.0515959,0.0110587,0.,0.0086569,0.1167596,0.,0.,0.,0.1555721,0.20296
 57,-0.0290405,0.,-0.0136496,0.2795121,0.,0.,0.,0.3232371\Polar=39.4614
 164,-0.2924701,37.4807064,0.,0.,18.4554398\PG=CS [SG(C1H2N4)]\NImag=0\
 \0.96399418,0.01911904,0.62443692,0.,0.,0.14314436,-0.16792570,-0.0810
 2871,0.,0.59334733,-0.11180194,-0.28821564,0.,-0.11315894,1.01457473,0
 .,0.,-0.06447394,0.,0.,0.09652010,-0.09433461,-0.09177673,0.,-0.242114
 12,-0.03020269,0.,0.47406734,0.00288540,-0.02780829,0.,0.00537137,-0.1
 0372049,0.,0.06877972,0.59410992,0.,0.,0.02164181,0.,0.,-0.07121119,0.
 ,0.,0.11821710,-0.12229607,0.07246428,0.,-0.07899768,0.03578406,0.,-0.
 11204140,0.00030355,0.,0.51932247,-0.03063242,0.02861235,0.,0.11542158
 ,-0.10147718,0.,0.06125109,-0.35613191,0.,-0.09568070,0.54237528,0.,0.
 ,0.01962545,0.,0.,0.02750558,0.,0.,-0.09956461,0.,0.,0.12769109,-0.236
 35734,0.13652798,0.,0.01610992,0.08925212,0.,-0.02702595,-0.11439805,0
 .,-0.19258058,-0.05536297,0.,0.45385945,0.14379536,-0.27091037,0.,-0.0
 2751946,-0.10339339,0.,-0.00719429,-0.10227532,0.,-0.01496817,-0.11275
 097,0.,-0.07917079,0.58191181,0.,0.,-0.08062164,0.,0.,0.02194720,0.,0.
 ,0.03662030,0.,0.,-0.09235158,0.,0.,0.11198859,-0.35928703,-0.04308716
 ,0.,-0.00279884,0.00334842,0.,0.00048233,0.00207084,0.,-0.00164408,0.0
 0032984,0.,-0.01172218,-0.00513012,0.,0.37547242,-0.03923797,-0.060638
 56,0.,-0.03216219,0.00242177,0.,-0.00124328,-0.00677049,0.,0.00641168,
 -0.00312814,0.,0.02309441,0.01140098,0.,0.04300080,0.05686632,0.,0.,-0
 .03042839,0.,0.,-0.00250245,0.,0.,0.00626906,0.,0.,0.00908700,0.,0.,-0
 .00493080,0.,0.,0.02342059,0.01620657,-0.01221871,0.,-0.11762091,0.126
 77897,0.,0.00096640,0.03498717,0.,-0.01176266,0.00467358,0.,-0.0022833
 1,-0.00981251,0.,-0.00050264,0.00013655,0.,0.11499654,0.01587253,-0.00
 547640,0.,0.13307636,-0.42018981,0.,0.00038617,0.00259658,0.,-0.004314
 69,0.00250058,0.,0.00005730,-0.00398274,0.,-0.00053262,-0.00015189,0.,
 -0.14454505,0.42470368,0.,0.,-0.00888767,0.,0.,-0.00778531,0.,0.,-0.01
 197247,0.,0.,0.00800707,0.,0.,0.00734793,0.,0.,-0.00091501,0.,0.,0.014
 20547\\-0.00005635,-0.00012093,0.,0.00011333,0.00028616,0.,-0.00005045
 ,-0.00007719,0.,-0.00012205,0.00008012,0.,0.00011580,-0.00019737,0.,0.
 00002442,-0.00001059,0.,-0.00002470,0.00003980,0.\\\@


 OF ALL THE WONDERS OF THE UNIVERSE, THE GREATEST IS MAN.

                                    -- ARISTOTLE
 Job cpu time:       0 days  0 hours  5 minutes 23.4 seconds.
 File lengths (MBytes):  RWF=     21 Int=      0 D2E=      0 Chk=      3 Scr=      1
 Normal termination of Gaussian 09 at Mon Dec 16 16:55:17 2013.
