 Entering Gaussian System, Link 0=g09
 Initial command:
 /usr/local/gaussian/g09.d01.em64t.legacy.linda/g09/l1.exe "/tmp/rdj3/g09-32362/Gau-10910.inp" -scrdir="/tmp/rdj3/g09-32362/"
 Entering Link 1 = /usr/local/gaussian/g09.d01.em64t.legacy.linda/g09/l1.exe PID=     10911.
  
 Copyright (c) 1988,1990,1992,1993,1995,1998,2003,2009,2013,
            Gaussian, Inc.  All Rights Reserved.
  
 This is part of the Gaussian(R) 09 program.  It is based on
 the Gaussian(R) 03 system (copyright 2003, Gaussian, Inc.),
 the Gaussian(R) 98 system (copyright 1998, Gaussian, Inc.),
 the Gaussian(R) 94 system (copyright 1995, Gaussian, Inc.),
 the Gaussian 92(TM) system (copyright 1992, Gaussian, Inc.),
 the Gaussian 90(TM) system (copyright 1990, Gaussian, Inc.),
 the Gaussian 88(TM) system (copyright 1988, Gaussian, Inc.),
 the Gaussian 86(TM) system (copyright 1986, Carnegie Mellon
 University), and the Gaussian 82(TM) system (copyright 1983,
 Carnegie Mellon University). Gaussian is a federally registered
 trademark of Gaussian, Inc.
  
 This software contains proprietary and confidential information,
 including trade secrets, belonging to Gaussian, Inc.
  
 This software is provided under written license and may be
 used, copied, transmitted, or stored only in accord with that
 written license.
  
 The following legend is applicable only to US Government
 contracts under FAR:
  
                    RESTRICTED RIGHTS LEGEND
  
 Use, reproduction and disclosure by the US Government is
 subject to restrictions as set forth in subparagraphs (a)
 and (c) of the Commercial Computer Software - Restricted
 Rights clause in FAR 52.227-19.
  
 Gaussian, Inc.
 340 Quinnipiac St., Bldg. 40, Wallingford CT 06492
  
  
 ---------------------------------------------------------------
 Warning -- This program may not be used in any manner that
 competes with the business of Gaussian, Inc. or will provide
 assistance to any competitor of Gaussian, Inc.  The licensee
 of this program is prohibited from giving any competitor of
 Gaussian, Inc. access to this program.  By using this program,
 the user acknowledges that Gaussian, Inc. is engaged in the
 business of creating and licensing software in the field of
 computational chemistry and represents and warrants to the
 licensee that it is not a competitor of Gaussian, Inc. and that
 it will not use this program in any manner prohibited above.
 ---------------------------------------------------------------
  

 Cite this work as:
 Gaussian 09, Revision D.01,
 M. J. Frisch, G. W. Trucks, H. B. Schlegel, G. E. Scuseria, 
 M. A. Robb, J. R. Cheeseman, G. Scalmani, V. Barone, B. Mennucci, 
 G. A. Petersson, H. Nakatsuji, M. Caricato, X. Li, H. P. Hratchian, 
 A. F. Izmaylov, J. Bloino, G. Zheng, J. L. Sonnenberg, M. Hada, 
 M. Ehara, K. Toyota, R. Fukuda, J. Hasegawa, M. Ishida, T. Nakajima, 
 Y. Honda, O. Kitao, H. Nakai, T. Vreven, J. A. Montgomery, Jr., 
 J. E. Peralta, F. Ogliaro, M. Bearpark, J. J. Heyd, E. Brothers, 
 K. N. Kudin, V. N. Staroverov, T. Keith, R. Kobayashi, J. Normand, 
 K. Raghavachari, A. Rendell, J. C. Burant, S. S. Iyengar, J. Tomasi, 
 M. Cossi, N. Rega, J. M. Millam, M. Klene, J. E. Knox, J. B. Cross, 
 V. Bakken, C. Adamo, J. Jaramillo, R. Gomperts, R. E. Stratmann, 
 O. Yazyev, A. J. Austin, R. Cammi, C. Pomelli, J. W. Ochterski, 
 R. L. Martin, K. Morokuma, V. G. Zakrzewski, G. A. Voth, 
 P. Salvador, J. J. Dannenberg, S. Dapprich, A. D. Daniels, 
 O. Farkas, J. B. Foresman, J. V. Ortiz, J. Cioslowski, 
 and D. J. Fox, Gaussian, Inc., Wallingford CT, 2013.
 
 ******************************************
 Gaussian 09:  EM64L-G09RevD.01 24-Apr-2013
                25-Nov-2013 
 ******************************************
 %Nproc=8
 Will use up to    8 processors via shared memory.
 %mem=436000000
 ----------------------------------
 #HF/6-31G(2df,p) opt=z-matrix freq
 ----------------------------------
 1/10=7,18=40,38=1/1,3;
 2/12=2,17=6,18=5,29=3,40=1/2;
 3/5=1,6=6,7=104,11=9,16=1,25=1,30=1,71=1/1,2,3;
 4//1;
 5/5=2,38=5/2;
 6/7=2,8=2,9=2,10=2,28=1/1;
 7/29=1/1,2,3,16;
 1/10=7,18=40/3(2);
 2/29=3/2;
 99//99;
 2/29=3/2;
 3/5=1,6=6,7=104,11=9,16=1,25=1,30=1,71=1/1,2,3;
 4/5=5,16=3,69=1/1;
 5/5=2,38=5/2;
 7//1,2,3,16;
 1/18=40/3(-5);
 2/29=3/2;
 6/7=2,8=2,9=2,10=2,19=2,28=1/1;
 99/9=1/99;
 ------------------------------------------------------------------
 1H-tetrazole CH2N4 casno=288948 state=1 config=1 method=1 basis=19
 ------------------------------------------------------------------
 Symbolic Z-matrix:
 Charge =  0 Multiplicity = 1
 X
 X                    1     1. 
 C                    1     1.       2     90. 
 N                    1    rn1      2     90.      3    an1      0
 N                    1    rn2      2     90.      3    an2      0
 N                    1    rn3      2     90.      3    an3      0
 N                    1    rn4      2     90.      3    an4      0
 H                    3    rch      4    ach      5     180.     0
 H                    4    rnh      5    anh      6     180.     0
       Variables:
  rn1                   1.2426                   
  rn2                   1.333                    
  rn3                   1.1146                   
  rn4                   0.9264                   
  rch                   1.0678                   
  rnh                   0.9941                   
  an1                  71.8427                   
  an2                 133.7028                   
  an3                 194.4597                   
  an4                 276.0768                   
  ach                 125.0248                   
  anh                 120.7626                   
 

 GradGradGradGradGradGradGradGradGradGradGradGradGradGradGradGradGradGrad
 Berny optimization.
 Initialization pass.
                       ----------------------------
                       !    Initial Parameters    !
                       ! (Angstroms and Degrees)  !
 ----------------------                            ----------------------
 !      Name          Value   Derivative information (Atomic Units)     !
 ------------------------------------------------------------------------
 !       rn1         1.2426   estimate D2E/DX2                          !
 !       rn2         1.333    estimate D2E/DX2                          !
 !       rn3         1.1146   estimate D2E/DX2                          !
 !       rn4         0.9264   estimate D2E/DX2                          !
 !       rch         1.0678   estimate D2E/DX2                          !
 !       rnh         0.9941   estimate D2E/DX2                          !
 !       an1        71.8427   estimate D2E/DX2                          !
 !       an2       133.7028   estimate D2E/DX2                          !
 !       an3       194.4597   estimate D2E/DX2                          !
 !       an4       276.0768   estimate D2E/DX2                          !
 !       ach       125.0248   estimate D2E/DX2                          !
 !       anh       120.7626   estimate D2E/DX2                          !
 ------------------------------------------------------------------------
 Trust Radius=3.00D-01 FncErr=1.00D-07 GrdErr=1.00D-07
 Number of steps in this run=     22 maximum allowed number of steps=    100.
 GradGradGradGradGradGradGradGradGradGradGradGradGradGradGradGradGradGrad

 ---------------------------------------------------------------------------------------------------
                            Z-MATRIX (ANGSTROMS AND DEGREES)
   CD    Cent   Atom    N1       Length/X        N2       Alpha/Y        N3        Beta/Z          J
 ---------------------------------------------------------------------------------------------------
      1         X 
      2         X        1   1.000000(     1)
      3      1  C        1   1.000000(     2)      2   90.000(     9)
      4      2  N        1   1.242600(     3)      2   90.000(    10)      3   71.843(    16)      0
      5      3  N        1   1.333000(     4)      2   90.000(    11)      3  133.703(    17)      0
      6      4  N        1   1.114600(     5)      2   90.000(    12)      3  194.460(    18)      0
      7      5  N        1   0.926400(     6)      2   90.000(    13)      3  276.077(    19)      0
      8      6  H        3   1.067800(     7)      4  125.025(    14)      5  180.000(    20)      0
      9      7  H        4   0.994100(     8)      5  120.763(    15)      6  180.000(    21)      0
 ---------------------------------------------------------------------------------------------------
                         Z-Matrix orientation:                         
 ---------------------------------------------------------------------
 Center     Atomic      Atomic             Coordinates (Angstroms)
 Number     Number       Type             X           Y           Z
 ---------------------------------------------------------------------
      1         -1           0        0.000000    0.000000    0.000000
      2         -1           0        0.000000    0.000000    1.000000
      3          6           0        1.000000    0.000000    0.000000
      4          7           0        0.387228   -1.180724    0.000000
      5          7           0       -0.920993   -0.963670    0.000000
      6          7           0       -1.079293    0.278314    0.000000
      7          7           0        0.098070    0.921194    0.000000
      8          1           0        2.058429    0.141157    0.000000
      9          1           0        0.749017   -2.106652    0.000000
 ---------------------------------------------------------------------
                    Distance matrix (angstroms):
                    1          2          3          4          5
     1  X    0.000000
     2  X    1.000000   0.000000
     3  C    1.000000   1.414214   0.000000
     4  N    1.242600   1.595009   1.330263   0.000000
     5  N    1.333000   1.666400   2.149157   1.326105   0.000000
     6  N    1.114600   1.497442   2.097837   2.068690   1.252032
     7  N    0.926400   1.363164   1.289216   2.121715   2.142710
     8  H    2.063263   2.292827   1.067800   2.130794   3.177672
     9  H    2.235847   2.449288   2.121551   0.994100   2.023695
                    6          7          8          9
     6  N    0.000000
     7  N    1.341447   0.000000
     8  H    3.140719   2.109850   0.000000
     9  H    3.005127   3.097029   2.601385   0.000000
 Stoichiometry    CH2N4
 Framework group  CS[SG(CH2N4)]
 Deg. of freedom    11
 Full point group                 CS      NOp   2
 Largest Abelian subgroup         CS      NOp   2
 Largest concise Abelian subgroup C1      NOp   1
                         Standard orientation:                         
 ---------------------------------------------------------------------
 Center     Atomic      Atomic             Coordinates (Angstroms)
 Number     Number       Type             X           Y           Z
 ---------------------------------------------------------------------
      1          6           0        1.052733    0.225621    0.000000
      2          7           0        0.000000    1.038857    0.000000
      3          7           0       -1.095416    0.291448    0.000000
      4          7           0       -0.716382   -0.901832    0.000000
      5          7           0        0.622191   -0.989579    0.000000
      6          1           0        2.072287    0.542964    0.000000
      7          1           0       -0.061439    2.031056    0.000000
 ---------------------------------------------------------------------
 Rotational constants (GHZ):     10.9201517     10.7345054      5.4132664
 Standard basis: 6-31G(2df,p) (6D, 7F)
 There are   113 symmetry adapted cartesian basis functions of A'  symmetry.
 There are    52 symmetry adapted cartesian basis functions of A"  symmetry.
 There are   103 symmetry adapted basis functions of A'  symmetry.
 There are    47 symmetry adapted basis functions of A"  symmetry.
   150 basis functions,   234 primitive gaussians,   165 cartesian basis functions
    18 alpha electrons       18 beta electrons
       nuclear repulsion energy       169.8308489506 Hartrees.
 NAtoms=    7 NActive=    7 NUniq=    7 SFac= 1.00D+00 NAtFMM=   60 NAOKFM=F Big=F
 Integral buffers will be    131072 words long.
 Raffenetti 1 integral format.
 Two-electron integral symmetry is turned on.
 One-electron integrals computed using PRISM.
 NBasis=   150 RedAO= T EigKep=  2.73D-04  NBF=   103    47
 NBsUse=   150 1.00D-06 EigRej= -1.00D+00 NBFU=   103    47
 ExpMin= 1.61D-01 ExpMax= 4.17D+03 ExpMxC= 6.27D+02 IAcc=1 IRadAn=         1 AccDes= 0.00D+00
 Harris functional with IExCor=  205 and IRadAn=       1 diagonalized for initial guess.
 HarFok:  IExCor=  205 AccDes= 0.00D+00 IRadAn=         1 IDoV= 1 UseB2=F ITyADJ=14
 ICtDFT=  3500011 ScaDFX=  1.000000  1.000000  1.000000  1.000000
 FoFCou: FMM=F IPFlag=           0 FMFlag=      100000 FMFlg1=           0
         NFxFlg=           0 DoJE=T BraDBF=F KetDBF=T FulRan=T
         wScrn=  0.000000 ICntrl=     500 IOpCl=  0 I1Cent=   200000004 NGrid=           0
         NMat0=    1 NMatS0=      1 NMatT0=    0 NMatD0=    1 NMtDS0=    0 NMtDT0=    0
 Petite list used in FoFCou.
 Initial guess orbital symmetries:
       Occupied  (A') (A') (A') (A') (A') (A') (A') (A') (A') (A')
                 (A') (A') (A") (A') (A") (A") (A') (A')
       Virtual   (A") (A") (A') (A') (A') (A') (A') (A') (A') (A')
                 (A") (A') (A') (A') (A') (A') (A") (A') (A") (A")
                 (A') (A') (A") (A") (A') (A') (A') (A") (A") (A')
                 (A') (A") (A") (A') (A') (A') (A') (A") (A") (A')
                 (A') (A') (A") (A') (A') (A") (A') (A') (A') (A")
                 (A') (A') (A') (A') (A') (A") (A') (A') (A") (A')
                 (A") (A') (A') (A") (A') (A") (A') (A") (A') (A')
                 (A') (A") (A') (A") (A') (A") (A') (A') (A') (A")
                 (A') (A') (A") (A') (A') (A") (A') (A') (A") (A")
                 (A") (A') (A') (A") (A") (A") (A') (A") (A") (A')
                 (A") (A') (A') (A") (A') (A") (A") (A') (A") (A')
                 (A") (A') (A') (A') (A') (A') (A') (A') (A") (A')
                 (A') (A') (A') (A') (A') (A') (A') (A') (A') (A')
                 (A') (A')
 The electronic state of the initial guess is 1-A'.
 Keep R1 ints in memory in symmetry-blocked form, NReq=97005431.
 Requested convergence on RMS density matrix=1.00D-08 within 128 cycles.
 Requested convergence on MAX density matrix=1.00D-06.
 Requested convergence on             energy=1.00D-06.
 No special actions if energy rises.
 SCF Done:  E(RHF) =  -256.781975392     A.U. after   14 cycles
            NFock= 14  Conv=0.89D-08     -V/T= 2.0006

 **********************************************************************

            Population analysis using the SCF density.

 **********************************************************************

 Orbital symmetries:
       Occupied  (A') (A') (A') (A') (A') (A') (A') (A') (A') (A')
                 (A') (A") (A') (A') (A') (A') (A") (A")
       Virtual   (A") (A') (A") (A') (A') (A') (A') (A') (A') (A")
                 (A') (A') (A') (A') (A') (A") (A') (A') (A") (A")
                 (A') (A') (A') (A") (A") (A') (A") (A') (A") (A')
                 (A') (A") (A") (A') (A') (A') (A') (A") (A") (A')
                 (A') (A") (A') (A") (A') (A') (A') (A') (A") (A')
                 (A') (A') (A') (A') (A') (A") (A') (A') (A") (A')
                 (A') (A") (A') (A") (A') (A") (A') (A") (A') (A')
                 (A") (A') (A') (A") (A') (A") (A') (A') (A") (A')
                 (A') (A') (A") (A') (A') (A") (A') (A') (A") (A")
                 (A") (A') (A') (A") (A") (A") (A') (A") (A") (A')
                 (A") (A') (A") (A') (A') (A") (A") (A') (A") (A')
                 (A") (A') (A') (A') (A') (A') (A') (A') (A") (A')
                 (A') (A') (A') (A') (A') (A') (A') (A') (A') (A')
                 (A') (A')
 The electronic state is 1-A'.
 Alpha  occ. eigenvalues --  -15.67694 -15.65533 -15.63717 -15.59501 -11.33098
 Alpha  occ. eigenvalues --   -1.51418  -1.26068  -1.20376  -0.90893  -0.89102
 Alpha  occ. eigenvalues --   -0.80413  -0.68588  -0.67869  -0.56876  -0.47117
 Alpha  occ. eigenvalues --   -0.46054  -0.45442  -0.42019
 Alpha virt. eigenvalues --    0.15452   0.20226   0.20368   0.25787   0.36214
 Alpha virt. eigenvalues --    0.39104   0.43047   0.47997   0.59677   0.65004
 Alpha virt. eigenvalues --    0.65543   0.67613   0.73907   0.76349   0.77254
 Alpha virt. eigenvalues --    0.80907   0.83483   0.84638   0.87322   0.91300
 Alpha virt. eigenvalues --    0.92457   0.95231   0.99232   1.00950   1.03523
 Alpha virt. eigenvalues --    1.06619   1.08040   1.09300   1.09898   1.12664
 Alpha virt. eigenvalues --    1.19974   1.31204   1.32394   1.32867   1.47573
 Alpha virt. eigenvalues --    1.49322   1.52102   1.60808   1.61988   1.68116
 Alpha virt. eigenvalues --    1.73541   1.74594   1.81414   1.87782   1.88154
 Alpha virt. eigenvalues --    1.90825   1.96013   1.98452   2.04964   2.07402
 Alpha virt. eigenvalues --    2.22390   2.24104   2.33958   2.42119   2.48980
 Alpha virt. eigenvalues --    2.52557   2.64913   2.77318   2.88788   3.11887
 Alpha virt. eigenvalues --    3.22888   3.23295   3.26087   3.32410   3.40432
 Alpha virt. eigenvalues --    3.43701   3.47204   3.54681   3.57858   3.64866
 Alpha virt. eigenvalues --    3.69379   3.71708   3.74253   3.77407   3.83343
 Alpha virt. eigenvalues --    3.84752   3.95631   3.98881   4.08073   4.09628
 Alpha virt. eigenvalues --    4.16194   4.22530   4.30911   4.31835   4.39859
 Alpha virt. eigenvalues --    4.41631   4.43043   4.45180   4.54007   4.56270
 Alpha virt. eigenvalues --    4.59856   4.62097   4.66045   4.72767   4.81441
 Alpha virt. eigenvalues --    4.86541   4.90444   4.92356   4.94673   4.95644
 Alpha virt. eigenvalues --    4.96289   4.99106   5.00266   5.02619   5.08173
 Alpha virt. eigenvalues --    5.22738   5.24599   5.28734   5.29738   5.39628
 Alpha virt. eigenvalues --    5.41521   5.46633   5.49462   5.62382   5.67998
 Alpha virt. eigenvalues --    5.79077   5.91001   5.96121   5.97781   6.04669
 Alpha virt. eigenvalues --    6.19464   6.25639   6.71644   6.86899   8.47285
 Alpha virt. eigenvalues --   10.82041  11.88248  11.90292  11.97226  12.09953
 Alpha virt. eigenvalues --   16.59474  19.75195
          Condensed to atoms (all electrons):
               1          2          3          4          5          6
     1  C    4.750164   0.426886  -0.108300  -0.120334   0.559285   0.413386
     2  N    0.426886   6.351919   0.347282  -0.115276  -0.056350  -0.029516
     3  N   -0.108300   0.347282   6.454720   0.488069  -0.116088   0.001327
     4  N   -0.120334  -0.115276   0.488069   6.386408   0.424165   0.002596
     5  N    0.559285  -0.056350  -0.116088   0.424165   6.449882  -0.019102
     6  H    0.413386  -0.029516   0.001327   0.002596  -0.019102   0.422197
     7  H   -0.025012   0.371305  -0.021377   0.003426   0.004026   0.000130
               7
     1  C   -0.025012
     2  N    0.371305
     3  N   -0.021377
     4  N    0.003426
     5  N    0.004026
     6  H    0.000130
     7  H    0.323656
 Mulliken charges:
               1
     1  C    0.103926
     2  N   -0.296250
     3  N   -0.045633
     4  N   -0.069052
     5  N   -0.245818
     6  H    0.208982
     7  H    0.343845
 Sum of Mulliken charges =   0.00000
 Mulliken charges with hydrogens summed into heavy atoms:
               1
     1  C    0.312908
     2  N    0.047595
     3  N   -0.045633
     4  N   -0.069052
     5  N   -0.245818
 Electronic spatial extent (au):  <R**2>=            243.9118
 Charge=              0.0000 electrons
 Dipole moment (field-independent basis, Debye):
    X=              2.5965    Y=              4.8201    Z=              0.0000  Tot=              5.4750
 Quadrupole moment (field-independent basis, Debye-Ang):
   XX=            -28.3136   YY=            -26.1250   ZZ=            -28.3219
   XY=              1.9385   XZ=              0.0000   YZ=              0.0000
 Traceless Quadrupole moment (field-independent basis, Debye-Ang):
   XX=             -0.7268   YY=              1.4618   ZZ=             -0.7351
   XY=              1.9385   XZ=              0.0000   YZ=              0.0000
 Octapole moment (field-independent basis, Debye-Ang**2):
  XXX=             12.1726  YYY=             22.1781  ZZZ=              0.0000  XYY=             -0.7171
  XXY=              4.8164  XXZ=              0.0000  XZZ=             -0.5506  YZZ=              0.6004
  YYZ=              0.0000  XYZ=              0.0000
 Hexadecapole moment (field-independent basis, Debye-Ang**3):
 XXXX=           -136.0059 YYYY=           -114.3059 ZZZZ=            -24.8633 XXXY=              6.6836
 XXXZ=              0.0000 YYYX=             -0.2188 YYYZ=              0.0000 ZZZX=              0.0000
 ZZZY=              0.0000 XXYY=            -51.4181 XXZZ=            -29.1374 YYZZ=            -27.6772
 XXYZ=              0.0000 YYXZ=              0.0000 ZZXY=              0.0127
 N-N= 1.698308489506D+02 E-N=-9.414193077905D+02  KE= 2.566291869169D+02
 Symmetry A'   KE= 2.476278737061D+02
 Symmetry A"   KE= 9.001313210789D+00
 Calling FoFJK, ICntrl=      2127 FMM=F ISym2X=1 I1Cent= 0 IOpClX= 0 NMat=1 NMatS=1 NMatT=0.
 ***** Axes restored to original set *****
 -------------------------------------------------------------------
 Center     Atomic                   Forces (Hartrees/Bohr)
 Number     Number              X              Y              Z
 -------------------------------------------------------------------
      1        6          -0.004754227   -0.000765587    0.000000000
      2        7           0.000358651   -0.001144380    0.000000000
      3        7           0.002206514    0.004225198    0.000000000
      4        7           0.001676846   -0.004066822    0.000000000
      5        7           0.001309215   -0.001178899    0.000000000
      6        1           0.000191319   -0.000104344    0.000000000
      7        1          -0.000988318    0.003034835    0.000000000
 -------------------------------------------------------------------
 Cartesian Forces:  Max     0.004754227 RMS     0.001952254
 -----------------------------------------------------------------------------------------------
                       Internal Coordinate Forces (Hartree/Bohr or radian)
  Cent   Atom   N1       Length/X         N2         Alpha/Y        N3         Beta/Z          J
 -----------------------------------------------------------------------------------------------
         X 
         X        1   0.000000(     1)
      1  C        1  -0.004471(     2)      2   0.000000(     9)
      2  N        1  -0.002189(     3)      2   0.000000(    10)      3   0.000041(    16)     0
      3  N        1  -0.004465(     4)      2   0.000000(    11)      3   0.003140(    17)     0
      4  N        1  -0.002639(     5)      2   0.000000(    12)      3  -0.007413(    18)     0
      5  N        1  -0.001034(     6)      2   0.000000(    13)      3   0.002498(    19)     0
      6  H        3   0.000176(     7)      4  -0.000260(    14)      5   0.000000(    20)     0
      7  H        4  -0.003186(     8)      5   0.000346(    15)      6   0.000000(    21)     0
 -----------------------------------------------------------------------------------------------
 Internal  Forces:  Max     0.007412647 RMS     0.002527644

 GradGradGradGradGradGradGradGradGradGradGradGradGradGradGradGradGradGrad
 Berny optimization.
 Search for a local minimum.
 Step number   1 out of a maximum of   22
 All quantities printed in internal units (Hartrees-Bohrs-Radians)
 Second derivative matrix not updated -- first step.
 The second derivative matrix:
                          rn1       rn2       rn3       rn4       rch
           rn1          0.65186
           rn2          0.01318   0.69869
           rn3          0.03472   0.07334   0.58262
           rn4          0.03688   0.02662   0.13967   0.63921
           rch          0.00000   0.00000   0.00000   0.00000   0.37510
           rnh          0.00000   0.00000   0.00000   0.00000   0.00000
           an1          0.02012  -0.75016   0.04258  -0.08486   0.00000
           an2          0.72119  -0.31234  -0.71865   0.05436   0.00000
           an3         -0.02914   1.04797   0.05412  -0.58583   0.00000
           an4          0.05328  -0.03228   0.65851  -0.10009   0.00000
           ach          0.04546   0.00000   0.00000   0.05066   0.00000
           anh         -0.10206   0.05276   0.00000   0.00000   0.00000
                          rnh       an1       an2       an3       an4
           rnh          0.48741
           an1          0.00000   4.53257
           an2          0.00000  -2.68051   6.02300
           an3          0.00000  -0.03573  -3.19618   4.47465
           an4          0.00000  -0.12258  -0.06592  -1.16042   2.58479
           ach          0.00000  -0.10460   0.00000   0.00000   0.07318
           anh          0.00000   0.03519  -0.09059   0.00000   0.00000
                          ach       anh
           ach          0.32000
           anh          0.00000   0.32000
 ITU=  0
     Eigenvalues ---    0.00000   0.13346   0.26445   0.33044   0.37510
     Eigenvalues ---    0.40158   0.48741   0.75609   1.20990   2.99509
     Eigenvalues ---    5.09563   9.64077
 RFO step:  Lambda=-9.17911530D-05 EMin=-6.95624114D-16
 Linear search not attempted -- first point.
 Variable       Old X    -DE/DX   Delta X   Delta X   Delta X     New X
                                 (Linear)    (Quad)   (Total)
   rn1        2.34817  -0.00219   0.00000   0.00138   0.00138   2.34955
   rn2        2.51900  -0.00447   0.00000  -0.00922  -0.00922   2.50979
   rn3        2.10629  -0.00264   0.00000  -0.01091  -0.01091   2.09538
   rn4        1.75064  -0.00103   0.00000   0.00091   0.00091   1.75155
   rch        2.01785   0.00018   0.00000   0.00047   0.00047   2.01832
   rnh        1.87858  -0.00319   0.00000  -0.00654  -0.00654   1.87204
   an1        1.25389   0.00004   0.00000  -0.00334  -0.00334   1.25055
   an2        2.33355   0.00314   0.00000  -0.00327  -0.00327   2.33029
   an3        3.39396  -0.00741   0.00000  -0.00079  -0.00079   3.39317
   an4        4.81845   0.00250   0.00000   0.00313   0.00313   4.82158
   ach        2.18209  -0.00026   0.00000  -0.00296  -0.00296   2.17914
   anh        2.10770   0.00035   0.00000   0.00248   0.00248   2.11019
         Item               Value     Threshold  Converged?
 Maximum Force            0.007413     0.000450     NO 
 RMS     Force            0.003085     0.000300     NO 
 Maximum Displacement     0.010913     0.001800     NO 
 RMS     Displacement     0.004974     0.001200     NO 
 Predicted change in Energy=-4.590593D-05
 GradGradGradGradGradGradGradGradGradGradGradGradGradGradGradGradGradGrad

 ---------------------------------------------------------------------------------------------------
                            Z-MATRIX (ANGSTROMS AND DEGREES)
   CD    Cent   Atom    N1       Length/X        N2       Alpha/Y        N3        Beta/Z          J
 ---------------------------------------------------------------------------------------------------
      1         X 
      2         X        1   1.000000(     1)
      3      1  C        1   1.000000(     2)      2   90.000(     9)
      4      2  N        1   1.243330(     3)      2   90.000(    10)      3   71.651(    16)      0
      5      3  N        1   1.328122(     4)      2   90.000(    11)      3  133.516(    17)      0
      6      4  N        1   1.108825(     5)      2   90.000(    12)      3  194.415(    18)      0
      7      5  N        1   0.926880(     6)      2   90.000(    13)      3  276.256(    19)      0
      8      6  H        3   1.068048(     7)      4  124.855(    14)      5  180.000(    20)      0
      9      7  H        4   0.990641(     8)      5  120.905(    15)      6  180.000(    21)      0
 ---------------------------------------------------------------------------------------------------
                         Z-Matrix orientation:                         
 ---------------------------------------------------------------------
 Center     Atomic      Atomic             Coordinates (Angstroms)
 Number     Number       Type             X           Y           Z
 ---------------------------------------------------------------------
      1         -1           0        0.000000    0.000000    0.000000
      2         -1           0        0.000000    0.000000    1.000000
      3          6           0        1.000000    0.000000    0.000000
      4          7           0        0.391404   -1.180116    0.000000
      5          7           0       -0.914482   -0.963137    0.000000
      6          7           0       -1.073919    0.276027    0.000000
      7          7           0        0.101002    0.921361    0.000000
      8          1           0        2.058728    0.140789    0.000000
      9          1           0        0.754008   -2.102010    0.000000
 ---------------------------------------------------------------------
                    Distance matrix (angstroms):
                    1          2          3          4          5
     1  X    0.000000
     2  X    1.000000   0.000000
     3  C    1.000000   1.414214   0.000000
     4  N    1.243330   1.595578   1.327804   0.000000
     5  N    1.328122   1.662501   2.143099   1.323789   0.000000
     6  N    1.108825   1.493149   2.092207   2.065798   1.249378
     7  N    0.926880   1.363491   1.287285   2.121447   2.140686
     8  H    2.063536   2.293073   1.068048   2.127148   3.171534
     9  H    2.233153   2.446829   2.116354   0.990641   2.020122
                    6          7          8          9
     6  N    0.000000
     7  N    1.340483   0.000000
     8  H    3.135565   2.107601   0.000000
     9  H    2.999396   3.093087   2.594694   0.000000
 Stoichiometry    CH2N4
 Framework group  CS[SG(CH2N4)]
 Deg. of freedom    11
 Full point group                 CS      NOp   2
 Largest Abelian subgroup         CS      NOp   2
 Largest concise Abelian subgroup C1      NOp   1
                         Standard orientation:                         
 ---------------------------------------------------------------------
 Center     Atomic      Atomic             Coordinates (Angstroms)
 Number     Number       Type             X           Y           Z
 ---------------------------------------------------------------------
      1          6           0        1.049152    0.224537    0.000000
      2          7           0        0.000000    1.038381    0.000000
      3          7           0       -1.092904    0.291402    0.000000
      4          7           0       -0.715411   -0.899584    0.000000
      5          7           0        0.622031   -0.989824    0.000000
      6          1           0        2.068642    0.542919    0.000000
      7          1           0       -0.059564    2.027230    0.000000
 ---------------------------------------------------------------------
 Rotational constants (GHZ):     10.9522965     10.7698486      5.4301532
 Standard basis: 6-31G(2df,p) (6D, 7F)
 There are   113 symmetry adapted cartesian basis functions of A'  symmetry.
 There are    52 symmetry adapted cartesian basis functions of A"  symmetry.
 There are   103 symmetry adapted basis functions of A'  symmetry.
 There are    47 symmetry adapted basis functions of A"  symmetry.
   150 basis functions,   234 primitive gaussians,   165 cartesian basis functions
    18 alpha electrons       18 beta electrons
       nuclear repulsion energy       170.1006897185 Hartrees.
 NAtoms=    7 NActive=    7 NUniq=    7 SFac= 1.00D+00 NAtFMM=   60 NAOKFM=F Big=F
 Integral buffers will be    131072 words long.
 Raffenetti 1 integral format.
 Two-electron integral symmetry is turned on.
 One-electron integrals computed using PRISM.
 NBasis=   150 RedAO= T EigKep=  2.72D-04  NBF=   103    47
 NBsUse=   150 1.00D-06 EigRej= -1.00D+00 NBFU=   103    47
 Initial guess from the checkpoint file:  "/tmp/rdj3/g09-32362/Gau-10911.chk"
 B after Tr=     0.000000    0.000000    0.000000
         Rot=    1.000000    0.000000    0.000000    0.000155 Ang=   0.02 deg.
 Initial guess orbital symmetries:
       Occupied  (A') (A') (A') (A') (A') (A') (A') (A') (A') (A')
                 (A') (A") (A') (A') (A') (A') (A") (A")
       Virtual   (A') (A') (A') (A') (A') (A') (A') (A') (A') (A')
                 (A') (A') (A') (A') (A') (A') (A') (A') (A') (A')
                 (A') (A') (A') (A') (A') (A') (A') (A') (A') (A')
                 (A') (A') (A') (A') (A') (A') (A') (A') (A') (A')
                 (A') (A') (A') (A') (A') (A') (A') (A') (A') (A')
                 (A') (A') (A') (A') (A') (A') (A') (A') (A') (A')
                 (A') (A') (A') (A') (A') (A') (A') (A') (A') (A')
                 (A') (A') (A') (A') (A') (A') (A') (A') (A') (A')
                 (A') (A') (A') (A') (A') (A') (A') (A') (A") (A")
                 (A") (A") (A") (A") (A") (A") (A") (A") (A") (A")
                 (A") (A") (A") (A") (A") (A") (A") (A") (A") (A")
                 (A") (A") (A") (A") (A") (A") (A") (A") (A") (A")
                 (A") (A") (A") (A") (A") (A") (A") (A") (A") (A")
                 (A") (A")
 Keep R1 ints in memory in symmetry-blocked form, NReq=97005431.
 Requested convergence on RMS density matrix=1.00D-08 within 128 cycles.
 Requested convergence on MAX density matrix=1.00D-06.
 Requested convergence on             energy=1.00D-06.
 No special actions if energy rises.
 SCF Done:  E(RHF) =  -256.782014810     A.U. after   10 cycles
            NFock= 10  Conv=0.51D-08     -V/T= 2.0004
 Calling FoFJK, ICntrl=      2127 FMM=F ISym2X=1 I1Cent= 0 IOpClX= 0 NMat=1 NMatS=1 NMatT=0.
 ***** Axes restored to original set *****
 -------------------------------------------------------------------
 Center     Atomic                   Forces (Hartrees/Bohr)
 Number     Number              X              Y              Z
 -------------------------------------------------------------------
      1        6           0.001029960    0.000257156    0.000000000
      2        7          -0.000083211    0.000563985    0.000000000
      3        7          -0.000563939    0.000579420    0.000000000
      4        7          -0.001253406   -0.000666383    0.000000000
      5        7           0.000563275   -0.000491063    0.000000000
      6        1           0.000108041   -0.000015424    0.000000000
      7        1           0.000199280   -0.000227691    0.000000000
 -------------------------------------------------------------------
 Cartesian Forces:  Max     0.001253406 RMS     0.000477228
 -----------------------------------------------------------------------------------------------
                       Internal Coordinate Forces (Hartree/Bohr or radian)
  Cent   Atom   N1       Length/X         N2         Alpha/Y        N3         Beta/Z          J
 -----------------------------------------------------------------------------------------------
         X 
         X        1   0.000000(     1)
      1  C        1   0.001159(     2)      2   0.000000(     9)
      2  N        1  -0.000367(     3)      2   0.000000(    10)      3  -0.000552(    16)     0
      3  N        1   0.000031(     4)      2   0.000000(    11)      3   0.001920(    17)     0
      4  N        1   0.001048(     5)      2   0.000000(    12)      3  -0.002006(    18)     0
      5  N        1  -0.000427(     6)      2   0.000000(    13)      3   0.001074(    19)     0
      6  H        3   0.000105(     7)      4  -0.000060(    14)      5   0.000000(    20)     0
      7  H        4   0.000285(     8)      5   0.000191(    15)      6   0.000000(    21)     0
 -----------------------------------------------------------------------------------------------
 Internal  Forces:  Max     0.002006162 RMS     0.000757931

 GradGradGradGradGradGradGradGradGradGradGradGradGradGradGradGradGradGrad
 Berny optimization.
 Search for a local minimum.
 Step number   2 out of a maximum of   22
 All quantities printed in internal units (Hartrees-Bohrs-Radians)
 Update second derivatives using D2CorN and points    1    2
 DE= -3.94D-05 DEPred=-4.59D-05 R= 8.59D-01
 TightC=F SS=  1.41D+00  RLast= 1.72D-02 DXNew= 5.0454D-01 5.1692D-02
 Trust test= 8.59D-01 RLast= 1.72D-02 DXMaxT set to 3.00D-01
 The second derivative matrix:
                          rn1       rn2       rn3       rn4       rch
           rn1          0.65357
           rn2          0.00740   0.69969
           rn3          0.02553   0.09022   0.62118
           rn4          0.03844   0.01994   0.13022   0.64052
           rch          0.00005   0.00160   0.00110   0.00018   0.37493
           rnh         -0.00471   0.00479   0.01679  -0.00513   0.00093
           an1          0.01933  -0.75855   0.03835  -0.08642   0.00103
           an2          0.71471  -0.28235  -0.67758   0.04907  -0.00094
           an3         -0.02496   1.01687   0.01864  -0.58332   0.00172
           an4          0.05272  -0.01577   0.67273  -0.09949  -0.00140
           ach          0.04377  -0.00076   0.00414   0.04862   0.00057
           anh         -0.10097   0.05558  -0.00088   0.00149  -0.00059
                          rnh       an1       an2       an3       an4
           rnh          0.49369
           an1         -0.00447   4.52636
           an2          0.02271  -2.67273   6.04413
           an3         -0.02170  -0.04776  -3.20468   4.46933
           an4          0.01032  -0.11363  -0.07012  -1.14844   2.57348
           ach          0.00077  -0.10768   0.00924  -0.01007   0.07884
           anh          0.00091   0.03857  -0.09757   0.00864  -0.00549
                          ach       anh
           ach          0.31941
           anh          0.00120   0.31840
 ITU=  1  0
     Eigenvalues ---    0.00000   0.17681   0.26636   0.33418   0.37493
     Eigenvalues ---    0.40434   0.49520   0.75032   1.21024   2.99492
     Eigenvalues ---    5.09203   9.63536
 RFO step:  Lambda=-8.13550842D-06 EMin=-1.63860214D-06
 Quartic linear search produced a step of -0.12531.
 Maximum step size (   0.300) exceeded in Quadratic search.
    -- Step size scaled by   0.481
 Variable       Old X    -DE/DX   Delta X   Delta X   Delta X     New X
                                 (Linear)    (Quad)   (Total)
   rn1        2.34955  -0.00037  -0.00017  -0.13559  -0.13577   2.21379
   rn2        2.50979   0.00003   0.00115  -0.10228  -0.10112   2.40867
   rn3        2.09538   0.00105   0.00137   0.03684   0.03821   2.13358
   rn4        1.75155  -0.00043  -0.00011   0.13998   0.13987   1.89142
   rch        2.01832   0.00011  -0.00006   0.00016   0.00010   2.01842
   rnh        1.87204   0.00028   0.00082  -0.00023   0.00059   1.87263
   an1        1.25055  -0.00055   0.00042   0.05638   0.05680   1.30735
   an2        2.33029   0.00192   0.00041   0.11430   0.11471   2.44500
   an3        3.39317  -0.00201   0.00010   0.13991   0.14001   3.53318
   an4        4.82158   0.00107  -0.00039   0.06620   0.06581   4.88739
   ach        2.17914  -0.00006   0.00037   0.00020   0.00057   2.17970
   anh        2.11019   0.00019  -0.00031   0.00017  -0.00015   2.11004
         Item               Value     Threshold  Converged?
 Maximum Force            0.002006     0.000450     NO 
 RMS     Force            0.000945     0.000300     NO 
 Maximum Displacement     0.140008     0.001800     NO 
 RMS     Displacement     0.086603     0.001200     NO 
 Predicted change in Energy=-4.483495D-06
 GradGradGradGradGradGradGradGradGradGradGradGradGradGradGradGradGradGrad

 ---------------------------------------------------------------------------------------------------
                            Z-MATRIX (ANGSTROMS AND DEGREES)
   CD    Cent   Atom    N1       Length/X        N2       Alpha/Y        N3        Beta/Z          J
 ---------------------------------------------------------------------------------------------------
      1         X 
      2         X        1   1.000000(     1)
      3      1  C        1   1.000000(     2)      2   90.000(     9)
      4      2  N        1   1.171485(     3)      2   90.000(    10)      3   74.906(    16)      0
      5      3  N        1   1.274611(     4)      2   90.000(    11)      3  140.088(    17)      0
      6      4  N        1   1.129043(     5)      2   90.000(    12)      3  202.436(    18)      0
      7      5  N        1   1.000897(     6)      2   90.000(    13)      3  280.027(    19)      0
      8      6  H        3   1.068103(     7)      4  124.888(    14)      5  180.000(    20)      0
      9      7  H        4   0.990953(     8)      5  120.896(    15)      6  180.000(    21)      0
 ---------------------------------------------------------------------------------------------------
                         Z-Matrix orientation:                         
 ---------------------------------------------------------------------
 Center     Atomic      Atomic             Coordinates (Angstroms)
 Number     Number       Type             X           Y           Z
 ---------------------------------------------------------------------
      1         -1           0        0.000000    0.000000    0.000000
      2         -1           0        0.000000    0.000000    1.000000
      3          6           0        1.000000    0.000000    0.000000
      4          7           0        0.305068   -1.131066    0.000000
      5          7           0       -0.977665   -0.817804    0.000000
      6          7           0       -1.043578    0.430909    0.000000
      7          7           0        0.174261    0.985610    0.000000
      8          1           0        2.066310    0.061875    0.000000
      9          1           0        0.597648   -2.077842    0.000000
 ---------------------------------------------------------------------
                    Distance matrix (angstroms):
                    1          2          3          4          5
     1  X    0.000000
     2  X    1.000000   0.000000
     3  C    1.000000   1.414214   0.000000
     4  N    1.171485   1.540252   1.327494   0.000000
     5  N    1.274611   1.620072   2.140085   1.320431   0.000000
     6  N    1.129043   1.508223   2.088515   2.063641   1.250452
     7  N    1.000897   1.414848   1.285796   2.120714   2.139915
     8  H    2.067236   2.296402   1.068103   2.127224   3.168536
     9  H    2.162085   2.382145   2.116440   0.990953   2.017253
                    6          7          8          9
     6  N    0.000000
     7  N    1.338217   0.000000
     8  H    3.131707   2.105501   0.000000
     9  H    2.997909   3.092571   2.595257   0.000000
 Stoichiometry    CH2N4
 Framework group  CS[SG(CH2N4)]
 Deg. of freedom    11
 Full point group                 CS      NOp   2
 Largest Abelian subgroup         CS      NOp   2
 Largest concise Abelian subgroup C1      NOp   1
                         Standard orientation:                         
 ---------------------------------------------------------------------
 Center     Atomic      Atomic             Coordinates (Angstroms)
 Number     Number       Type             X           Y           Z
 ---------------------------------------------------------------------
      1          6           0        1.047745    0.222430    0.000000
      2          7           0        0.000000    1.037581    0.000000
      3          7           0       -1.091143    0.293978    0.000000
      4          7           0       -0.714529   -0.898411    0.000000
      5          7           0        0.620528   -0.990318    0.000000
      6          1           0        2.067920    0.538796    0.000000
      7          1           0       -0.058383    2.026813    0.000000
 ---------------------------------------------------------------------
 Rotational constants (GHZ):     10.9812464     10.7812725      5.4401703
 Standard basis: 6-31G(2df,p) (6D, 7F)
 There are   113 symmetry adapted cartesian basis functions of A'  symmetry.
 There are    52 symmetry adapted cartesian basis functions of A"  symmetry.
 There are   103 symmetry adapted basis functions of A'  symmetry.
 There are    47 symmetry adapted basis functions of A"  symmetry.
   150 basis functions,   234 primitive gaussians,   165 cartesian basis functions
    18 alpha electrons       18 beta electrons
       nuclear repulsion energy       170.2506714083 Hartrees.
 NAtoms=    7 NActive=    7 NUniq=    7 SFac= 1.00D+00 NAtFMM=   60 NAOKFM=F Big=F
 Integral buffers will be    131072 words long.
 Raffenetti 1 integral format.
 Two-electron integral symmetry is turned on.
 One-electron integrals computed using PRISM.
 NBasis=   150 RedAO= T EigKep=  2.71D-04  NBF=   103    47
 NBsUse=   150 1.00D-06 EigRej= -1.00D+00 NBFU=   103    47
 Initial guess from the checkpoint file:  "/tmp/rdj3/g09-32362/Gau-10911.chk"
 B after Tr=     0.000000    0.000000    0.000000
         Rot=    1.000000    0.000000    0.000000    0.000571 Ang=   0.07 deg.
 Initial guess orbital symmetries:
       Occupied  (A') (A') (A') (A') (A') (A') (A') (A') (A') (A')
                 (A') (A") (A') (A') (A') (A') (A") (A")
       Virtual   (A') (A') (A') (A') (A') (A') (A') (A') (A') (A')
                 (A') (A') (A') (A') (A') (A') (A') (A') (A') (A')
                 (A') (A') (A') (A') (A') (A') (A') (A') (A') (A')
                 (A') (A') (A') (A') (A') (A') (A') (A') (A') (A')
                 (A') (A') (A') (A') (A') (A') (A') (A') (A') (A')
                 (A') (A') (A') (A') (A') (A') (A') (A') (A') (A')
                 (A') (A') (A') (A') (A') (A') (A') (A') (A') (A')
                 (A') (A') (A') (A') (A') (A') (A') (A') (A') (A')
                 (A') (A') (A') (A') (A') (A') (A') (A') (A") (A")
                 (A") (A") (A") (A") (A") (A") (A") (A") (A") (A")
                 (A") (A") (A") (A") (A") (A") (A") (A") (A") (A")
                 (A") (A") (A") (A") (A") (A") (A") (A") (A") (A")
                 (A") (A") (A") (A") (A") (A") (A") (A") (A") (A")
                 (A") (A")
 ExpMin= 1.61D-01 ExpMax= 4.17D+03 ExpMxC= 6.27D+02 IAcc=1 IRadAn=         1 AccDes= 0.00D+00
 Harris functional with IExCor=  205 and IRadAn=       1 diagonalized for initial guess.
 HarFok:  IExCor=  205 AccDes= 0.00D+00 IRadAn=         1 IDoV= 1 UseB2=F ITyADJ=14
 ICtDFT=  3500011 ScaDFX=  1.000000  1.000000  1.000000  1.000000
 FoFCou: FMM=F IPFlag=           0 FMFlag=      100000 FMFlg1=           0
         NFxFlg=           0 DoJE=T BraDBF=F KetDBF=T FulRan=T
         wScrn=  0.000000 ICntrl=     500 IOpCl=  0 I1Cent=   200000004 NGrid=           0
         NMat0=    1 NMatS0=      1 NMatT0=    0 NMatD0=    1 NMtDS0=    0 NMtDT0=    0
 Petite list used in FoFCou.
 Keep R1 ints in memory in symmetry-blocked form, NReq=97005431.
 Requested convergence on RMS density matrix=1.00D-08 within 128 cycles.
 Requested convergence on MAX density matrix=1.00D-06.
 Requested convergence on             energy=1.00D-06.
 No special actions if energy rises.
 SCF Done:  E(RHF) =  -256.781983557     A.U. after   10 cycles
            NFock= 10  Conv=0.72D-08     -V/T= 2.0004
 Calling FoFJK, ICntrl=      2127 FMM=F ISym2X=1 I1Cent= 0 IOpClX= 0 NMat=1 NMatS=1 NMatT=0.
 ***** Axes restored to original set *****
 -------------------------------------------------------------------
 Center     Atomic                   Forces (Hartrees/Bohr)
 Number     Number              X              Y              Z
 -------------------------------------------------------------------
      1        6           0.004101581   -0.000632560    0.000000000
      2        7           0.002174650   -0.000583268    0.000000000
      3        7          -0.003054799    0.001986895    0.000000000
      4        7          -0.003886878   -0.001272677    0.000000000
      5        7           0.000348139    0.000648585    0.000000000
      6        1           0.000101194   -0.000228978    0.000000000
      7        1           0.000216113    0.000082002    0.000000000
 -------------------------------------------------------------------
 Cartesian Forces:  Max     0.004101581 RMS     0.001588012
 -----------------------------------------------------------------------------------------------
                       Internal Coordinate Forces (Hartree/Bohr or radian)
  Cent   Atom   N1       Length/X         N2         Alpha/Y        N3         Beta/Z          J
 -----------------------------------------------------------------------------------------------
         X 
         X        1   0.000000(     1)
      1  C        1   0.004364(     2)      2   0.000000(     9)
      2  N        1   0.000818(     3)      2   0.000000(    10)      3  -0.004719(    16)     0
      3  N        1   0.001208(     4)      2   0.000000(    11)      3   0.008145(    17)     0
      4  N        1   0.003107(     5)      2   0.000000(    12)      3  -0.005675(    18)     0
      5  N        1   0.000699(     6)      2   0.000000(    13)      3   0.000435(    19)     0
      6  H        3   0.000088(     7)      4  -0.000473(    14)      5   0.000000(    20)     0
      7  H        4  -0.000015(     8)      5   0.000432(    15)      6   0.000000(    21)     0
 -----------------------------------------------------------------------------------------------
 Internal  Forces:  Max     0.008144545 RMS     0.002696786

 GradGradGradGradGradGradGradGradGradGradGradGradGradGradGradGradGradGrad
 Berny optimization.
 Search for a local minimum.
 Step number   3 out of a maximum of   22
 All quantities printed in internal units (Hartrees-Bohrs-Radians)
 Update second derivatives using D2CorN and points    1    3    2
 DE=  3.13D-05 DEPred=-4.48D-06 R=-6.97D+00
 Trust test=-6.97D+00 RLast= 3.00D-01 DXMaxT set to 1.50D-01
 The second derivative matrix:
                          rn1       rn2       rn3       rn4       rch
           rn1          0.65599
           rn2          0.00727   0.69551
           rn3          0.02396   0.09233   0.63028
           rn4          0.03897   0.01658   0.12385   0.63960
           rch          0.00004   0.00274   0.00203   0.00022   0.37483
           rnh         -0.00632   0.00268   0.01978  -0.00733   0.00163
           an1          0.01559  -0.76804   0.03352  -0.08383   0.00165
           an2          0.71636  -0.26667  -0.66302   0.04059  -0.00131
           an3         -0.02683   0.99722  -0.00105  -0.57952   0.00260
           an4          0.05148  -0.00607   0.68144  -0.09953  -0.00222
           ach          0.04292  -0.00343   0.00385   0.04812   0.00096
           anh         -0.10045   0.05889   0.00067   0.00184  -0.00097
                          rnh       an1       an2       an3       an4
           rnh          0.49361
           an1         -0.00836   4.52520
           an2          0.03238  -2.66905   6.04497
           an3         -0.03300  -0.04921  -3.21189   4.47314
           an4          0.01699  -0.10665  -0.07383  -1.14051   2.56729
           ach         -0.00030  -0.10983   0.01337  -0.01496   0.08252
           anh          0.00259   0.04079  -0.10063   0.01287  -0.00894
                          ach       anh
           ach          0.31846
           anh          0.00235   0.31714
 ITU= -1  1  0
     Eigenvalues ---    0.00130   0.18134   0.26811   0.33607   0.37482
     Eigenvalues ---    0.40515   0.49559   0.74489   1.21027   2.99509
     Eigenvalues ---    5.09026   9.63313
 RFO step:  Lambda=-1.46059545D-05 EMin= 1.30345279D-03
 Quartic linear search produced a step of -0.76540.
 Variable       Old X    -DE/DX   Delta X   Delta X   Delta X     New X
                                 (Linear)    (Quad)   (Total)
   rn1        2.21379   0.00082   0.10392  -0.00894   0.09498   2.30876
   rn2        2.40867   0.00121   0.07740  -0.00310   0.07430   2.48297
   rn3        2.13358   0.00311  -0.02924   0.00781  -0.02144   2.11215
   rn4        1.89142   0.00070  -0.10706   0.00519  -0.10187   1.78955
   rch        2.01842   0.00009  -0.00008   0.00022   0.00014   2.01856
   rnh        1.87263  -0.00001  -0.00045   0.00005  -0.00041   1.87223
   an1        1.30735  -0.00472  -0.04347   0.00377  -0.03970   1.26764
   an2        2.44500   0.00814  -0.08780   0.00751  -0.08029   2.36471
   an3        3.53318  -0.00567  -0.10716   0.00661  -0.10055   3.43264
   an4        4.88739   0.00043  -0.05037   0.00196  -0.04841   4.83897
   ach        2.17970  -0.00047  -0.00043   0.00059   0.00015   2.17986
   anh        2.11004   0.00043   0.00011   0.00016   0.00027   2.11031
         Item               Value     Threshold  Converged?
 Maximum Force            0.008145     0.000450     NO 
 RMS     Force            0.003338     0.000300     NO 
 Maximum Displacement     0.101870     0.001800     NO 
 RMS     Displacement     0.061816     0.001200     NO 
 Predicted change in Energy=-3.814970D-05
 GradGradGradGradGradGradGradGradGradGradGradGradGradGradGradGradGradGrad

 ---------------------------------------------------------------------------------------------------
                            Z-MATRIX (ANGSTROMS AND DEGREES)
   CD    Cent   Atom    N1       Length/X        N2       Alpha/Y        N3        Beta/Z          J
 ---------------------------------------------------------------------------------------------------
      1         X 
      2         X        1   1.000000(     1)
      3      1  C        1   1.000000(     2)      2   90.000(     9)
      4      2  N        1   1.221746(     3)      2   90.000(    10)      3   72.631(    16)      0
      5      3  N        1   1.313930(     4)      2   90.000(    11)      3  135.488(    17)      0
      6      4  N        1   1.117699(     5)      2   90.000(    12)      3  196.676(    18)      0
      7      5  N        1   0.946989(     6)      2   90.000(    13)      3  277.253(    19)      0
      8      6  H        3   1.068178(     7)      4  124.897(    14)      5  180.000(    20)      0
      9      7  H        4   0.990739(     8)      5  120.912(    15)      6  180.000(    21)      0
 ---------------------------------------------------------------------------------------------------
                         Z-Matrix orientation:                         
 ---------------------------------------------------------------------
 Center     Atomic      Atomic             Coordinates (Angstroms)
 Number     Number       Type             X           Y           Z
 ---------------------------------------------------------------------
      1         -1           0        0.000000    0.000000    0.000000
      2         -1           0        0.000000    0.000000    1.000000
      3          6           0        1.000000    0.000000    0.000000
      4          7           0        0.364728   -1.166034    0.000000
      5          7           0       -0.936968   -0.921143    0.000000
      6          7           0       -1.070694    0.320725    0.000000
      7          7           0        0.119556    0.939412    0.000000
      8          1           0        2.061698    0.117483    0.000000
      9          1           0        0.707759   -2.095493    0.000000
 ---------------------------------------------------------------------
                    Distance matrix (angstroms):
                    1          2          3          4          5
     1  X    0.000000
     2  X    1.000000   0.000000
     3  C    1.000000   1.414214   0.000000
     4  N    1.221746   1.578817   1.327858   0.000000
     5  N    1.313930   1.651185   2.144842   1.324532   0.000000
     6  N    1.117699   1.499750   2.095385   2.066614   1.249048
     7  N    0.946989   1.377239   1.287508   2.119673   2.139604
     8  H    2.065043   2.294428   1.068178   2.127704   3.173443
     9  H    2.211790   2.427347   2.115773   0.990739   2.020946
                    6          7          8          9
     6  N    0.000000
     7  N    1.341443   0.000000
     8  H    3.138979   2.108906   0.000000
     9  H    3.000168   3.091380   2.594304   0.000000
 Stoichiometry    CH2N4
 Framework group  CS[SG(CH2N4)]
 Deg. of freedom    11
 Full point group                 CS      NOp   2
 Largest Abelian subgroup         CS      NOp   2
 Largest concise Abelian subgroup C1      NOp   1
                         Standard orientation:                         
 ---------------------------------------------------------------------
 Center     Atomic      Atomic             Coordinates (Angstroms)
 Number     Number       Type             X           Y           Z
 ---------------------------------------------------------------------
      1          6           0        1.050525    0.225723    0.000000
      2          7           0        0.000000    1.037883    0.000000
      3          7           0       -1.093347    0.290236    0.000000
      4          7           0       -0.716417   -0.900580    0.000000
      5          7           0        0.622146   -0.988431    0.000000
      6          1           0        2.069847    0.545078    0.000000
      7          1           0       -0.059670    2.026823    0.000000
 ---------------------------------------------------------------------
 Rotational constants (GHZ):     10.9437533     10.7678232      5.4275377
 Standard basis: 6-31G(2df,p) (6D, 7F)
 There are   113 symmetry adapted cartesian basis functions of A'  symmetry.
 There are    52 symmetry adapted cartesian basis functions of A"  symmetry.
 There are   103 symmetry adapted basis functions of A'  symmetry.
 There are    47 symmetry adapted basis functions of A"  symmetry.
   150 basis functions,   234 primitive gaussians,   165 cartesian basis functions
    18 alpha electrons       18 beta electrons
       nuclear repulsion energy       170.0603351135 Hartrees.
 NAtoms=    7 NActive=    7 NUniq=    7 SFac= 1.00D+00 NAtFMM=   60 NAOKFM=F Big=F
 Integral buffers will be    131072 words long.
 Raffenetti 1 integral format.
 Two-electron integral symmetry is turned on.
 One-electron integrals computed using PRISM.
 NBasis=   150 RedAO= T EigKep=  2.72D-04  NBF=   103    47
 NBsUse=   150 1.00D-06 EigRej= -1.00D+00 NBFU=   103    47
 Lowest energy guess from the checkpoint file:  "/tmp/rdj3/g09-32362/Gau-10911.chk"
 B after Tr=     0.000000    0.000000    0.000000
         Rot=    1.000000    0.000000    0.000000   -0.000246 Ang=  -0.03 deg.
 B after Tr=     0.000000    0.000000    0.000000
         Rot=    1.000000    0.000000    0.000000   -0.000816 Ang=  -0.09 deg.
 Initial guess orbital symmetries:
       Occupied  (A") (A") (A') (A') (A') (A') (A') (A") (A') (A')
                 (A') (A') (A') (A') (A') (A') (A') (A')
       Virtual   (A") (A") (A') (A') (A') (A') (A') (A") (A') (A')
                 (A') (A') (A') (A') (A') (A') (A') (A') (A') (A')
                 (A') (A') (A') (A') (A') (A') (A') (A') (A') (A')
                 (A') (A') (A') (A') (A') (A') (A') (A') (A') (A')
                 (A') (A') (A') (A') (A') (A') (A') (A') (A') (A')
                 (A') (A') (A') (A') (A') (A') (A') (A') (A') (A')
                 (A') (A') (A') (A') (A') (A') (A') (A') (A') (A')
                 (A') (A') (A') (A') (A') (A') (A') (A') (A') (A')
                 (A') (A') (A') (A') (A') (A') (A') (A') (A") (A")
                 (A") (A") (A") (A") (A") (A") (A") (A") (A") (A")
                 (A") (A") (A") (A") (A") (A") (A") (A") (A") (A")
                 (A") (A") (A") (A") (A") (A") (A") (A") (A") (A")
                 (A") (A") (A") (A") (A") (A") (A") (A") (A") (A")
                 (A") (A")
 Keep R1 ints in memory in symmetry-blocked form, NReq=97005431.
 Requested convergence on RMS density matrix=1.00D-08 within 128 cycles.
 Requested convergence on MAX density matrix=1.00D-06.
 Requested convergence on             energy=1.00D-06.
 No special actions if energy rises.
 An orbital has undefined symmetry, so N**3 symmetry is turned off.
 SCF Done:  E(RHF) =  -256.782015794     A.U. after    9 cycles
            NFock=  9  Conv=0.71D-08     -V/T= 2.0005
 Calling FoFJK, ICntrl=      2127 FMM=F ISym2X=1 I1Cent= 0 IOpClX= 0 NMat=1 NMatS=1 NMatT=0.
 ***** Axes restored to original set *****
 -------------------------------------------------------------------
 Center     Atomic                   Forces (Hartrees/Bohr)
 Number     Number              X              Y              Z
 -------------------------------------------------------------------
      1        6          -0.000982124    0.000287745    0.000000000
      2        7          -0.000325508   -0.000117947    0.000000000
      3        7           0.000009753   -0.000127608    0.000000000
      4        7           0.000879327   -0.000646440    0.000000000
      5        7           0.000499579    0.000746208    0.000000000
      6        1          -0.000064279    0.000077036    0.000000000
      7        1          -0.000016748   -0.000218994    0.000000000
 -------------------------------------------------------------------
 Cartesian Forces:  Max     0.000982124 RMS     0.000392757
 -----------------------------------------------------------------------------------------------
                       Internal Coordinate Forces (Hartree/Bohr or radian)
  Cent   Atom   N1       Length/X         N2         Alpha/Y        N3         Beta/Z          J
 -----------------------------------------------------------------------------------------------
         X 
         X        1   0.000000(     1)
      1  C        1  -0.001105(     2)      2   0.000000(     9)
      2  N        1   0.000328(     3)      2   0.000000(    10)      3   0.000953(    16)     0
      3  N        1   0.000026(     4)      2   0.000000(    11)      3  -0.000146(    17)     0
      4  N        1  -0.001028(     5)      2   0.000000(    12)      3  -0.000775(    18)     0
      5  N        1   0.000803(     6)      2   0.000000(    13)      3   0.000718(    19)     0
      6  H        3  -0.000055(     7)      4   0.000169(    14)      5   0.000000(    20)     0
      7  H        4   0.000200(     8)      5  -0.000171(    15)      6   0.000000(    21)     0
 -----------------------------------------------------------------------------------------------
 Internal  Forces:  Max     0.001105485 RMS     0.000496582

 GradGradGradGradGradGradGradGradGradGradGradGradGradGradGradGradGradGrad
 Berny optimization.
 Search for a local minimum.
 Step number   4 out of a maximum of   22
 All quantities printed in internal units (Hartrees-Bohrs-Radians)
 Update second derivatives using D2CorN and points    1    3    2    4
 DE= -9.84D-07 DEPred=-3.81D-05 R= 2.58D-02
 Trust test= 2.58D-02 RLast= 8.63D-02 DXMaxT set to 7.50D-02
 The second derivative matrix:
                          rn1       rn2       rn3       rn4       rch
           rn1          0.65882
           rn2          0.00919   0.69679
           rn3          0.02234   0.09134   0.63160
           rn4          0.04068   0.01814   0.12371   0.63413
           rch         -0.00012   0.00265   0.00213   0.00027   0.37483
           rnh         -0.00554   0.00322   0.01935  -0.00753   0.00160
           an1          0.01520  -0.76847   0.03349  -0.08469   0.00167
           an2          0.71935  -0.26365  -0.66271   0.03393  -0.00125
           an3         -0.03310   0.99217   0.00096  -0.57770   0.00281
           an4          0.05305  -0.00459   0.68123  -0.10283  -0.00223
           ach          0.04318  -0.00328   0.00370   0.04804   0.00095
           anh         -0.10079   0.05871   0.00092   0.00189  -0.00096
                          rnh       an1       an2       an3       an4
           rnh          0.49379
           an1         -0.00848   4.52517
           an2          0.03235  -2.67065   6.03831
           an3         -0.03432  -0.04733  -3.21216   4.48254
           an4          0.01713  -0.10727  -0.07774  -1.14009   2.56525
           ach         -0.00025  -0.10991   0.01338  -0.01536   0.08256
           anh          0.00252   0.04083  -0.10060   0.01341  -0.00902
                          ach       anh
           ach          0.31846
           anh          0.00234   0.31717
 ITU= -1 -1  1  0
     Eigenvalues ---    0.00054   0.18160   0.26884   0.33645   0.37483
     Eigenvalues ---    0.40526   0.49572   0.74529   1.21027   2.99508
     Eigenvalues ---    5.09002   9.63297
 RFO step:  Lambda=-1.16187197D-06 EMin= 5.38282894D-04
 Quartic linear search produced a step of -0.47811.
 Variable       Old X    -DE/DX   Delta X   Delta X   Delta X     New X
                                 (Linear)    (Quad)   (Total)
   rn1        2.30876   0.00033   0.01950  -0.00312   0.01638   2.32514
   rn2        2.48297   0.00003   0.01282  -0.00117   0.01165   2.49462
   rn3        2.11215  -0.00103  -0.00802   0.00024  -0.00778   2.10437
   rn4        1.78955   0.00080  -0.01817   0.00334  -0.01483   1.77472
   rch        2.01856  -0.00006  -0.00012   0.00005  -0.00007   2.01850
   rnh        1.87223   0.00020  -0.00009   0.00048   0.00039   1.87262
   an1        1.26764   0.00095  -0.00817   0.00154  -0.00664   1.26101
   an2        2.36471  -0.00015  -0.01646   0.00261  -0.01385   2.35086
   an3        3.43264  -0.00078  -0.01887   0.00271  -0.01616   3.41648
   an4        4.83897   0.00072  -0.00832   0.00182  -0.00650   4.83247
   ach        2.17986   0.00017  -0.00034   0.00018  -0.00017   2.17969
   anh        2.11031  -0.00017  -0.00006  -0.00023  -0.00029   2.11002
         Item               Value     Threshold  Converged?
 Maximum Force            0.001028     0.000450     NO 
 RMS     Force            0.000574     0.000300     NO 
 Maximum Displacement     0.016379     0.001800     NO 
 RMS     Displacement     0.010099     0.001200     NO 
 Predicted change in Energy=-2.635696D-06
 GradGradGradGradGradGradGradGradGradGradGradGradGradGradGradGradGradGrad

 ---------------------------------------------------------------------------------------------------
                            Z-MATRIX (ANGSTROMS AND DEGREES)
   CD    Cent   Atom    N1       Length/X        N2       Alpha/Y        N3        Beta/Z          J
 ---------------------------------------------------------------------------------------------------
      1         X 
      2         X        1   1.000000(     1)
      3      1  C        1   1.000000(     2)      2   90.000(     9)
      4      2  N        1   1.230413(     3)      2   90.000(    10)      3   72.250(    16)      0
      5      3  N        1   1.320094(     4)      2   90.000(    11)      3  134.694(    17)      0
      6      4  N        1   1.113582(     5)      2   90.000(    12)      3  195.750(    18)      0
      7      5  N        1   0.939140(     6)      2   90.000(    13)      3  276.880(    19)      0
      8      6  H        3   1.068142(     7)      4  124.887(    14)      5  180.000(    20)      0
      9      7  H        4   0.990948(     8)      5  120.895(    15)      6  180.000(    21)      0
 ---------------------------------------------------------------------------------------------------
                         Z-Matrix orientation:                         
 ---------------------------------------------------------------------
 Center     Atomic      Atomic             Coordinates (Angstroms)
 Number     Number       Type             X           Y           Z
 ---------------------------------------------------------------------
      1         -1           0        0.000000    0.000000    0.000000
      2         -1           0        0.000000    0.000000    1.000000
      3          6           0        1.000000    0.000000    0.000000
      4          7           0        0.375099   -1.171843    0.000000
      5          7           0       -0.928453   -0.938416    0.000000
      6          7           0       -1.071774    0.302269    0.000000
      7          7           0        0.112504    0.932377    0.000000
      8          1           0        2.060590    0.126797    0.000000
      9          1           0        0.726071   -2.098556    0.000000
 ---------------------------------------------------------------------
                    Distance matrix (angstroms):
                    1          2          3          4          5
     1  X    0.000000
     2  X    1.000000   0.000000
     3  C    1.000000   1.414214   0.000000
     4  N    1.230413   1.585533   1.328050   0.000000
     5  N    1.320094   1.656095   2.144658   1.324287   0.000000
     6  N    1.113582   1.496685   2.093708   2.065538   1.248935
     7  N    0.939140   1.371854   1.287236   2.120542   2.140901
     8  H    2.064487   2.293928   1.068142   2.127756   3.173177
     9  H    2.220612   2.435388   2.116359   0.990948   2.020736
                    6          7          8          9
     6  N    0.000000
     7  N    1.341474   0.000000
     8  H    3.137275   2.108079   0.000000
     9  H    2.999367   3.092413   2.594829   0.000000
 Stoichiometry    CH2N4
 Framework group  CS[SG(CH2N4)]
 Deg. of freedom    11
 Full point group                 CS      NOp   2
 Largest Abelian subgroup         CS      NOp   2
 Largest concise Abelian subgroup C1      NOp   1
                         Standard orientation:                         
 ---------------------------------------------------------------------
 Center     Atomic      Atomic             Coordinates (Angstroms)
 Number     Number       Type             X           Y           Z
 ---------------------------------------------------------------------
      1          6           0        1.050087    0.224845    0.000000
      2          7           0        0.000000    1.037886    0.000000
      3          7           0       -1.093551    0.290970    0.000000
      4          7           0       -0.716077   -0.899556    0.000000
      5          7           0        0.622394   -0.989262    0.000000
      6          1           0        2.069552    0.543621    0.000000
      7          1           0       -0.059432    2.027050    0.000000
 ---------------------------------------------------------------------
 Rotational constants (GHZ):     10.9525745     10.7617312      5.4281571
 Standard basis: 6-31G(2df,p) (6D, 7F)
 There are   113 symmetry adapted cartesian basis functions of A'  symmetry.
 There are    52 symmetry adapted cartesian basis functions of A"  symmetry.
 There are   103 symmetry adapted basis functions of A'  symmetry.
 There are    47 symmetry adapted basis functions of A"  symmetry.
   150 basis functions,   234 primitive gaussians,   165 cartesian basis functions
    18 alpha electrons       18 beta electrons
       nuclear repulsion energy       170.0705190464 Hartrees.
 NAtoms=    7 NActive=    7 NUniq=    7 SFac= 1.00D+00 NAtFMM=   60 NAOKFM=F Big=F
 Integral buffers will be    131072 words long.
 Raffenetti 1 integral format.
 Two-electron integral symmetry is turned on.
 One-electron integrals computed using PRISM.
 NBasis=   150 RedAO= T EigKep=  2.72D-04  NBF=   103    47
 NBsUse=   150 1.00D-06 EigRej= -1.00D+00 NBFU=   103    47
 Initial guess from the checkpoint file:  "/tmp/rdj3/g09-32362/Gau-10911.chk"
 B after Tr=     0.000000    0.000000    0.000000
         Rot=    1.000000    0.000000    0.000000    0.000181 Ang=   0.02 deg.
 Initial guess orbital symmetries:
       Occupied  (A') (A') (A') (A') (A') (A') (A') (A') (A') (A')
                 (A') (A") (A') (A') (A') (A') (A") (A")
       Virtual   (A') (A') (A') (A') (A') (A') (A') (A') (A') (A')
                 (A') (A') (A') (A') (A') (A') (A') (A') (A') (A')
                 (A') (A') (A') (A') (A') (A') (A') (A') (A') (A')
                 (A') (A') (A') (A') (A') (A') (A') (A') (A') (A')
                 (A') (A') (A') (A') (A') (A') (A') (A') (A') (A')
                 (A') (A') (A') (A') (A') (A') (A') (A') (A') (A')
                 (A') (A') (A') (A') (A') (A') (A') (A') (A') (A')
                 (A') (A') (A') (A') (A') (A') (A') (A') (A') (A')
                 (A') (A') (A') (A') (A') (A') (A') (A') (A") (A")
                 (A") (A") (A") (A") (A") (A") (A") (A") (A") (A")
                 (A") (A") (A") (A") (A") (A") (A") (A") (A") (A")
                 (A") (A") (A") (A") (A") (A") (A") (A") (A") (A")
                 (A") (A") (A") (A") (A") (A") (A") (A") (A") (A")
                 (A") (A")
 Keep R1 ints in memory in symmetry-blocked form, NReq=97005431.
 Requested convergence on RMS density matrix=1.00D-08 within 128 cycles.
 Requested convergence on MAX density matrix=1.00D-06.
 Requested convergence on             energy=1.00D-06.
 No special actions if energy rises.
 SCF Done:  E(RHF) =  -256.782017925     A.U. after    9 cycles
            NFock=  9  Conv=0.38D-08     -V/T= 2.0005
 Calling FoFJK, ICntrl=      2127 FMM=F ISym2X=1 I1Cent= 0 IOpClX= 0 NMat=1 NMatS=1 NMatT=0.
 ***** Axes restored to original set *****
 -------------------------------------------------------------------
 Center     Atomic                   Forces (Hartrees/Bohr)
 Number     Number              X              Y              Z
 -------------------------------------------------------------------
      1        6          -0.000113492    0.000018379    0.000000000
      2        7           0.000152981   -0.000285675    0.000000000
      3        7           0.000269381    0.000401663    0.000000000
      4        7          -0.000437311    0.000013833    0.000000000
      5        7           0.000101943   -0.000156584    0.000000000
      6        1           0.000005672   -0.000018084    0.000000000
      7        1           0.000020827    0.000026467    0.000000000
 -------------------------------------------------------------------
 Cartesian Forces:  Max     0.000437311 RMS     0.000166185
 -----------------------------------------------------------------------------------------------
                       Internal Coordinate Forces (Hartree/Bohr or radian)
  Cent   Atom   N1       Length/X         N2         Alpha/Y        N3         Beta/Z          J
 -----------------------------------------------------------------------------------------------
         X 
         X        1   0.000000(     1)
      1  C        1  -0.000095(     2)      2   0.000000(     9)
      2  N        1   0.000270(     3)      2   0.000000(    10)      3  -0.000200(    16)     0
      3  N        1  -0.000457(     4)      2   0.000000(    11)      3   0.000196(    17)     0
      4  N        1   0.000425(     5)      2   0.000000(    12)      3  -0.000222(    18)     0
      5  N        1  -0.000143(     6)      2   0.000000(    13)      3   0.000213(    19)     0
      6  H        3   0.000003(     7)      4  -0.000038(    14)      5   0.000000(    20)     0
      7  H        4  -0.000017(     8)      5   0.000054(    15)      6   0.000000(    21)     0
 -----------------------------------------------------------------------------------------------
 Internal  Forces:  Max     0.000457209 RMS     0.000178574

 GradGradGradGradGradGradGradGradGradGradGradGradGradGradGradGradGradGrad
 Berny optimization.
 Search for a local minimum.
 Step number   5 out of a maximum of   22
 All quantities printed in internal units (Hartrees-Bohrs-Radians)
 Update second derivatives using D2CorN and points    1    3    2    4    5

 DE= -2.13D-06 DEPred=-2.64D-06 R= 8.09D-01
 TightC=F SS=  1.41D+00  RLast= 3.50D-02 DXNew= 1.2613D-01 1.0495D-01
 Trust test= 8.09D-01 RLast= 3.50D-02 DXMaxT set to 1.05D-01
 The second derivative matrix:
                          rn1       rn2       rn3       rn4       rch
           rn1          0.65780
           rn2          0.01091   0.69850
           rn3          0.01969   0.08744   0.63664
           rn4          0.04331   0.01794   0.12526   0.63039
           rch         -0.00027   0.00267   0.00222   0.00035   0.37483
           rnh         -0.00487   0.00311   0.01936  -0.00791   0.00162
           an1          0.01792  -0.76812   0.03333  -0.08754   0.00172
           an2          0.71920  -0.26517  -0.65815   0.03243  -0.00120
           an3         -0.03303   0.98877   0.00304  -0.57914   0.00303
           an4          0.05351  -0.00403   0.68314  -0.10408  -0.00228
           ach          0.04374  -0.00328   0.00356   0.04762   0.00097
           anh         -0.10139   0.05860   0.00133   0.00229  -0.00097
                          rnh       an1       an2       an3       an4
           rnh          0.49386
           an1         -0.00874   4.52308
           an2          0.03255  -2.67222   6.03994
           an3         -0.03559  -0.04970  -3.21128   4.48312
           an4          0.01759  -0.10796  -0.07803  -1.13950   2.56411
           ach         -0.00028  -0.11024   0.01325  -0.01615   0.08268
           anh          0.00257   0.04109  -0.10032   0.01426  -0.00912
                          ach       anh
           ach          0.31840
           anh          0.00239   0.31713
 ITU=  1 -1 -1  1  0
     Eigenvalues ---   -0.00091   0.18120   0.27110   0.33745   0.37483
     Eigenvalues ---    0.40539   0.49575   0.74536   1.21034   2.99501
     Eigenvalues ---    5.08961   9.63265
 RFO step:  Lambda=-9.05274825D-04 EMin=-9.05182438D-04
 I=     1 Eig=   -9.05D-04 Dot1= -2.44D-06
 I=     1 Stepn= -2.62D-01 RXN=   2.62D-01 EDone=F
 Mixed    1 eigenvectors in step.  Raw Step.Grad=  2.44D-06.
 RFO eigenvector is Hessian eigenvector with negative curvature.
 Taking step of  2.62D-01 in eigenvector direction(s).  Step.Grad=  5.67D-05.
 Quartic linear search produced a step of -0.18334.
 Maximum step size (   0.105) exceeded in Quadratic search.
    -- Step size scaled by   0.400
 Variable       Old X    -DE/DX   Delta X   Delta X   Delta X     New X
                                 (Linear)    (Quad)   (Total)
   rn1        2.32514   0.00027  -0.00300   0.04722   0.04422   2.36936
   rn2        2.49462  -0.00046  -0.00214   0.03272   0.03058   2.52520
   rn3        2.10437   0.00042   0.00143  -0.01041  -0.00898   2.09538
   rn4        1.77472  -0.00014   0.00272  -0.05139  -0.04868   1.72604
   rch        2.01850   0.00000   0.00001   0.00013   0.00014   2.01864
   rnh        1.87262  -0.00002  -0.00007  -0.00052  -0.00059   1.87203
   an1        1.26101  -0.00020   0.00122  -0.02040  -0.01919   1.24182
   an2        2.35086   0.00020   0.00254  -0.04019  -0.03765   2.31321
   an3        3.41648  -0.00022   0.00296  -0.04859  -0.04563   3.37085
   an4        4.83247   0.00021   0.00119  -0.02391  -0.02271   4.80976
   ach        2.17969  -0.00004   0.00003   0.00000   0.00003   2.17972
   anh        2.11002   0.00005   0.00005   0.00090   0.00095   2.11097
         Item               Value     Threshold  Converged?
 Maximum Force            0.000457     0.000450     NO 
 RMS     Force            0.000235     0.000300     YES
 Maximum Displacement     0.048675     0.001800     NO 
 RMS     Displacement     0.028469     0.001200     NO 
 Predicted change in Energy=-7.177026D-06
 GradGradGradGradGradGradGradGradGradGradGradGradGradGradGradGradGradGrad

 ---------------------------------------------------------------------------------------------------
                            Z-MATRIX (ANGSTROMS AND DEGREES)
   CD    Cent   Atom    N1       Length/X        N2       Alpha/Y        N3        Beta/Z          J
 ---------------------------------------------------------------------------------------------------
      1         X 
      2         X        1   1.000000(     1)
      3      1  C        1   1.000000(     2)      2   90.000(     9)
      4      2  N        1   1.253814(     3)      2   90.000(    10)      3   71.151(    16)      0
      5      3  N        1   1.336278(     4)      2   90.000(    11)      3  132.537(    17)      0
      6      4  N        1   1.108829(     5)      2   90.000(    12)      3  193.136(    18)      0
      7      5  N        1   0.913383(     6)      2   90.000(    13)      3  275.579(    19)      0
[...]
 Frequencies --   1017.5545              1088.4129              1111.2400
 Red. masses --      1.3849                 4.8293                 7.4336
 Frc consts  --      0.8449                 3.3707                 5.4083
 IR Inten    --      7.3713                 1.8065                 2.1449
 Raman Activ --      0.1667                 1.7280                 2.2287
 Depolar (P) --      0.7500                 0.5002                 0.6545
 Depolar (U) --      0.8571                 0.6669                 0.7912
  Atom  AN      X      Y      Z        X      Y      Z        X      Y      Z
     1   6     0.00   0.00   0.18     0.12   0.12   0.00    -0.40  -0.05   0.00
     2   7     0.00   0.00  -0.03     0.09   0.01   0.00    -0.02   0.39   0.00
     3   7     0.00   0.00   0.00     0.17  -0.13   0.00     0.24  -0.02   0.00
     4   7     0.00   0.00  -0.01    -0.02  -0.19   0.00     0.26  -0.09   0.00
     5   7     0.00   0.00  -0.03    -0.34   0.25   0.00    -0.11  -0.24   0.00
     6   1     0.00   0.00  -0.98     0.35  -0.61   0.00    -0.31  -0.46   0.00
     7   1     0.00   0.00  -0.03    -0.46  -0.02   0.00    -0.03   0.41   0.00
                      7                      8                      9
                     A'                     A'                     A'
 Frequencies --   1171.3667              1193.6755              1255.5896
 Red. masses --      3.6951                 2.7004                 2.4029
 Frc consts  --      2.9872                 2.2670                 2.2320
 IR Inten    --     22.4380                33.4446                20.8789
 Raman Activ --      5.1482                 1.2817                 6.3553
 Depolar (P) --      0.1390                 0.7348                 0.7155
 Depolar (U) --      0.2441                 0.8471                 0.8341
  Atom  AN      X      Y      Z        X      Y      Z        X      Y      Z
     1   6     0.08  -0.05   0.00     0.07  -0.07   0.00     0.08  -0.11   0.00
     2   7     0.07   0.27   0.00    -0.16   0.02   0.00    -0.14  -0.04   0.00
     3   7    -0.16  -0.16   0.00     0.22   0.08   0.00    -0.09   0.05   0.00
     4   7    -0.18  -0.04   0.00    -0.17   0.00   0.00     0.20   0.14   0.00
     5   7     0.18   0.01   0.00     0.10  -0.05   0.00    -0.03   0.02   0.00
     6   1     0.33  -0.78   0.00     0.03   0.05   0.00     0.29  -0.81   0.00
     7   1     0.00   0.28   0.00    -0.93  -0.02   0.00    -0.38  -0.06   0.00
                     10                     11                     12
                     A'                     A'                     A'
 Frequencies --   1420.4745              1539.1850              1619.0360
 Red. masses --      2.7013                 5.6542                 3.2260
 Frc consts  --      3.2114                 7.8923                 4.9823
 IR Inten    --      1.1059                33.4625                 9.9127
 Raman Activ --     10.4658                18.0406                 6.8191
 Depolar (P) --      0.0932                 0.0936                 0.5964
 Depolar (U) --      0.1705                 0.1712                 0.7472
  Atom  AN      X      Y      Z        X      Y      Z        X      Y      Z
     1   6     0.21   0.04   0.00     0.19   0.06   0.00    -0.13   0.28   0.00
     2   7     0.05   0.12   0.00    -0.20   0.06   0.00     0.17  -0.12   0.00
     3   7    -0.12  -0.04   0.00    -0.07   0.34   0.00    -0.07   0.12   0.00
     4   7     0.07   0.02   0.00     0.03  -0.39   0.00    -0.02  -0.05   0.00
     5   7    -0.14  -0.19   0.00     0.00  -0.07   0.00     0.07  -0.14   0.00
     6   1     0.04   0.70   0.00     0.30  -0.15   0.00     0.12  -0.56   0.00
     7   1    -0.60   0.10   0.00     0.71   0.15   0.00    -0.67  -0.19   0.00
                     13                     14                     15
                     A'                     A'                     A'
 Frequencies --   1710.5930              3444.1243              3925.2640
 Red. masses --      3.8333                 1.1042                 1.0848
 Frc consts  --      6.6086                 7.7174                 9.8480
 IR Inten    --     25.0749                 0.2423               138.4046
 Raman Activ --      1.3339                61.1706                60.1430
 Depolar (P) --      0.6381                 0.2774                 0.2762
 Depolar (U) --      0.7791                 0.4343                 0.4328
  Atom  AN      X      Y      Z        X      Y      Z        X      Y      Z
     1   6     0.11   0.27   0.00     0.09   0.03   0.00     0.00   0.00   0.00
     2   7    -0.17  -0.03   0.00     0.00   0.00   0.00    -0.01   0.08   0.00
     3   7     0.13  -0.15   0.00     0.00   0.00   0.00     0.00   0.00   0.00
     4   7    -0.07   0.17   0.00     0.00   0.00   0.00     0.00   0.00   0.00
     5   7    -0.05  -0.20   0.00     0.00   0.00   0.00     0.00   0.00   0.00
     6   1     0.34  -0.33   0.00    -0.95  -0.29   0.00    -0.01   0.00   0.00
     7   1     0.74   0.02   0.00     0.01   0.02   0.00     0.06  -1.00   0.00

 -------------------
 - Thermochemistry -
 -------------------
 Temperature   298.150 Kelvin.  Pressure   1.00000 Atm.
 Atom     1 has atomic number  6 and mass  12.00000
 Atom     2 has atomic number  7 and mass  14.00307
 Atom     3 has atomic number  7 and mass  14.00307
 Atom     4 has atomic number  7 and mass  14.00307
 Atom     5 has atomic number  7 and mass  14.00307
 Atom     6 has atomic number  1 and mass   1.00783
 Atom     7 has atomic number  1 and mass   1.00783
 Molecular mass:    70.02795 amu.
 Principal axes and moments of inertia in atomic units:
                           1         2         3
     Eigenvalues --   164.82054 167.66426 332.48480
           X            0.92815   0.37220   0.00000
           Y           -0.37220   0.92815   0.00000
           Z            0.00000   0.00000   1.00000
 This molecule is an asymmetric top.
 Rotational symmetry number  1.
 Rotational temperatures (Kelvin)      0.52550     0.51659     0.26050
 Rotational constants (GHZ):          10.94973    10.76402     5.42804
 Zero-point vibrational energy     135676.4 (Joules/Mol)
                                   32.42744 (Kcal/Mol)
 Warning -- explicit consideration of   1 degrees of freedom as
           vibrations may cause significant error
 Vibrational temperatures:    890.78  1079.19  1176.36  1464.03  1565.98
          (Kelvin)           1598.82  1685.33  1717.43  1806.51  2043.74
                             2214.54  2329.43  2461.16  4955.32  5647.57
 
 Zero-point correction=                           0.051676 (Hartree/Particle)
 Thermal correction to Energy=                    0.054976
 Thermal correction to Enthalpy=                  0.055920
 Thermal correction to Gibbs Free Energy=         0.025690
 Sum of electronic and zero-point Energies=           -256.730342
 Sum of electronic and thermal Energies=              -256.727042
 Sum of electronic and thermal Enthalpies=            -256.726098
 Sum of electronic and thermal Free Energies=         -256.756329
 
                     E (Thermal)             CV                S
                      KCal/Mol        Cal/Mol-Kelvin    Cal/Mol-Kelvin
 Total                   34.498             10.084             63.625
 Electronic               0.000              0.000              0.000
 Translational            0.889              2.981             38.656
 Rotational               0.889              2.981             23.734
 Vibrational             32.721              4.122              1.236
 Vibration     1          0.979              0.992              0.418
                       Q            Log10(Q)             Ln(Q)
 Total Bot       0.152600D-11        -11.816445        -27.208369
 Total V=0       0.897448D+12         11.953009         27.522821
 Vib (Bot)       0.193079D-23        -23.714265        -54.604113
 Vib (Bot)    1  0.236424D+00         -0.626309         -1.442129
 Vib (V=0)       0.113550D+01          0.055189          0.127077
 Vib (V=0)    1  0.105308D+01          0.022461          0.051718
 Electronic      0.100000D+01          0.000000          0.000000
 Translational   0.230336D+08          7.362362         16.952466
 Rotational      0.343130D+05          4.535458         10.443279
 ***** Axes restored to original set *****
 -------------------------------------------------------------------
 Center     Atomic                   Forces (Hartrees/Bohr)
 Number     Number              X              Y              Z
 -------------------------------------------------------------------
      1        6           0.000000411    0.000007170    0.000000000
      2        7           0.000004662    0.000001375    0.000000000
      3        7          -0.000004428    0.000002299    0.000000000
      4        7          -0.000008341   -0.000002221    0.000000000
      5        7           0.000008600   -0.000010775    0.000000000
      6        1           0.000000788   -0.000000341    0.000000000
      7        1          -0.000001691    0.000002493    0.000000000
 -------------------------------------------------------------------
 Cartesian Forces:  Max     0.000010775 RMS     0.000004223
 -----------------------------------------------------------------------------------------------
                       Internal Coordinate Forces (Hartree/Bohr or radian)
  Cent   Atom   N1       Length/X         N2         Alpha/Y        N3         Beta/Z          J
 -----------------------------------------------------------------------------------------------
         X 
         X        1   0.000000(     1)
      1  C        1   0.000002(     2)      2   0.000000(     9)
      2  N        1  -0.000003(     3)      2   0.000000(    10)      3  -0.000008(    16)     0
      3  N        1   0.000001(     4)      2   0.000000(    11)      3   0.000013(    17)     0
      4  N        1   0.000007(     5)      2   0.000000(    12)      3  -0.000009(    18)     0
      5  N        1  -0.000010(     6)      2   0.000000(    13)      3   0.000017(    19)     0
      6  H        3   0.000001(     7)      4  -0.000001(    14)      5   0.000000(    20)     0
      7  H        4  -0.000003(     8)      5  -0.000001(    15)      6   0.000000(    21)     0
 -----------------------------------------------------------------------------------------------
 Internal  Forces:  Max     0.000017335 RMS     0.000006107

 GradGradGradGradGradGradGradGradGradGradGradGradGradGradGradGradGradGrad
 Berny optimization.
 Search for a local minimum.
 Step number   1 out of a maximum of    2
 All quantities printed in internal units (Hartrees-Bohrs-Radians)
 Second derivative matrix not updated -- analytic derivatives used.
 The second derivative matrix:
                          rn1       rn2       rn3       rn4       rch
           rn1          0.70145
           rn2         -0.04937   0.75353
           rn3          0.08582   0.00713   0.69538
           rn4          0.11157   0.09150   0.00865   0.69190
           rch         -0.00374  -0.00104   0.00110  -0.00503   0.41512
           rnh          0.01170  -0.00758   0.00082   0.00007   0.00038
           an1          0.08282  -0.44287  -0.25661   0.17249   0.01644
           an2          0.32392  -0.27392  -0.58010  -0.19830  -0.00212
           an3          0.28829   0.71736   0.29533  -0.33882   0.00299
           an4         -0.17521   0.18956   0.37425  -0.19730  -0.01591
           ach          0.04037   0.01339  -0.01573   0.03692   0.00237
           anh         -0.05981   0.02358   0.02837  -0.02205  -0.00139
                          rnh       an1       an2       an3       an4
           rnh          0.54643
           an1         -0.01022   3.02547
           an2          0.02017  -1.30521   3.80844
           an3         -0.00910  -0.34582  -1.95637   2.96587
           an4          0.00466  -0.31354  -0.36231  -0.35320   1.79669
           ach          0.00032  -0.00711  -0.02508  -0.00639   0.09702
           anh          0.00078  -0.03017  -0.02372   0.00630  -0.00159
                          ach       anh
           ach          0.25422
           anh          0.00140   0.25285
 ITU=  0
     Eigenvalues ---    0.00000   0.19111   0.25099   0.32427   0.41538
     Eigenvalues ---    0.54584   0.74104   0.83608   0.96576   2.26614
     Eigenvalues ---    3.60800   5.76274
 Angle between quadratic step and forces=  78.35 degrees.
 Linear search not attempted -- first point.
 Variable       Old X    -DE/DX   Delta X   Delta X   Delta X     New X
                                 (Linear)    (Quad)   (Total)
   rn1        2.33142   0.00000   0.00000  -0.00004  -0.00004   2.33138
   rn2        2.49835   0.00000   0.00000  -0.00002  -0.00002   2.49834
   rn3        2.10315   0.00001   0.00000   0.00003   0.00003   2.10318
   rn4        1.76847  -0.00001   0.00000   0.00002   0.00002   1.76850
   rch        2.01851   0.00000   0.00000   0.00000   0.00000   2.01851
   rnh        1.87257   0.00000   0.00000  -0.00001  -0.00001   1.87257
   an1        1.25843  -0.00001   0.00000   0.00002   0.00002   1.25845
   an2        2.34584   0.00001   0.00000   0.00004   0.00004   2.34588
   an3        3.41036  -0.00001   0.00000   0.00004   0.00004   3.41040
   an4        4.82971   0.00002   0.00000   0.00002   0.00002   4.82973
   ach        2.17952   0.00000   0.00000   0.00000   0.00000   2.17951
   anh        2.11032   0.00000   0.00000  -0.00001  -0.00001   2.11031
         Item               Value     Threshold  Converged?
 Maximum Force            0.000017     0.000450     YES
 RMS     Force            0.000008     0.000300     YES
 Maximum Displacement     0.000041     0.001800     YES
 RMS     Displacement     0.000024     0.001200     YES
 Predicted change in Energy=-2.366011D-10
 Optimization completed.
    -- Stationary point found.
                       ----------------------------
                       !   Optimized Parameters   !
                       ! (Angstroms and Degrees)  !
 ----------------------                            ----------------------
 !      Name          Value   Derivative information (Atomic Units)     !
 ------------------------------------------------------------------------
 !       rn1         1.2337   -DE/DX =    0.0                           !
 !       rn2         1.3221   -DE/DX =    0.0                           !
 !       rn3         1.1129   -DE/DX =    0.0                           !
 !       rn4         0.9358   -DE/DX =    0.0                           !
 !       rch         1.0682   -DE/DX =    0.0                           !
 !       rnh         0.9909   -DE/DX =    0.0                           !
 !       an1        72.1027   -DE/DX =    0.0                           !
 !       an2       134.4068   -DE/DX =    0.0                           !
 !       an3       195.3995   -DE/DX =    0.0                           !
 !       an4       276.722    -DE/DX =    0.0                           !
 !       ach       124.8771   -DE/DX =    0.0                           !
 !       anh       120.9126   -DE/DX =    0.0                           !
 ------------------------------------------------------------------------
 GradGradGradGradGradGradGradGradGradGradGradGradGradGradGradGradGradGrad

 1\1\GINC-N342\Freq\RHF\6-31G(2df,p)\C1H2N4\RDJ3\25-Nov-2013\1\\#N Geom
 =AllCheck Guess=TCheck SCRF=Check GenChk RHF/6-31G(2df,p) Freq\\1H-tet
 razole CH2N4 casno=288948 state=1 config=1 method=1 basis=19\\0,1\X\X,
 1,1.\C,1,1.,2,90.\N,1,rn1,2,90.,3,an1,0\N,1,rn2,2,90.,3,an2,0\N,1,rn3,
 2,90.,3,an3,0\N,1,rn4,2,90.,3,an4,0\H,3,rch,4,ach,5,180.,0\H,4,rnh,5,a
 nh,6,180.,0\\rn1=1.23373252\rn2=1.32207242\rn3=1.11293986\rn4=0.935836
 43\rch=1.06815102\rnh=0.99092244\an1=72.10265387\an2=134.40679102\an3=
 195.39948782\an4=276.72203305\ach=124.87707416\anh=120.91262838\\Versi
 on=EM64L-G09RevD.01\State=1-A'\HF=-256.7820183\RMSD=1.223e-09\RMSF=4.2
 23e-06\ZeroPoint=0.0516764\Thermal=0.054976\Dipole=1.7098211,-1.306678
 2,0.\DipoleDeriv=0.3665757,0.0917238,0.,-0.147052,0.527212,0.,0.,0.,0.
 1959263,-0.2809667,0.3090331,0.,0.2012754,-0.4351754,0.,0.,0.,-0.19434
 37,0.0835969,-0.4500565,0.,-0.3016867,-0.1875435,0.,0.,0.,-0.098471,0.
 1023408,0.2097159,0.,0.1887042,-0.0179154,0.,0.,0.,-0.1460116,-0.54452
 63,-0.1217484,0.,0.0862207,-0.3446212,0.,0.,0.,-0.2597346,0.0472194,0.
 0077618,0.,0.0026347,0.1216026,0.,0.,0.,0.1467505,0.2257603,-0.0464297
 ,0.,-0.0300963,0.336441,0.,0.,0.,0.3558841\Polar=36.2174653,-0.4976611
 ,35.2654117,0.,0.,17.9843431\PolarDeriv=2.6467149,0.1267272,1.7628588,
 0.,0.,0.8910342,-1.6267386,-2.1042871,0.3465519,0.,0.,0.1856787,0.,0.,
 0.,3.1366822,0.081289,0.,-0.196857,0.1619647,0.219546,0.,0.,-0.1270418
 ,-0.968563,1.0811175,0.2404172,0.,0.,-0.9257867,0.,0.,0.,0.5209929,-1.
 9126562,0.,-3.6681174,-2.3103979,-3.2422609,0.,0.,-0.4195128,-5.218378
 4,-4.7709912,-7.0390726,0.,0.,-0.7214997,0.,0.,0.,-2.0347037,-2.289421
 1,0.,-4.9071921,4.6724704,-2.3579194,0.,0.,-0.8759935,5.4376998,1.4280
 507,4.6559511,0.,0.,0.5788836,0.,0.,0.,-2.275792,1.7844599,0.,-3.60322
 64,-1.9822728,0.8836918,0.,0.,-0.1737756,2.8805743,0.8989687,8.5007792
 ,0.,0.,1.04775,0.,0.,0.,-0.5077534,2.8687022,0.,8.4445793,1.0382897,0.
 847771,0.,0.,0.6023982,0.665093,1.4511121,0.4389667,0.,0.,0.0848729,0.
 ,0.,0.,0.9004077,0.1908731,0.,1.2840987,-1.7067815,1.8863127,0.,0.,0.1
 028914,-1.169687,2.0160293,-7.1435935,0.,0.,-0.2498987,0.,0.,0.,0.2601
 662,-0.7232469,0.\HyperPolar=39.535542,-5.1116637,5.4562807,-20.650071
 ,0.,0.,0.,3.897534,-0.4935986,0.\PG=CS [SG(C1H2N4)]\NImag=0\\1.1273559
 5,-0.00729714,0.73197092,0.,0.,0.18724193,-0.20865815,-0.08983270,0.,0
 .72389520,-0.12009928,-0.31878614,0.,-0.13309647,1.17594764,0.,0.,-0.0
 7949410,0.,0.,0.10964037,-0.10797114,-0.09885635,0.,-0.30063660,-0.035
 88952,0.,0.57061160,0.00312556,-0.04384339,0.,0.01481216,-0.12623877,0
 .,0.07084649,0.81361283,0.,0.,0.02462578,0.,0.,-0.08391472,0.,0.,0.142
 13451,-0.13622810,0.09636164,0.,-0.08667476,0.03362732,0.,-0.14969773,
 0.01721308,0.,0.62173152,-0.03376340,0.05644347,0.,0.13813025,-0.12867
 218,0.,0.06977645,-0.52650145,0.,-0.12698160,0.74416810,0.,0.,0.021997
 58,0.,0.,0.03477791,0.,0.,-0.12032703,0.,0.,0.15258892,-0.30302430,0.1
 5460835,0.,0.01772589,0.11718392,0.,-0.01740680,-0.14855166,0.,-0.2336
 5140,-0.05302548,0.,0.55015875,0.18131213,-0.34223093,0.,-0.03896281,-
 0.12364724,0.,-0.00686214,-0.11297708,0.,-0.02393768,-0.14782746,0.,-0
 .09485489,0.71622733,0.,0.,-0.09929740,0.,0.,0.02611684,0.,0.,0.044168
 01,0.,0.,-0.10878294,0.,0.,0.13266775,-0.39235616,-0.04255904,0.,-0.00
 344054,0.00241784,0.,0.00135676,0.00057496,0.,-0.00154128,0.00207845,0
 .,-0.01300770,-0.00573857,0.,0.40959067,-0.04009126,-0.07596679,0.,-0.
 03793081,0.00496666,0.,-0.00088204,-0.00793380,0.,0.00697558,-0.003290
 56,0.,0.02775273,0.01439101,0.,0.04384369,0.06792583,0.,0.,-0.04480957
 ,0.,0.,-0.00002170,0.,0.,0.00726299,0.,0.,0.01105459,0.,0.,-0.00358904
 ,0.,0.,0.03143963,0.02088191,-0.01242475,0.,-0.14221104,0.13585618,0.,
 0.00374392,0.04197941,0.,-0.01393824,0.00378532,0.,-0.00079444,-0.0109
 5603,0.,-0.00060176,0.00033210,0.,0.13291966,0.01681341,-0.00758715,0.
 ,0.14688037,-0.48356997,0.,0.00186711,0.00388167,0.,-0.00325833,0.0056
 8007,0.,-0.00311298,-0.00393563,0.,-0.00061734,-0.00009235,0.,-0.15857
 224,0.48562336,0.,0.,-0.01026421,0.,0.,-0.00710461,0.,0.,-0.01394953,0
 .,0.,0.00869099,0.,0.,0.00871678,0.,0.,-0.00133689,0.,0.,0.01524747\\-
 0.00000041,-0.00000717,0.,-0.00000466,-0.00000138,0.,0.00000443,-0.000
 00230,0.,0.00000834,0.00000222,0.,-0.00000860,0.00001077,0.,-0.0000007
 9,0.00000034,0.,0.00000169,-0.00000249,0.\\\@


 BRING ME INTO THE COMPANY OF THOSE WHO SEEK TRUTH,
 AND DELIVER ME FROM THOSE WHO HAVE FOUND IT.
 Job cpu time:       0 days  0 hours  4 minutes 29.7 seconds.
 File lengths (MBytes):  RWF=     19 Int=      0 D2E=      0 Chk=      3 Scr=      1
 Normal termination of Gaussian 09 at Mon Nov 25 17:32:27 2013.
