 Entering Gaussian System, Link 0=g09
 Initial command:
 /usr/local/gaussian/g09.d01.em64t.legacy.linda/g09/l1.exe "/tmp/rdj3/g09-32362/Gau-19514.inp" -scrdir="/tmp/rdj3/g09-32362/"
 Entering Link 1 = /usr/local/gaussian/g09.d01.em64t.legacy.linda/g09/l1.exe PID=     19515.
  
 Copyright (c) 1988,1990,1992,1993,1995,1998,2003,2009,2013,
            Gaussian, Inc.  All Rights Reserved.
  
 This is part of the Gaussian(R) 09 program.  It is based on
 the Gaussian(R) 03 system (copyright 2003, Gaussian, Inc.),
 the Gaussian(R) 98 system (copyright 1998, Gaussian, Inc.),
 the Gaussian(R) 94 system (copyright 1995, Gaussian, Inc.),
 the Gaussian 92(TM) system (copyright 1992, Gaussian, Inc.),
 the Gaussian 90(TM) system (copyright 1990, Gaussian, Inc.),
 the Gaussian 88(TM) system (copyright 1988, Gaussian, Inc.),
 the Gaussian 86(TM) system (copyright 1986, Carnegie Mellon
 University), and the Gaussian 82(TM) system (copyright 1983,
 Carnegie Mellon University). Gaussian is a federally registered
 trademark of Gaussian, Inc.
  
 This software contains proprietary and confidential information,
 including trade secrets, belonging to Gaussian, Inc.
  
 This software is provided under written license and may be
 used, copied, transmitted, or stored only in accord with that
 written license.
  
 The following legend is applicable only to US Government
 contracts under FAR:
  
                    RESTRICTED RIGHTS LEGEND
  
 Use, reproduction and disclosure by the US Government is
 subject to restrictions as set forth in subparagraphs (a)
 and (c) of the Commercial Computer Software - Restricted
 Rights clause in FAR 52.227-19.
  
 Gaussian, Inc.
 340 Quinnipiac St., Bldg. 40, Wallingford CT 06492
  
  
 ---------------------------------------------------------------
 Warning -- This program may not be used in any manner that
 competes with the business of Gaussian, Inc. or will provide
 assistance to any competitor of Gaussian, Inc.  The licensee
 of this program is prohibited from giving any competitor of
 Gaussian, Inc. access to this program.  By using this program,
 the user acknowledges that Gaussian, Inc. is engaged in the
 business of creating and licensing software in the field of
 computational chemistry and represents and warrants to the
 licensee that it is not a competitor of Gaussian, Inc. and that
 it will not use this program in any manner prohibited above.
 ---------------------------------------------------------------
  

 Cite this work as:
 Gaussian 09, Revision D.01,
 M. J. Frisch, G. W. Trucks, H. B. Schlegel, G. E. Scuseria, 
 M. A. Robb, J. R. Cheeseman, G. Scalmani, V. Barone, B. Mennucci, 
 G. A. Petersson, H. Nakatsuji, M. Caricato, X. Li, H. P. Hratchian, 
 A. F. Izmaylov, J. Bloino, G. Zheng, J. L. Sonnenberg, M. Hada, 
 M. Ehara, K. Toyota, R. Fukuda, J. Hasegawa, M. Ishida, T. Nakajima, 
 Y. Honda, O. Kitao, H. Nakai, T. Vreven, J. A. Montgomery, Jr., 
 J. E. Peralta, F. Ogliaro, M. Bearpark, J. J. Heyd, E. Brothers, 
 K. N. Kudin, V. N. Staroverov, T. Keith, R. Kobayashi, J. Normand, 
 K. Raghavachari, A. Rendell, J. C. Burant, S. S. Iyengar, J. Tomasi, 
 M. Cossi, N. Rega, J. M. Millam, M. Klene, J. E. Knox, J. B. Cross, 
 V. Bakken, C. Adamo, J. Jaramillo, R. Gomperts, R. E. Stratmann, 
 O. Yazyev, A. J. Austin, R. Cammi, C. Pomelli, J. W. Ochterski, 
 R. L. Martin, K. Morokuma, V. G. Zakrzewski, G. A. Voth, 
 P. Salvador, J. J. Dannenberg, S. Dapprich, A. D. Daniels, 
 O. Farkas, J. B. Foresman, J. V. Ortiz, J. Cioslowski, 
 and D. J. Fox, Gaussian, Inc., Wallingford CT, 2013.
 
 ******************************************
 Gaussian 09:  EM64L-G09RevD.01 24-Apr-2013
                25-Nov-2013 
 ******************************************
 %Nproc=8
 Will use up to    8 processors via shared memory.
 %mem=436000000
 ------------------------------
 #HF/6-31+G** opt=z-matrix freq
 ------------------------------
 1/10=7,18=40,38=1/1,3;
 2/12=2,17=6,18=5,29=3,40=1/2;
 3/5=1,6=6,7=111,11=9,16=1,25=1,30=1,71=1/1,2,3;
 4//1;
 5/5=2,38=5/2;
 6/7=2,8=2,9=2,10=2,28=1/1;
 7/29=1/1,2,3,16;
 1/10=7,18=40/3(2);
 2/29=3/2;
 99//99;
 2/29=3/2;
 3/5=1,6=6,7=111,11=9,16=1,25=1,30=1,71=1/1,2,3;
 4/5=5,16=3,69=1/1;
 5/5=2,38=5/2;
 7//1,2,3,16;
 1/18=40/3(-5);
 2/29=3/2;
 6/7=2,8=2,9=2,10=2,19=2,28=1/1;
 99/9=1/99;
 -----------------------------------------------------------------
 1H-tetrazole CH2N4 casno=288948 state=1 config=1 method=1 basis=4
 -----------------------------------------------------------------
 Symbolic Z-matrix:
 Charge =  0 Multiplicity = 1
 X
 X                    1     1. 
 C                    1     1.       2     90. 
 N                    1    rn1      2     90.      3    an1      0
 N                    1    rn2      2     90.      3    an2      0
 N                    1    rn3      2     90.      3    an3      0
 N                    1    rn4      2     90.      3    an4      0
 H                    3    rch      4    ach      5     180.     0
 H                    4    rnh      5    anh      6     180.     0
       Variables:
  rn1                   1.2426                   
  rn2                   1.333                    
  rn3                   1.1146                   
  rn4                   0.9264                   
  rch                   1.0678                   
  rnh                   0.9941                   
  an1                  71.8427                   
  an2                 133.7028                   
  an3                 194.4597                   
  an4                 276.0768                   
  ach                 125.0248                   
  anh                 120.7626                   
 

 GradGradGradGradGradGradGradGradGradGradGradGradGradGradGradGradGradGrad
 Berny optimization.
 Initialization pass.
                       ----------------------------
                       !    Initial Parameters    !
                       ! (Angstroms and Degrees)  !
 ----------------------                            ----------------------
 !      Name          Value   Derivative information (Atomic Units)     !
 ------------------------------------------------------------------------
 !       rn1         1.2426   estimate D2E/DX2                          !
 !       rn2         1.333    estimate D2E/DX2                          !
 !       rn3         1.1146   estimate D2E/DX2                          !
 !       rn4         0.9264   estimate D2E/DX2                          !
 !       rch         1.0678   estimate D2E/DX2                          !
 !       rnh         0.9941   estimate D2E/DX2                          !
 !       an1        71.8427   estimate D2E/DX2                          !
 !       an2       133.7028   estimate D2E/DX2                          !
 !       an3       194.4597   estimate D2E/DX2                          !
 !       an4       276.0768   estimate D2E/DX2                          !
 !       ach       125.0248   estimate D2E/DX2                          !
 !       anh       120.7626   estimate D2E/DX2                          !
 ------------------------------------------------------------------------
 Trust Radius=3.00D-01 FncErr=1.00D-07 GrdErr=1.00D-07
 Number of steps in this run=     22 maximum allowed number of steps=    100.
 GradGradGradGradGradGradGradGradGradGradGradGradGradGradGradGradGradGrad

 ---------------------------------------------------------------------------------------------------
                            Z-MATRIX (ANGSTROMS AND DEGREES)
   CD    Cent   Atom    N1       Length/X        N2       Alpha/Y        N3        Beta/Z          J
 ---------------------------------------------------------------------------------------------------
      1         X 
      2         X        1   1.000000(     1)
      3      1  C        1   1.000000(     2)      2   90.000(     9)
      4      2  N        1   1.242600(     3)      2   90.000(    10)      3   71.843(    16)      0
      5      3  N        1   1.333000(     4)      2   90.000(    11)      3  133.703(    17)      0
      6      4  N        1   1.114600(     5)      2   90.000(    12)      3  194.460(    18)      0
      7      5  N        1   0.926400(     6)      2   90.000(    13)      3  276.077(    19)      0
      8      6  H        3   1.067800(     7)      4  125.025(    14)      5  180.000(    20)      0
      9      7  H        4   0.994100(     8)      5  120.763(    15)      6  180.000(    21)      0
 ---------------------------------------------------------------------------------------------------
                         Z-Matrix orientation:                         
 ---------------------------------------------------------------------
 Center     Atomic      Atomic             Coordinates (Angstroms)
 Number     Number       Type             X           Y           Z
 ---------------------------------------------------------------------
      1         -1           0        0.000000    0.000000    0.000000
      2         -1           0        0.000000    0.000000    1.000000
      3          6           0        1.000000    0.000000    0.000000
      4          7           0        0.387228   -1.180724    0.000000
      5          7           0       -0.920993   -0.963670    0.000000
      6          7           0       -1.079293    0.278314    0.000000
      7          7           0        0.098070    0.921194    0.000000
      8          1           0        2.058429    0.141157    0.000000
      9          1           0        0.749017   -2.106652    0.000000
 ---------------------------------------------------------------------
                    Distance matrix (angstroms):
                    1          2          3          4          5
     1  X    0.000000
     2  X    1.000000   0.000000
     3  C    1.000000   1.414214   0.000000
     4  N    1.242600   1.595009   1.330263   0.000000
     5  N    1.333000   1.666400   2.149157   1.326105   0.000000
     6  N    1.114600   1.497442   2.097837   2.068690   1.252032
     7  N    0.926400   1.363164   1.289216   2.121715   2.142710
     8  H    2.063263   2.292827   1.067800   2.130794   3.177672
     9  H    2.235847   2.449288   2.121551   0.994100   2.023695
                    6          7          8          9
     6  N    0.000000
     7  N    1.341447   0.000000
     8  H    3.140719   2.109850   0.000000
     9  H    3.005127   3.097029   2.601385   0.000000
 Stoichiometry    CH2N4
 Framework group  CS[SG(CH2N4)]
 Deg. of freedom    11
 Full point group                 CS      NOp   2
 Largest Abelian subgroup         CS      NOp   2
 Largest concise Abelian subgroup C1      NOp   1
                         Standard orientation:                         
 ---------------------------------------------------------------------
 Center     Atomic      Atomic             Coordinates (Angstroms)
 Number     Number       Type             X           Y           Z
 ---------------------------------------------------------------------
      1          6           0        1.052733    0.225621    0.000000
      2          7           0        0.000000    1.038857    0.000000
      3          7           0       -1.095416    0.291448    0.000000
      4          7           0       -0.716382   -0.901832    0.000000
      5          7           0        0.622191   -0.989579    0.000000
      6          1           0        2.072287    0.542964    0.000000
      7          1           0       -0.061439    2.031056    0.000000
 ---------------------------------------------------------------------
 Rotational constants (GHZ):     10.9201517     10.7345054      5.4132664
 Standard basis: 6-31+G(d,p) (6D, 7F)
 There are    78 symmetry adapted cartesian basis functions of A'  symmetry.
 There are    27 symmetry adapted cartesian basis functions of A"  symmetry.
 There are    78 symmetry adapted basis functions of A'  symmetry.
 There are    27 symmetry adapted basis functions of A"  symmetry.
   105 basis functions,   174 primitive gaussians,   105 cartesian basis functions
    18 alpha electrons       18 beta electrons
       nuclear repulsion energy       169.8308489506 Hartrees.
 NAtoms=    7 NActive=    7 NUniq=    7 SFac= 1.00D+00 NAtFMM=   60 NAOKFM=F Big=F
 Integral buffers will be    131072 words long.
 Raffenetti 1 integral format.
 Two-electron integral symmetry is turned on.
 One-electron integrals computed using PRISM.
 NBasis=   105 RedAO= T EigKep=  8.76D-05  NBF=    78    27
 NBsUse=   105 1.00D-06 EigRej= -1.00D+00 NBFU=    78    27
 ExpMin= 4.38D-02 ExpMax= 4.17D+03 ExpMxC= 6.27D+02 IAcc=2 IRadAn=         4 AccDes= 0.00D+00
 Harris functional with IExCor=  205 and IRadAn=       4 diagonalized for initial guess.
 HarFok:  IExCor=  205 AccDes= 0.00D+00 IRadAn=         4 IDoV= 1 UseB2=F ITyADJ=14
 ICtDFT=  3500011 ScaDFX=  1.000000  1.000000  1.000000  1.000000
 FoFCou: FMM=F IPFlag=           0 FMFlag=      100000 FMFlg1=           0
         NFxFlg=           0 DoJE=T BraDBF=F KetDBF=T FulRan=T
         wScrn=  0.000000 ICntrl=     500 IOpCl=  0 I1Cent=   200000004 NGrid=           0
         NMat0=    1 NMatS0=      1 NMatT0=    0 NMatD0=    1 NMtDS0=    0 NMtDT0=    0
 Petite list used in FoFCou.
 Initial guess orbital symmetries:
       Occupied  (A') (A') (A') (A') (A') (A') (A') (A') (A') (A')
                 (A') (A') (A") (A') (A") (A") (A') (A')
       Virtual   (A") (A") (A') (A') (A') (A") (A') (A') (A') (A')
                 (A") (A") (A') (A') (A') (A') (A') (A") (A') (A")
                 (A') (A') (A') (A') (A') (A') (A') (A') (A') (A")
                 (A') (A') (A') (A') (A') (A") (A') (A") (A') (A")
                 (A") (A') (A') (A') (A') (A') (A") (A') (A') (A')
                 (A") (A") (A') (A") (A") (A') (A') (A') (A') (A')
                 (A") (A') (A') (A") (A") (A') (A") (A') (A') (A")
                 (A') (A') (A") (A') (A") (A') (A') (A') (A') (A')
                 (A') (A') (A') (A') (A') (A') (A')
 The electronic state of the initial guess is 1-A'.
 Keep R1 ints in memory in symmetry-blocked form, NReq=23756016.
 Requested convergence on RMS density matrix=1.00D-08 within 128 cycles.
 Requested convergence on MAX density matrix=1.00D-06.
 Requested convergence on             energy=1.00D-06.
 No special actions if energy rises.
 SCF Done:  E(RHF) =  -256.767607422     A.U. after   15 cycles
            NFock= 15  Conv=0.75D-08     -V/T= 2.0018

 **********************************************************************

            Population analysis using the SCF density.

 **********************************************************************

 Orbital symmetries:
       Occupied  (A') (A') (A') (A') (A') (A') (A') (A') (A') (A')
                 (A') (A") (A') (A') (A') (A') (A") (A")
       Virtual   (A') (A') (A") (A') (A") (A') (A') (A") (A') (A")
                 (A") (A') (A') (A') (A") (A') (A") (A') (A') (A')
                 (A') (A') (A') (A') (A') (A') (A') (A') (A') (A")
                 (A') (A') (A') (A') (A') (A") (A') (A") (A') (A')
                 (A") (A') (A") (A') (A') (A') (A') (A") (A') (A')
                 (A") (A") (A') (A") (A') (A") (A') (A') (A') (A')
                 (A") (A') (A') (A") (A") (A') (A") (A') (A') (A")
                 (A') (A') (A') (A") (A") (A') (A') (A') (A') (A')
                 (A') (A') (A') (A') (A') (A') (A')
 The electronic state is 1-A'.
 Alpha  occ. eigenvalues --  -15.69153 -15.66999 -15.65055 -15.60922 -11.34029
 Alpha  occ. eigenvalues --   -1.52976  -1.27402  -1.21780  -0.92089  -0.90354
 Alpha  occ. eigenvalues --   -0.81587  -0.69535  -0.68992  -0.57838  -0.48129
 Alpha  occ. eigenvalues --   -0.46944  -0.46425  -0.43061
 Alpha virt. eigenvalues --    0.05156   0.08249   0.08842   0.10055   0.14046
 Alpha virt. eigenvalues --    0.14768   0.16339   0.18352   0.18970   0.20643
 Alpha virt. eigenvalues --    0.22251   0.23660   0.24718   0.27482   0.29058
 Alpha virt. eigenvalues --    0.30656   0.31143   0.31623   0.31973   0.33039
 Alpha virt. eigenvalues --    0.34793   0.35507   0.40302   0.42156   0.45332
 Alpha virt. eigenvalues --    0.48870   0.60610   0.67433   0.70982   0.86019
 Alpha virt. eigenvalues --    0.98644   1.00470   1.03359   1.06752   1.07571
 Alpha virt. eigenvalues --    1.10879   1.12994   1.13314   1.17040   1.18916
 Alpha virt. eigenvalues --    1.19643   1.22798   1.23072   1.27496   1.30247
 Alpha virt. eigenvalues --    1.32579   1.45471   1.48679   1.49467   1.55769
 Alpha virt. eigenvalues --    1.59434   1.61532   1.70462   1.80739   1.81405
 Alpha virt. eigenvalues --    1.81733   1.95111   2.19483   2.22762   2.27516
 Alpha virt. eigenvalues --    2.36996   2.41183   2.51590   2.54223   2.58150
 Alpha virt. eigenvalues --    2.65330   2.68444   2.72520   2.77842   2.85416
 Alpha virt. eigenvalues --    2.90313   2.95720   3.00008   3.00129   3.07199
 Alpha virt. eigenvalues --    3.16348   3.22194   3.31251   3.45545   3.53146
 Alpha virt. eigenvalues --    3.69716   4.08872   4.33166   4.40333   4.64625
 Alpha virt. eigenvalues --    4.69954   4.93932
          Condensed to atoms (all electrons):
               1          2          3          4          5          6
     1  C    4.865423   0.271992  -0.116636   0.002238   0.416225   0.430248
     2  N    0.271992   6.875857   0.145915  -0.011674  -0.133409  -0.054310
     3  N   -0.116636   0.145915   6.463055   0.409573   0.072999   0.001304
     4  N    0.002238  -0.011674   0.409573   6.386803   0.192856   0.002904
     5  N    0.416225  -0.133409   0.072999   0.192856   6.817918  -0.027537
     6  H    0.430248  -0.054310   0.001304   0.002904  -0.027537   0.437368
     7  H   -0.003304   0.314189   0.007366  -0.002400   0.003050   0.002152
               7
     1  C   -0.003304
     2  N    0.314189
     3  N    0.007366
     4  N   -0.002400
     5  N    0.003050
     6  H    0.002152
     7  H    0.306092
 Mulliken charges:
               1
     1  C    0.133814
     2  N   -0.408560
     3  N    0.016424
     4  N    0.019700
     5  N   -0.342104
     6  H    0.207870
     7  H    0.372855
 Sum of Mulliken charges =   0.00000
 Mulliken charges with hydrogens summed into heavy atoms:
               1
     1  C    0.341684
     2  N   -0.035705
     3  N    0.016424
     4  N    0.019700
     5  N   -0.342104
 Electronic spatial extent (au):  <R**2>=            245.7803
 Charge=              0.0000 electrons
 Dipole moment (field-independent basis, Debye):
    X=              2.7418    Y=              5.0657    Z=              0.0000  Tot=              5.7601
 Quadrupole moment (field-independent basis, Debye-Ang):
   XX=            -29.2254   YY=            -27.0537   ZZ=            -28.9944
   XY=              2.0988   XZ=              0.0000   YZ=              0.0000
 Traceless Quadrupole moment (field-independent basis, Debye-Ang):
   XX=             -0.8009   YY=              1.3708   ZZ=             -0.5699
   XY=              2.0988   XZ=              0.0000   YZ=              0.0000
 Octapole moment (field-independent basis, Debye-Ang**2):
  XXX=             13.3038  YYY=             23.8791  ZZZ=              0.0000  XYY=             -0.6576
  XXY=              5.3257  XXZ=              0.0000  XZZ=             -0.5118  YZZ=              0.7879
  YYZ=              0.0000  XYZ=              0.0000
 Hexadecapole moment (field-independent basis, Debye-Ang**3):
 XXXX=           -142.1357 YYYY=           -120.1985 ZZZZ=            -27.6843 XXXY=              7.4862
 XXXZ=              0.0000 YYYX=              0.2509 YYYZ=              0.0000 ZZZX=              0.0000
 ZZZY=              0.0000 XXYY=            -54.1361 XXZZ=            -31.0764 YYZZ=            -29.6569
 XXYZ=              0.0000 YYXZ=              0.0000 ZZXY=              0.1953
 N-N= 1.698308489506D+02 E-N=-9.406373628070D+02  KE= 2.563058210609D+02
 Symmetry A'   KE= 2.473022739178D+02
 Symmetry A"   KE= 9.003547143167D+00
 Calling FoFJK, ICntrl=      2127 FMM=F ISym2X=1 I1Cent= 0 IOpClX= 0 NMat=1 NMatS=1 NMatT=0.
 ***** Axes restored to original set *****
 -------------------------------------------------------------------
 Center     Atomic                   Forces (Hartrees/Bohr)
 Number     Number              X              Y              Z
 -------------------------------------------------------------------
      1        6           0.001292248   -0.000694706    0.000000000
      2        7          -0.000167401   -0.002107251    0.000000000
      3        7           0.000525444    0.000983812    0.000000000
      4        7          -0.000608650    0.000514783    0.000000000
      5        7          -0.001401976    0.000225443    0.000000000
      6        1           0.000299702    0.000219851    0.000000000
      7        1           0.000060633    0.000858068    0.000000000
 -------------------------------------------------------------------
 Cartesian Forces:  Max     0.002107251 RMS     0.000736626
 -----------------------------------------------------------------------------------------------
                       Internal Coordinate Forces (Hartree/Bohr or radian)
  Cent   Atom   N1       Length/X         N2         Alpha/Y        N3         Beta/Z          J
 -----------------------------------------------------------------------------------------------
         X 
         X        1   0.000000(     1)
      1  C        1   0.001465(     2)      2   0.000000(     9)
      2  N        1   0.001011(     3)      2   0.000000(    10)      3   0.000617(    16)     0
      3  N        1  -0.000846(     4)      2   0.000000(    11)      3   0.000363(    17)     0
      4  N        1   0.000718(     5)      2   0.000000(    12)      3   0.000730(    18)     0
      5  N        1   0.000076(     6)      2   0.000000(    13)      3  -0.002482(    19)     0
      6  H        3   0.000326(     7)      4   0.000360(    14)      5   0.000000(    20)     0
      7  H        4  -0.000777(     8)      5   0.000693(    15)      6   0.000000(    21)     0
 -----------------------------------------------------------------------------------------------
 Internal  Forces:  Max     0.002482347 RMS     0.000784705

 GradGradGradGradGradGradGradGradGradGradGradGradGradGradGradGradGradGrad
 Berny optimization.
 Search for a local minimum.
 Step number   1 out of a maximum of   22
 All quantities printed in internal units (Hartrees-Bohrs-Radians)
 Second derivative matrix not updated -- first step.
 The second derivative matrix:
                          rn1       rn2       rn3       rn4       rch
           rn1          0.65186
           rn2          0.01318   0.69869
           rn3          0.03472   0.07334   0.58262
           rn4          0.03688   0.02662   0.13967   0.63921
           rch          0.00000   0.00000   0.00000   0.00000   0.37510
           rnh          0.00000   0.00000   0.00000   0.00000   0.00000
           an1          0.02012  -0.75016   0.04258  -0.08486   0.00000
           an2          0.72119  -0.31234  -0.71865   0.05436   0.00000
           an3         -0.02914   1.04797   0.05412  -0.58583   0.00000
           an4          0.05328  -0.03228   0.65851  -0.10009   0.00000
           ach          0.04546   0.00000   0.00000   0.05066   0.00000
           anh         -0.10206   0.05276   0.00000   0.00000   0.00000
                          rnh       an1       an2       an3       an4
           rnh          0.48741
           an1          0.00000   4.53257
           an2          0.00000  -2.68051   6.02300
           an3          0.00000  -0.03573  -3.19618   4.47465
           an4          0.00000  -0.12258  -0.06592  -1.16042   2.58479
           ach          0.00000  -0.10460   0.00000   0.00000   0.07318
           anh          0.00000   0.03519  -0.09059   0.00000   0.00000
                          ach       anh
           ach          0.32000
           anh          0.00000   0.32000
 ITU=  0
     Eigenvalues ---    0.00000   0.13346   0.26445   0.33044   0.37510
     Eigenvalues ---    0.40158   0.48741   0.75609   1.20990   2.99509
     Eigenvalues ---    5.09563   9.64077
 RFO step:  Lambda=-1.68085098D-05 EMin=-6.95624114D-16
 Linear search not attempted -- first point.
 Variable       Old X    -DE/DX   Delta X   Delta X   Delta X     New X
                                 (Linear)    (Quad)   (Total)
   rn1        2.34817   0.00101   0.00000   0.00146   0.00146   2.34964
   rn2        2.51900  -0.00085   0.00000  -0.00233  -0.00233   2.51667
   rn3        2.10629   0.00072   0.00000   0.00476   0.00476   2.11105
   rn4        1.75064   0.00008   0.00000  -0.00117  -0.00117   1.74947
   rch        2.01785   0.00033   0.00000   0.00087   0.00087   2.01872
   rnh        1.87858  -0.00078   0.00000  -0.00159  -0.00159   1.87698
   an1        1.25389   0.00062   0.00000  -0.00009  -0.00009   1.25380
   an2        2.33355   0.00036   0.00000   0.00048   0.00048   2.33403
   an3        3.39396   0.00073   0.00000   0.00028   0.00028   3.39424
   an4        4.81845  -0.00248   0.00000  -0.00219  -0.00219   4.81626
   ach        2.18209   0.00036   0.00000   0.00157   0.00157   2.18367
   anh        2.10770   0.00069   0.00000   0.00316   0.00316   2.11087
         Item               Value     Threshold  Converged?
 Maximum Force            0.002482     0.000450     NO 
 RMS     Force            0.000948     0.000300     NO 
 Maximum Displacement     0.004762     0.001800     NO 
 RMS     Displacement     0.002092     0.001200     NO 
 Predicted change in Energy=-8.409290D-06
 GradGradGradGradGradGradGradGradGradGradGradGradGradGradGradGradGradGrad

 ---------------------------------------------------------------------------------------------------
                            Z-MATRIX (ANGSTROMS AND DEGREES)
   CD    Cent   Atom    N1       Length/X        N2       Alpha/Y        N3        Beta/Z          J
 ---------------------------------------------------------------------------------------------------
      1         X 
      2         X        1   1.000000(     1)
      3      1  C        1   1.000000(     2)      2   90.000(     9)
      4      2  N        1   1.243374(     3)      2   90.000(    10)      3   71.838(    16)      0
      5      3  N        1   1.331766(     4)      2   90.000(    11)      3  133.730(    17)      0
      6      4  N        1   1.117120(     5)      2   90.000(    12)      3  194.476(    18)      0
      7      5  N        1   0.925779(     6)      2   90.000(    13)      3  275.951(    19)      0
      8      6  H        3   1.068260(     7)      4  125.115(    14)      5  180.000(    20)      0
      9      7  H        4   0.993256(     8)      5  120.944(    15)      6  180.000(    21)      0
 ---------------------------------------------------------------------------------------------------
                         Z-Matrix orientation:                         
 ---------------------------------------------------------------------
 Center     Atomic      Atomic             Coordinates (Angstroms)
 Number     Number       Type             X           Y           Z
 ---------------------------------------------------------------------
      1         -1           0        0.000000    0.000000    0.000000
      2         -1           0        0.000000    0.000000    1.000000
      3          6           0        1.000000    0.000000    0.000000
      4          7           0        0.387571   -1.181426    0.000000
      5          7           0       -0.920599   -0.962340    0.000000
      6          7           0       -1.081655    0.279246    0.000000
      7          7           0        0.095989    0.920790    0.000000
      8          1           0        2.058594    0.143384    0.000000
      9          1           0        0.750573   -2.105974    0.000000
 ---------------------------------------------------------------------
                    Distance matrix (angstroms):
                    1          2          3          4          5
     1  X    0.000000
     2  X    1.000000   0.000000
     3  C    1.000000   1.414214   0.000000
     4  N    1.243374   1.595613   1.330728   0.000000
     5  N    1.331766   1.665413   2.148208   1.326389   0.000000
     6  N    1.117120   1.499319   2.100302   2.071760   1.251988
     7  N    0.925779   1.362743   1.290384   2.122341   2.140006
     8  H    2.063581   2.293113   1.068260   2.132472   3.177768
     9  H    2.235729   2.449180   2.120693   0.993256   2.025022
                    6          7          8          9
     6  N    0.000000
     7  N    1.341053   0.000000
     8  H    3.143187   2.110966   0.000000
     9  H    3.007712   3.096737   2.602024   0.000000
 Stoichiometry    CH2N4
 Framework group  CS[SG(CH2N4)]
 Deg. of freedom    11
 Full point group                 CS      NOp   2
 Largest Abelian subgroup         CS      NOp   2
 Largest concise Abelian subgroup C1      NOp   1
                         Standard orientation:                         
 ---------------------------------------------------------------------
 Center     Atomic      Atomic             Coordinates (Angstroms)
 Number     Number       Type             X           Y           Z
 ---------------------------------------------------------------------
      1          6           0        1.053106    0.226685    0.000000
      2          7           0        0.000000    1.040198    0.000000
      3          7           0       -1.094155    0.290443    0.000000
      4          7           0       -0.717219   -0.903455    0.000000
      5          7           0        0.621088   -0.989230    0.000000
      6          1           0        2.073596    0.542566    0.000000
      7          1           0       -0.060234    2.031627    0.000000
 ---------------------------------------------------------------------
 Rotational constants (GHZ):     10.8941860     10.7497710      5.4107483
 Standard basis: 6-31+G(d,p) (6D, 7F)
 There are    78 symmetry adapted cartesian basis functions of A'  symmetry.
 There are    27 symmetry adapted cartesian basis functions of A"  symmetry.
 There are    78 symmetry adapted basis functions of A'  symmetry.
 There are    27 symmetry adapted basis functions of A"  symmetry.
   105 basis functions,   174 primitive gaussians,   105 cartesian basis functions
    18 alpha electrons       18 beta electrons
       nuclear repulsion energy       169.7938983846 Hartrees.
 NAtoms=    7 NActive=    7 NUniq=    7 SFac= 1.00D+00 NAtFMM=   60 NAOKFM=F Big=F
 Integral buffers will be    131072 words long.
 Raffenetti 1 integral format.
 Two-electron integral symmetry is turned on.
 One-electron integrals computed using PRISM.
 NBasis=   105 RedAO= T EigKep=  8.75D-05  NBF=    78    27
 NBsUse=   105 1.00D-06 EigRej= -1.00D+00 NBFU=    78    27
 Initial guess from the checkpoint file:  "/tmp/rdj3/g09-32362/Gau-19515.chk"
 B after Tr=     0.000000    0.000000    0.000000
         Rot=    1.000000    0.000000    0.000000   -0.000040 Ang=   0.00 deg.
 Initial guess orbital symmetries:
       Occupied  (A') (A') (A') (A') (A') (A') (A') (A') (A') (A')
                 (A') (A") (A') (A') (A') (A') (A") (A")
       Virtual   (A') (A') (A') (A') (A') (A') (A') (A') (A') (A')
                 (A') (A') (A') (A') (A') (A') (A') (A') (A') (A')
                 (A') (A') (A') (A') (A') (A') (A') (A') (A') (A')
                 (A') (A') (A') (A') (A') (A') (A') (A') (A') (A')
                 (A') (A') (A') (A') (A') (A') (A') (A') (A') (A')
                 (A') (A') (A') (A') (A') (A') (A') (A') (A') (A')
                 (A') (A') (A') (A") (A") (A") (A") (A") (A") (A")
                 (A") (A") (A") (A") (A") (A") (A") (A") (A") (A")
                 (A") (A") (A") (A") (A") (A") (A")
 Keep R1 ints in memory in symmetry-blocked form, NReq=23756016.
 Requested convergence on RMS density matrix=1.00D-08 within 128 cycles.
 Requested convergence on MAX density matrix=1.00D-06.
 Requested convergence on             energy=1.00D-06.
 No special actions if energy rises.
 SCF Done:  E(RHF) =  -256.767608711     A.U. after   10 cycles
            NFock= 10  Conv=0.87D-08     -V/T= 2.0018
 Calling FoFJK, ICntrl=      2127 FMM=F ISym2X=1 I1Cent= 0 IOpClX= 0 NMat=1 NMatS=1 NMatT=0.
 ***** Axes restored to original set *****
 -------------------------------------------------------------------
 Center     Atomic                   Forces (Hartrees/Bohr)
 Number     Number              X              Y              Z
 -------------------------------------------------------------------
      1        6          -0.000050884    0.000162696    0.000000000
      2        7          -0.000821030    0.000833386    0.000000000
      3        7          -0.000790694   -0.001040536    0.000000000
      4        7           0.001618056   -0.000672767    0.000000000
      5        7           0.000183303    0.000672100    0.000000000
      6        1          -0.000095891    0.000121056    0.000000000
      7        1          -0.000042860   -0.000075935    0.000000000
 -------------------------------------------------------------------
 Cartesian Forces:  Max     0.001618056 RMS     0.000564551
 -----------------------------------------------------------------------------------------------
                       Internal Coordinate Forces (Hartree/Bohr or radian)
  Cent   Atom   N1       Length/X         N2         Alpha/Y        N3         Beta/Z          J
 -----------------------------------------------------------------------------------------------
         X 
         X        1   0.000000(     1)
      1  C        1  -0.000241(     2)      2   0.000000(     9)
      2  N        1  -0.000868(     3)      2   0.000000(    10)      3   0.001254(    16)     0
      3  N        1   0.001257(     4)      2   0.000000(    11)      3  -0.000301(    17)     0
      4  N        1  -0.001735(     5)      2   0.000000(    12)      3  -0.000521(    18)     0
      5  N        1   0.000687(     6)      2   0.000000(    13)      3   0.000197(    19)     0
      6  H        3  -0.000079(     7)      4   0.000268(    14)      5   0.000000(    20)     0
      7  H        4   0.000055(     8)      5  -0.000127(    15)      6   0.000000(    21)     0
 -----------------------------------------------------------------------------------------------
 Internal  Forces:  Max     0.001734860 RMS     0.000615022

 GradGradGradGradGradGradGradGradGradGradGradGradGradGradGradGradGradGrad
 Berny optimization.
 Search for a local minimum.
 Step number   2 out of a maximum of   22
 All quantities printed in internal units (Hartrees-Bohrs-Radians)
 Update second derivatives using D2CorN and points    1    2
 DE= -1.29D-06 DEPred=-8.41D-06 R= 1.53D-01
 Trust test= 1.53D-01 RLast= 7.25D-03 DXMaxT set to 3.00D-01
 The second derivative matrix:
                          rn1       rn2       rn3       rn4       rch
           rn1          0.67605
           rn2         -0.02362   0.75453
           rn3          0.09826  -0.02219   0.73998
           rn4          0.01761   0.05592   0.08912   0.65457
           rch          0.00829  -0.01216   0.01794  -0.00657   0.37640
           rnh         -0.01395   0.02031  -0.02884   0.01105  -0.00165
           an1          0.00193  -0.72127  -0.01571  -0.07028  -0.01045
           an2          0.72932  -0.32471  -0.69715   0.04788   0.00285
           an3         -0.01956   1.03304   0.08238  -0.59348   0.00453
           an4          0.03244  -0.00170   0.61340  -0.08356  -0.00327
           ach          0.05474  -0.01288   0.01385   0.04334  -0.00104
           anh         -0.07416   0.01211   0.05798  -0.02211   0.00342
                          rnh       an1       an2       an3       an4
           rnh          0.48908
           an1          0.01908   4.53465
           an2         -0.00481  -2.68644   6.02573
           an3         -0.00806  -0.03950  -3.19302   4.47743
           an4          0.00414  -0.09628  -0.07308  -1.17182   2.59301
           ach          0.00325  -0.12317   0.00329   0.00710   0.07581
           anh         -0.00359  -0.00265  -0.08097   0.01603  -0.00858
                          ach       anh
           ach          0.31196
           anh         -0.00617   0.32765
 ITU=  0  0
     Eigenvalues ---    0.00000   0.13289   0.30346   0.35908   0.37419
     Eigenvalues ---    0.47586   0.60102   0.77665   1.21130   2.98814
     Eigenvalues ---    5.09797   9.64047
 RFO step:  Lambda=-3.78590181D-06 EMin=-1.79510668D-06
 Quartic linear search produced a step of -0.45855.
 Maximum step size (   0.300) exceeded in Quadratic search.
    -- Step size scaled by   0.393
 Variable       Old X    -DE/DX   Delta X   Delta X   Delta X     New X
                                 (Linear)    (Quad)   (Total)
   rn1        2.34964  -0.00087  -0.00067   0.13447   0.13380   2.48344
   rn2        2.51667   0.00126   0.00107   0.10329   0.10436   2.62103
   rn3        2.11105  -0.00173  -0.00218  -0.03580  -0.03799   2.07306
   rn4        1.74947   0.00069   0.00054  -0.14070  -0.14016   1.60930
   rch        2.01872  -0.00008  -0.00040   0.00015  -0.00025   2.01847
   rnh        1.87698   0.00006   0.00073  -0.00034   0.00039   1.87738
   an1        1.25380   0.00125   0.00004  -0.05587  -0.05583   1.19798
   an2        2.33403  -0.00030  -0.00022  -0.11377  -0.11399   2.22004
   an3        3.39424  -0.00052  -0.00013  -0.14027  -0.14040   3.25384
   an4        4.81626   0.00020   0.00100  -0.06653  -0.06552   4.75074
   ach        2.18367   0.00027  -0.00072   0.00071  -0.00001   2.18366
   anh        2.11087  -0.00013  -0.00145   0.00032  -0.00113   2.10973
         Item               Value     Threshold  Converged?
 Maximum Force            0.001735     0.000450     NO 
 RMS     Force            0.000811     0.000300     NO 
 Maximum Displacement     0.140403     0.001800     NO 
 RMS     Displacement     0.086603     0.001200     NO 
 Predicted change in Energy=-5.890197D-06
 GradGradGradGradGradGradGradGradGradGradGradGradGradGradGradGradGradGrad

 ---------------------------------------------------------------------------------------------------
                            Z-MATRIX (ANGSTROMS AND DEGREES)
   CD    Cent   Atom    N1       Length/X        N2       Alpha/Y        N3        Beta/Z          J
 ---------------------------------------------------------------------------------------------------
      1         X 
      2         X        1   1.000000(     1)
      3      1  C        1   1.000000(     2)      2   90.000(     9)
      4      2  N        1   1.314179(     3)      2   90.000(    10)      3   68.639(    16)      0
      5      3  N        1   1.386991(     4)      2   90.000(    11)      3  127.199(    17)      0
      6      4  N        1   1.097018(     5)      2   90.000(    12)      3  186.431(    18)      0
      7      5  N        1   0.851607(     6)      2   90.000(    13)      3  272.197(    19)      0
      8      6  H        3   1.068130(     7)      4  125.114(    14)      5  180.000(    20)      0
      9      7  H        4   0.993464(     8)      5  120.879(    15)      6  180.000(    21)      0
 ---------------------------------------------------------------------------------------------------
                         Z-Matrix orientation:                         
 ---------------------------------------------------------------------
 Center     Atomic      Atomic             Coordinates (Angstroms)
 Number     Number       Type             X           Y           Z
 ---------------------------------------------------------------------
      1         -1           0        0.000000    0.000000    0.000000
      2         -1           0        0.000000    0.000000    1.000000
      3          6           0        1.000000    0.000000    0.000000
      4          7           0        0.478677   -1.223901    0.000000
      5          7           0       -0.838550   -1.104798    0.000000
      6          7           0       -1.090114    0.122878    0.000000
      7          7           0        0.032649    0.850981    0.000000
      8          1           0        2.044623    0.222855    0.000000
      9          1           0        0.909692   -2.118997    0.000000
 ---------------------------------------------------------------------
                    Distance matrix (angstroms):
                    1          2          3          4          5
     1  X    0.000000
     2  X    1.000000   0.000000
     3  C    1.000000   1.414214   0.000000
     4  N    1.314179   1.651383   1.330305   0.000000
     5  N    1.386991   1.709896   2.144958   1.322601   0.000000
     6  N    1.097018   1.484402   2.093723   2.067588   1.253185
     7  N    0.851607   1.313482   1.288385   2.122281   2.141042
     8  H    2.056732   2.286951   1.068130   2.131968   3.174169
     9  H    2.306012   2.513502   2.120921   0.993464   2.021127
                    6          7          8          9
     6  N    0.000000
     7  N    1.338183   0.000000
     8  H    3.136331   2.107742   0.000000
     9  H    3.004202   3.096769   2.602372   0.000000
 Stoichiometry    CH2N4
 Framework group  CS[SG(CH2N4)]
 Deg. of freedom    11
 Full point group                 CS      NOp   2
 Largest Abelian subgroup         CS      NOp   2
 Largest concise Abelian subgroup C1      NOp   1
                         Standard orientation:                         
 ---------------------------------------------------------------------
 Center     Atomic      Atomic             Coordinates (Angstroms)
 Number     Number       Type             X           Y           Z
 ---------------------------------------------------------------------
      1          6           0        1.050929    0.223429    0.000000
      2          7           0        0.000000    1.039063    0.000000
      3          7           0       -1.092863    0.294131    0.000000
      4          7           0       -0.715339   -0.900837    0.000000
      5          7           0        0.619824   -0.990690    0.000000
      6          1           0        2.072003    0.536974    0.000000
      7          1           0       -0.058934    2.030778    0.000000
 ---------------------------------------------------------------------
 Rotational constants (GHZ):     10.9377052     10.7570229      5.4233058
 Standard basis: 6-31+G(d,p) (6D, 7F)
 There are    78 symmetry adapted cartesian basis functions of A'  symmetry.
 There are    27 symmetry adapted cartesian basis functions of A"  symmetry.
 There are    78 symmetry adapted basis functions of A'  symmetry.
 There are    27 symmetry adapted basis functions of A"  symmetry.
   105 basis functions,   174 primitive gaussians,   105 cartesian basis functions
    18 alpha electrons       18 beta electrons
       nuclear repulsion energy       169.9836239321 Hartrees.
 NAtoms=    7 NActive=    7 NUniq=    7 SFac= 1.00D+00 NAtFMM=   60 NAOKFM=F Big=F
 Integral buffers will be    131072 words long.
 Raffenetti 1 integral format.
 Two-electron integral symmetry is turned on.
 One-electron integrals computed using PRISM.
 NBasis=   105 RedAO= T EigKep=  8.69D-05  NBF=    78    27
 NBsUse=   105 1.00D-06 EigRej= -1.00D+00 NBFU=    78    27
 Initial guess from the checkpoint file:  "/tmp/rdj3/g09-32362/Gau-19515.chk"
 B after Tr=     0.000000    0.000000    0.000000
         Rot=    1.000000    0.000000    0.000000    0.000766 Ang=   0.09 deg.
 Initial guess orbital symmetries:
       Occupied  (A') (A') (A') (A') (A') (A') (A') (A') (A') (A')
                 (A') (A") (A') (A') (A') (A') (A") (A")
       Virtual   (A') (A') (A') (A') (A') (A') (A') (A') (A') (A')
                 (A') (A') (A') (A') (A') (A') (A') (A') (A') (A')
                 (A') (A') (A') (A') (A') (A') (A') (A') (A') (A')
                 (A') (A') (A') (A') (A') (A') (A') (A') (A') (A')
                 (A') (A') (A') (A') (A') (A') (A') (A') (A') (A')
                 (A') (A') (A') (A') (A') (A') (A') (A') (A') (A')
                 (A') (A') (A') (A") (A") (A") (A") (A") (A") (A")
                 (A") (A") (A") (A") (A") (A") (A") (A") (A") (A")
                 (A") (A") (A") (A") (A") (A") (A")
 ExpMin= 4.38D-02 ExpMax= 4.17D+03 ExpMxC= 6.27D+02 IAcc=2 IRadAn=         4 AccDes= 0.00D+00
 Harris functional with IExCor=  205 and IRadAn=       4 diagonalized for initial guess.
 HarFok:  IExCor=  205 AccDes= 0.00D+00 IRadAn=         4 IDoV= 1 UseB2=F ITyADJ=14
 ICtDFT=  3500011 ScaDFX=  1.000000  1.000000  1.000000  1.000000
 FoFCou: FMM=F IPFlag=           0 FMFlag=      100000 FMFlg1=           0
         NFxFlg=           0 DoJE=T BraDBF=F KetDBF=T FulRan=T
         wScrn=  0.000000 ICntrl=     500 IOpCl=  0 I1Cent=   200000004 NGrid=           0
         NMat0=    1 NMatS0=      1 NMatT0=    0 NMatD0=    1 NMtDS0=    0 NMtDT0=    0
 Petite list used in FoFCou.
 Keep R1 ints in memory in symmetry-blocked form, NReq=23756016.
 Requested convergence on RMS density matrix=1.00D-08 within 128 cycles.
 Requested convergence on MAX density matrix=1.00D-06.
 Requested convergence on             energy=1.00D-06.
 No special actions if energy rises.
 SCF Done:  E(RHF) =  -256.767582417     A.U. after   12 cycles
            NFock= 12  Conv=0.31D-08     -V/T= 2.0017
 Calling FoFJK, ICntrl=      2127 FMM=F ISym2X=1 I1Cent= 0 IOpClX= 0 NMat=1 NMatS=1 NMatT=0.
 ***** Axes restored to original set *****
 -------------------------------------------------------------------
 Center     Atomic                   Forces (Hartrees/Bohr)
 Number     Number              X              Y              Z
 -------------------------------------------------------------------
      1        6           0.004552182   -0.000459069    0.000000000
      2        7           0.001984939   -0.000479066    0.000000000
      3        7          -0.003029219    0.001167555    0.000000000
      4        7          -0.003284635   -0.001238189    0.000000000
      5        7          -0.000549245    0.000907095    0.000000000
      6        1           0.000122339   -0.000143073    0.000000000
      7        1           0.000203639    0.000244747    0.000000000
 -------------------------------------------------------------------
 Cartesian Forces:  Max     0.004552182 RMS     0.001531031
 -----------------------------------------------------------------------------------------------
                       Internal Coordinate Forces (Hartree/Bohr or radian)
  Cent   Atom   N1       Length/X         N2         Alpha/Y        N3         Beta/Z          J
 -----------------------------------------------------------------------------------------------
         X 
         X        1   0.000000(     1)
      1  C        1   0.004797(     2)      2   0.000000(     9)
      2  N        1   0.000728(     3)      2   0.000000(    10)      3  -0.004856(    16)     0
      3  N        1   0.001086(     4)      2   0.000000(    11)      3   0.007872(    17)     0
      4  N        1   0.003125(     5)      2   0.000000(    12)      3  -0.003313(    18)     0
      5  N        1   0.000885(     6)      2   0.000000(    13)      3  -0.000939(    19)     0
      6  H        3   0.000090(     7)      4  -0.000334(    14)      5   0.000000(    20)     0
      7  H        4  -0.000132(     8)      5   0.000544(    15)      6   0.000000(    21)     0
 -----------------------------------------------------------------------------------------------
 Internal  Forces:  Max     0.007871969 RMS     0.002517624

 GradGradGradGradGradGradGradGradGradGradGradGradGradGradGradGradGradGrad
 Berny optimization.
 Search for a local minimum.
 Step number   3 out of a maximum of   22
 All quantities printed in internal units (Hartrees-Bohrs-Radians)
 Update second derivatives using D2CorN and points    1    3    2
 DE=  2.63D-05 DEPred=-5.89D-06 R=-4.46D+00
 Trust test=-4.46D+00 RLast= 3.00D-01 DXMaxT set to 1.50D-01
 The second derivative matrix:
                          rn1       rn2       rn3       rn4       rch
           rn1          0.68147
           rn2         -0.03429   0.76739
           rn3          0.10964  -0.04309   0.76157
           rn4          0.01255   0.06384   0.08107   0.65965
           rch          0.00916  -0.01298   0.01622  -0.00724   0.37510
           rnh         -0.01503   0.02075  -0.02363   0.01189   0.00110
           an1         -0.00241  -0.70381  -0.04392  -0.06746  -0.01549
           an2          0.72620  -0.33206  -0.68841   0.05261   0.00320
           an3         -0.01279   1.02984   0.09507  -0.59854   0.00614
           an4          0.03071   0.00083   0.61897  -0.08184  -0.00001
           ach          0.05394  -0.00945   0.00128   0.04392  -0.00509
           anh         -0.07229   0.01072   0.04817  -0.02345  -0.00196
                          rnh       an1       an2       an3       an4
           rnh          0.48335
           an1          0.02833   4.53217
           an2         -0.00517  -2.69043   6.03649
           an3         -0.01080  -0.04674  -3.18771   4.47350
           an4         -0.00274  -0.08573  -0.07122  -1.17728   2.58460
           ach          0.01135  -0.13232   0.00257   0.00899   0.08578
           anh          0.00763  -0.02084  -0.07987   0.02189   0.00506
                          ach       anh
           ach          0.30154
           anh         -0.02210   0.30568
 ITU= -1  0  0
     Eigenvalues ---    0.00118   0.12521   0.27347   0.35650   0.37331
     Eigenvalues ---    0.47651   0.63723   0.78239   1.21296   2.98360
     Eigenvalues ---    5.09974   9.64042
 RFO step:  Lambda=-1.39025851D-05 EMin= 1.17516812D-03
 Quartic linear search produced a step of -0.59968.
 Variable       Old X    -DE/DX   Delta X   Delta X   Delta X     New X
                                 (Linear)    (Quad)   (Total)
   rn1        2.48344   0.00073  -0.08024   0.01056  -0.06968   2.41376
   rn2        2.62103   0.00109  -0.06258   0.01637  -0.04621   2.57482
   rn3        2.07306   0.00313   0.02278   0.00134   0.02412   2.09719
   rn4        1.60930   0.00089   0.08405  -0.01553   0.06852   1.67783
   rch        2.01847   0.00009   0.00015   0.00012   0.00027   2.01874
   rnh        1.87738  -0.00013  -0.00024  -0.00028  -0.00052   1.87686
   an1        1.19798  -0.00486   0.03348  -0.00378   0.02970   1.22768
   an2        2.22004   0.00787   0.06836  -0.00942   0.05894   2.27898
   an3        3.25384  -0.00331   0.08420  -0.01520   0.06899   3.32283
   an4        4.75074  -0.00094   0.03929  -0.00844   0.03085   4.78159
   ach        2.18366  -0.00033   0.00001   0.00223   0.00224   2.18590
   anh        2.10973   0.00054   0.00068  -0.00034   0.00034   2.11007
         Item               Value     Threshold  Converged?
 Maximum Force            0.007872     0.000450     NO 
 RMS     Force            0.003029     0.000300     NO 
 Maximum Displacement     0.069681     0.001800     NO 
 RMS     Displacement     0.043149     0.001200     NO 
 Predicted change in Energy=-3.813675D-05
 GradGradGradGradGradGradGradGradGradGradGradGradGradGradGradGradGradGrad

 ---------------------------------------------------------------------------------------------------
                            Z-MATRIX (ANGSTROMS AND DEGREES)
   CD    Cent   Atom    N1       Length/X        N2       Alpha/Y        N3        Beta/Z          J
 ---------------------------------------------------------------------------------------------------
      1         X 
      2         X        1   1.000000(     1)
      3      1  C        1   1.000000(     2)      2   90.000(     9)
      4      2  N        1   1.277305(     3)      2   90.000(    10)      3   70.341(    16)      0
      5      3  N        1   1.362536(     4)      2   90.000(    11)      3  130.576(    17)      0
      6      4  N        1   1.109784(     5)      2   90.000(    12)      3  190.384(    18)      0
      7      5  N        1   0.887868(     6)      2   90.000(    13)      3  273.965(    19)      0
      8      6  H        3   1.068273(     7)      4  125.243(    14)      5  180.000(    20)      0
      9      7  H        4   0.993190(     8)      5  120.898(    15)      6  180.000(    21)      0
 ---------------------------------------------------------------------------------------------------
                         Z-Matrix orientation:                         
 ---------------------------------------------------------------------
 Center     Atomic      Atomic             Coordinates (Angstroms)
 Number     Number       Type             X           Y           Z
 ---------------------------------------------------------------------
      1         -1           0        0.000000    0.000000    0.000000
      2         -1           0        0.000000    0.000000    1.000000
      3          6           0        1.000000    0.000000    0.000000
      4          7           0        0.429720   -1.202850    0.000000
      5          7           0       -0.886268   -1.034907    0.000000
      6          7           0       -1.091607    0.200038    0.000000
      7          7           0        0.061391    0.885743    0.000000
      8          1           0        2.052440    0.183242    0.000000
      9          1           0        0.827749   -2.112795    0.000000
 ---------------------------------------------------------------------
                    Distance matrix (angstroms):
                    1          2          3          4          5
     1  X    0.000000
     2  X    1.000000   0.000000
     3  C    1.000000   1.414214   0.000000
     4  N    1.277305   1.622192   1.331190   0.000000
     5  N    1.362536   1.690120   2.151520   1.326661   0.000000
     6  N    1.109784   1.493861   2.101151   2.069428   1.251900
     7  N    0.887868   1.337277   1.290553   2.120822   2.141718
     8  H    2.060603   2.290433   1.068273   2.134120   3.181177
     9  H    2.269157   2.479732   2.119805   0.993190   2.024771
                    6          7          8          9
     6  N    0.000000
     7  N    1.341490   0.000000
     8  H    3.144091   2.111346   0.000000
     9  H    3.005516   3.094921   2.602239   0.000000
 Stoichiometry    CH2N4
 Framework group  CS[SG(CH2N4)]
 Deg. of freedom    11
 Full point group                 CS      NOp   2
 Largest Abelian subgroup         CS      NOp   2
 Largest concise Abelian subgroup C1      NOp   1
                         Standard orientation:                         
 ---------------------------------------------------------------------
 Center     Atomic      Atomic             Coordinates (Angstroms)
 Number     Number       Type             X           Y           Z
 ---------------------------------------------------------------------
      1          6           0        1.054693    0.226544    0.000000
      2          7           0        0.000000    1.038757    0.000000
      3          7           0       -1.095861    0.291015    0.000000
      4          7           0       -0.717449   -0.902325    0.000000
      5          7           0        0.621235   -0.989039    0.000000
      6          1           0        2.075425    0.541685    0.000000
      7          1           0       -0.059055    2.030190    0.000000
 ---------------------------------------------------------------------
 Rotational constants (GHZ):     10.9119043     10.7261236      5.4091082
 Standard basis: 6-31+G(d,p) (6D, 7F)
 There are    78 symmetry adapted cartesian basis functions of A'  symmetry.
 There are    27 symmetry adapted cartesian basis functions of A"  symmetry.
 There are    78 symmetry adapted basis functions of A'  symmetry.
 There are    27 symmetry adapted basis functions of A"  symmetry.
   105 basis functions,   174 primitive gaussians,   105 cartesian basis functions
    18 alpha electrons       18 beta electrons
       nuclear repulsion energy       169.7693597485 Hartrees.
 NAtoms=    7 NActive=    7 NUniq=    7 SFac= 1.00D+00 NAtFMM=   60 NAOKFM=F Big=F
 Integral buffers will be    131072 words long.
 Raffenetti 1 integral format.
 Two-electron integral symmetry is turned on.
 One-electron integrals computed using PRISM.
 NBasis=   105 RedAO= T EigKep=  8.76D-05  NBF=    78    27
 NBsUse=   105 1.00D-06 EigRej= -1.00D+00 NBFU=    78    27
 Lowest energy guess from the checkpoint file:  "/tmp/rdj3/g09-32362/Gau-19515.chk"
 B after Tr=     0.000000    0.000000    0.000000
         Rot=    1.000000    0.000000    0.000000    0.000141 Ang=   0.02 deg.
 B after Tr=     0.000000    0.000000    0.000000
         Rot=    1.000000    0.000000    0.000000   -0.000626 Ang=  -0.07 deg.
 Initial guess orbital symmetries:
       Occupied  (A") (A") (A') (A') (A') (A') (A') (A") (A') (A')
                 (A') (A') (A') (A') (A') (A') (A') (A')
       Virtual   (A") (A") (A') (A') (A') (A') (A') (A") (A') (A')
                 (A') (A') (A') (A') (A') (A') (A') (A') (A') (A')
                 (A') (A') (A') (A') (A') (A') (A') (A') (A') (A')
                 (A') (A') (A') (A') (A') (A') (A') (A') (A') (A')
                 (A') (A') (A') (A') (A') (A') (A') (A') (A') (A')
                 (A') (A') (A') (A') (A') (A') (A') (A') (A') (A')
                 (A') (A') (A') (A") (A") (A") (A") (A") (A") (A")
                 (A") (A") (A") (A") (A") (A") (A") (A") (A") (A")
                 (A") (A") (A") (A") (A") (A") (A")
 Keep R1 ints in memory in symmetry-blocked form, NReq=23756016.
 Requested convergence on RMS density matrix=1.00D-08 within 128 cycles.
 Requested convergence on MAX density matrix=1.00D-06.
 Requested convergence on             energy=1.00D-06.
 No special actions if energy rises.
 An orbital has undefined symmetry, so N**3 symmetry is turned off.
 SCF Done:  E(RHF) =  -256.767606866     A.U. after   11 cycles
            NFock= 11  Conv=0.64D-08     -V/T= 2.0018
 Calling FoFJK, ICntrl=      2127 FMM=F ISym2X=1 I1Cent= 0 IOpClX= 0 NMat=1 NMatS=1 NMatT=0.
 ***** Axes restored to original set *****
 -------------------------------------------------------------------
 Center     Atomic                   Forces (Hartrees/Bohr)
 Number     Number              X              Y              Z
 -------------------------------------------------------------------
      1        6          -0.002024725   -0.000335135    0.000000000
      2        7           0.000407922   -0.000675825    0.000000000
      3        7           0.001145845    0.000340441    0.000000000
      4        7           0.000826674    0.000392488    0.000000000
      5        7          -0.000195580    0.000558486    0.000000000
      6        1          -0.000126238   -0.000067215    0.000000000
      7        1          -0.000033898   -0.000213241    0.000000000
 -------------------------------------------------------------------
 Cartesian Forces:  Max     0.002024725 RMS     0.000598351
 -----------------------------------------------------------------------------------------------
                       Internal Coordinate Forces (Hartree/Bohr or radian)
  Cent   Atom   N1       Length/X         N2         Alpha/Y        N3         Beta/Z          J
 -----------------------------------------------------------------------------------------------
         X 
         X        1   0.000000(     1)
      1  C        1  -0.002119(     2)      2   0.000000(     9)
      2  N        1   0.001016(     3)      2   0.000000(    10)      3   0.000028(    16)     0
      3  N        1  -0.001077(     4)      2   0.000000(    11)      3  -0.001547(    17)     0
      4  N        1  -0.000742(     5)      2   0.000000(    12)      3   0.001122(    18)     0
      5  N        1   0.000544(     6)      2   0.000000(    13)      3  -0.000392(    19)     0
      6  H        3  -0.000136(     7)      4  -0.000090(    14)      5   0.000000(    20)     0
      7  H        4   0.000182(     8)      5  -0.000219(    15)      6   0.000000(    21)     0
 -----------------------------------------------------------------------------------------------
 Internal  Forces:  Max     0.002118647 RMS     0.000738141

 GradGradGradGradGradGradGradGradGradGradGradGradGradGradGradGradGradGrad
 Berny optimization.
 Search for a local minimum.
 Step number   4 out of a maximum of   22
 All quantities printed in internal units (Hartrees-Bohrs-Radians)
 Update second derivatives using D2CorN and points    1    3    4    2
 DE=  1.84D-06 DEPred=-3.81D-05 R=-4.84D-02
 Trust test=-4.84D-02 RLast= 1.51D-01 DXMaxT set to 7.50D-02
 The second derivative matrix:
                          rn1       rn2       rn3       rn4       rch
           rn1          0.68100
           rn2         -0.03995   0.77593
           rn3          0.11673  -0.05285   0.77183
           rn4          0.01109   0.06587   0.07604   0.66378
           rch          0.00986  -0.01317   0.01530  -0.00786   0.37445
           rnh         -0.01595   0.02063  -0.02093   0.01273   0.00248
           an1         -0.00328  -0.69496  -0.05857  -0.06648  -0.01811
           an2          0.72754  -0.33531  -0.68531   0.05389   0.00315
           an3         -0.00866   1.02601   0.10048  -0.59911   0.00666
           an4          0.03120   0.00194   0.62111  -0.08116   0.00149
           ach          0.05380  -0.00741  -0.00506   0.04384  -0.00711
           anh         -0.07081   0.01046   0.04312  -0.02468  -0.00465
                          rnh       an1       an2       an3       an4
           rnh          0.48049
           an1          0.03311   4.53041
           an2         -0.00501  -2.69359   6.03924
           an3         -0.01175  -0.05065  -3.18586   4.47385
           an4         -0.00598  -0.08101  -0.07153  -1.18001   2.57985
           ach          0.01539  -0.13699   0.00198   0.00955   0.09062
           anh          0.01325  -0.03015  -0.07981   0.02427   0.01160
                          ach       anh
           ach          0.29635
           anh         -0.03006   0.29469
 ITU= -1 -1  0  0
 Energy rises -- skip Quadratic search.
 Quartic linear search produced a step of -0.65192.
 Variable       Old X    -DE/DX   Delta X   Delta X   Delta X     New X
                                 (Linear)    (Quad)   (Total)
   rn1        2.41376   0.00102  -0.04180   0.00000  -0.04180   2.37196
   rn2        2.57482  -0.00108  -0.03791   0.00000  -0.03791   2.53691
   rn3        2.09719  -0.00074   0.00904   0.00000   0.00904   2.10623
   rn4        1.67783   0.00054   0.04670   0.00000   0.04670   1.72453
   rch        2.01874  -0.00014  -0.00002   0.00000  -0.00002   2.01873
   rnh        1.87686   0.00018   0.00008   0.00000   0.00008   1.87694
   an1        1.22768   0.00003   0.01703   0.00000   0.01703   1.24471
   an2        2.27898  -0.00155   0.03589   0.00000   0.03589   2.31487
   an3        3.32283   0.00112   0.04655   0.00000   0.04655   3.36939
   an4        4.78159  -0.00039   0.02260   0.00000   0.02260   4.80419
   ach        2.18590  -0.00009  -0.00145   0.00000  -0.00145   2.18445
   anh        2.11007  -0.00022   0.00052   0.00000   0.00052   2.11059
         Item               Value     Threshold  Converged?
 Maximum Force            0.001547     0.000450     NO 
 RMS     Force            0.000761     0.000300     NO 
 Maximum Displacement     0.046705     0.001800     NO 
 RMS     Displacement     0.028440     0.001200     NO 
 Predicted change in Energy=-2.932707D-07
 GradGradGradGradGradGradGradGradGradGradGradGradGradGradGradGradGradGrad

 ---------------------------------------------------------------------------------------------------
                            Z-MATRIX (ANGSTROMS AND DEGREES)
   CD    Cent   Atom    N1       Length/X        N2       Alpha/Y        N3        Beta/Z          J
 ---------------------------------------------------------------------------------------------------
      1         X 
      2         X        1   1.000000(     1)
      3      1  C        1   1.000000(     2)      2   90.000(     9)
      4      2  N        1   1.255185(     3)      2   90.000(    10)      3   71.317(    16)      0
      5      3  N        1   1.342476(     4)      2   90.000(    11)      3  132.632(    17)      0
      6      4  N        1   1.114566(     5)      2   90.000(    12)      3  193.052(    18)      0
      7      5  N        1   0.912583(     6)      2   90.000(    13)      3  275.260(    19)      0
      8      6  H        3   1.068264(     7)      4  125.159(    14)      5  180.000(    20)      0
      9      7  H        4   0.993233(     8)      5  120.928(    15)      6  180.000(    21)      0
 ---------------------------------------------------------------------------------------------------
                         Z-Matrix orientation:                         
 ---------------------------------------------------------------------
 Center     Atomic      Atomic             Coordinates (Angstroms)
 Number     Number       Type             X           Y           Z
 ---------------------------------------------------------------------
      1         -1           0        0.000000    0.000000    0.000000
      2         -1           0        0.000000    0.000000    1.000000
      3          6           0        1.000000    0.000000    0.000000
      4          7           0        0.402084   -1.189041    0.000000
      5          7           0       -0.909245   -0.987682    0.000000
      6          7           0       -1.085774    0.251700    0.000000
      7          7           0        0.083660    0.908740    0.000000
      8          1           0        2.056630    0.157230    0.000000
      9          1           0        0.777337   -2.108659    0.000000
 ---------------------------------------------------------------------
                    Distance matrix (angstroms):
                    1          2          3          4          5
     1  X    0.000000
     2  X    1.000000   0.000000
     3  C    1.000000   1.414214   0.000000
     4  N    1.255185   1.604833   1.330910   0.000000
     5  N    1.342476   1.673990   2.149589   1.326698   0.000000
     6  N    1.114566   1.497417   2.100906   2.071100   1.251891
     7  N    0.912583   1.353812   1.290538   2.121810   2.140626
     8  H    2.062632   2.292259   1.068264   2.133065   3.179188
     9  H    2.247375   2.459816   2.120382   0.993233   2.025129
                    6          7          8          9
     6  N    0.000000
     7  N    1.341371   0.000000
     8  H    3.143824   2.111251   0.000000
     9  H    3.007071   3.096108   2.602084   0.000000
 Stoichiometry    CH2N4
 Framework group  CS[SG(CH2N4)]
 Deg. of freedom    11
 Full point group                 CS      NOp   2
 Largest Abelian subgroup         CS      NOp   2
 Largest concise Abelian subgroup C1      NOp   1
                         Standard orientation:                         
 ---------------------------------------------------------------------
 Center     Atomic      Atomic             Coordinates (Angstroms)
 Number     Number       Type             X           Y           Z
 ---------------------------------------------------------------------
      1          6           0        1.053781    0.226792    0.000000
      2          7           0        0.000000    1.039730    0.000000
      3          7           0       -1.094865    0.290465    0.000000
      4          7           0       -0.717382   -0.903159    0.000000
      5          7           0        0.621234   -0.989100    0.000000
      6          1           0        2.074314    0.542547    0.000000
      7          1           0       -0.059904    2.031155    0.000000
 ---------------------------------------------------------------------
 Rotational constants (GHZ):     10.8989798     10.7401780      5.4094981
 Standard basis: 6-31+G(d,p) (6D, 7F)
 There are    78 symmetry adapted cartesian basis functions of A'  symmetry.
 There are    27 symmetry adapted cartesian basis functions of A"  symmetry.
 There are    78 symmetry adapted basis functions of A'  symmetry.
 There are    27 symmetry adapted basis functions of A"  symmetry.
   105 basis functions,   174 primitive gaussians,   105 cartesian basis functions
    18 alpha electrons       18 beta electrons
       nuclear repulsion energy       169.7750870347 Hartrees.
 NAtoms=    7 NActive=    7 NUniq=    7 SFac= 1.00D+00 NAtFMM=   60 NAOKFM=F Big=F
 Integral buffers will be    131072 words long.
 Raffenetti 1 integral format.
 Two-electron integral symmetry is turned on.
 One-electron integrals computed using PRISM.
 NBasis=   105 RedAO= T EigKep=  8.76D-05  NBF=    78    27
 NBsUse=   105 1.00D-06 EigRej= -1.00D+00 NBFU=    78    27
 Lowest energy guess from the checkpoint file:  "/tmp/rdj3/g09-32362/Gau-19515.chk"
 B after Tr=     0.000000    0.000000    0.000000
         Rot=    1.000000    0.000000    0.000000    0.000010 Ang=   0.00 deg.
 B after Tr=     0.000000    0.000000    0.000000
         Rot=    1.000000    0.000000    0.000000   -0.000131 Ang=  -0.02 deg.
 Initial guess orbital symmetries:
       Occupied  (A') (A') (A') (A') (A') (A") (A') (A') (A") (A')
                 (A") (A') (A') (A') (A') (A') (A') (A')
       Virtual   (A') (A') (A') (A') (A') (A") (A') (A') (A") (A')
                 (A") (A') (A') (A') (A') (A') (A') (A') (A') (A')
                 (A') (A') (A') (A') (A') (A') (A') (A') (A') (A')
                 (A') (A') (A') (A') (A') (A') (A') (A') (A') (A')
                 (A') (A') (A') (A') (A') (A') (A') (A') (A') (A')
                 (A') (A') (A') (A') (A') (A') (A') (A') (A') (A')
                 (A') (A') (A') (A") (A") (A") (A") (A") (A") (A")
                 (A") (A") (A") (A") (A") (A") (A") (A") (A") (A")
                 (A") (A") (A") (A") (A") (A") (A")
 Keep R1 ints in memory in symmetry-blocked form, NReq=23756016.
 Requested convergence on RMS density matrix=1.00D-08 within 128 cycles.
 Requested convergence on MAX density matrix=1.00D-06.
 Requested convergence on             energy=1.00D-06.
 No special actions if energy rises.
 An orbital has undefined symmetry, so N**3 symmetry is turned off.
 SCF Done:  E(RHF) =  -256.767609795     A.U. after    8 cycles
            NFock=  8  Conv=0.97D-08     -V/T= 2.0018
 Calling FoFJK, ICntrl=      2127 FMM=F ISym2X=1 I1Cent= 0 IOpClX= 0 NMat=1 NMatS=1 NMatT=0.
 ***** Axes restored to original set *****
 -------------------------------------------------------------------
 Center     Atomic                   Forces (Hartrees/Bohr)
 Number     Number              X              Y              Z
 -------------------------------------------------------------------
      1        6          -0.000980798    0.000038551    0.000000000
      2        7          -0.000538747    0.000321151    0.000000000
      3        7           0.000063258   -0.000653354    0.000000000
      4        7           0.001561425   -0.000242037    0.000000000
      5        7           0.000059301    0.000594888    0.000000000
      6        1          -0.000112979    0.000068382    0.000000000
      7        1          -0.000051460   -0.000127582    0.000000000
 -------------------------------------------------------------------
 Cartesian Forces:  Max     0.001561425 RMS     0.000471982
 -----------------------------------------------------------------------------------------------
                       Internal Coordinate Forces (Hartree/Bohr or radian)
  Cent   Atom   N1       Length/X         N2         Alpha/Y        N3         Beta/Z          J
 -----------------------------------------------------------------------------------------------
         X 
         X        1   0.000000(     1)
      1  C        1  -0.001154(     2)      2   0.000000(     9)
      2  N        1  -0.000261(     3)      2   0.000000(    10)      3   0.001145(    16)     0
      3  N        1   0.000378(     4)      2   0.000000(    11)      3  -0.001139(    17)     0
      4  N        1  -0.001576(     5)      2   0.000000(    12)      3   0.000246(    18)     0
      5  N        1   0.000598(     6)      2   0.000000(    13)      3   0.000008(    19)     0
      6  H        3  -0.000102(     7)      4   0.000170(    14)      5   0.000000(    20)     0
      7  H        4   0.000099(     8)      5  -0.000180(    15)      6   0.000000(    21)     0
 -----------------------------------------------------------------------------------------------
 Internal  Forces:  Max     0.001575748 RMS     0.000582837

 GradGradGradGradGradGradGradGradGradGradGradGradGradGradGradGradGradGrad
 Berny optimization.
 Search for a local minimum.
 Step number   5 out of a maximum of   22
 All quantities printed in internal units (Hartrees-Bohrs-Radians)
 Update second derivatives using D2CorN and points    1    3    2    5
 The second derivative matrix:
                          rn1       rn2       rn3       rn4       rch
           rn1          0.68058
           rn2         -0.03977   0.77708
           rn3          0.11721  -0.05199   0.77252
           rn4          0.01131   0.06510   0.07508   0.66408
           rch          0.00987  -0.01309   0.01537  -0.00793   0.37445
           rnh         -0.01593   0.02053  -0.02104   0.01279   0.00248
           an1         -0.00404  -0.69591  -0.05909  -0.06541  -0.01819
           an2          0.72900  -0.33421  -0.68514   0.05217   0.00323
           an3         -0.00910   1.02456   0.09944  -0.59800   0.00657
           an4          0.03159   0.00172   0.62066  -0.08130   0.00148
           ach          0.05360  -0.00735  -0.00492   0.04392  -0.00712
           anh         -0.07086   0.01060   0.04329  -0.02475  -0.00466
                          rnh       an1       an2       an3       an4
           rnh          0.48048
           an1          0.03324   4.53097
           an2         -0.00519  -2.69341   6.03731
           an3         -0.01162  -0.04947  -3.18689   4.47566
           an4         -0.00600  -0.08041  -0.07278  -1.17961   2.57953
           ach          0.01541  -0.13717   0.00245   0.00945   0.09077
           anh          0.01326  -0.03034  -0.07952   0.02410   0.01165
                          ach       anh
           ach          0.29628
           anh         -0.03010   0.29465
 ITU=  0 -1 -1  0  0
     Eigenvalues ---   -0.00020   0.12144   0.25758   0.35621   0.37312
     Eigenvalues ---    0.47623   0.65515   0.78722   1.21408   2.98145
     Eigenvalues ---    5.10080   9.64052
 RFO step:  Lambda=-2.03345215D-04 EMin=-2.03133619D-04
 I=     1 Eig=   -2.03D-04 Dot1= -1.20D-06
 I=     1 Stepn= -1.88D-01 RXN=   1.87D-01 EDone=F
 Mixed    1 eigenvectors in step.  Raw Step.Grad=  1.20D-06.
 RFO eigenvector is Hessian eigenvector with negative curvature.
 Taking step of  1.87D-01 in eigenvector direction(s).  Step.Grad=  2.61D-05.
 Quartic linear search produced a step of -0.04154.
 Maximum step size (   0.075) exceeded in Quadratic search.
    -- Step size scaled by   0.400
 Variable       Old X    -DE/DX   Delta X   Delta X   Delta X     New X
                                 (Linear)    (Quad)   (Total)
   rn1        2.37196  -0.00026  -0.00093   0.03442   0.03350   2.40545
   rn2        2.53691   0.00038  -0.00084   0.02506   0.02422   2.56113
   rn3        2.10623  -0.00158   0.00020  -0.00868  -0.00848   2.09774
   rn4        1.72453   0.00060   0.00104  -0.03475  -0.03371   1.69082
   rch        2.01873  -0.00010   0.00000  -0.00020  -0.00020   2.01852
   rnh        1.87694   0.00010   0.00000   0.00028   0.00028   1.87722
   an1        1.24471   0.00114   0.00038  -0.01443  -0.01405   1.23066
   an2        2.31487  -0.00114   0.00080  -0.02857  -0.02778   2.28709
   an3        3.36939   0.00025   0.00103  -0.03501  -0.03398   3.33541
   an4        4.80419   0.00001   0.00050  -0.01668  -0.01618   4.78801
   ach        2.18445   0.00017  -0.00003  -0.00084  -0.00087   2.18357
   anh        2.11059  -0.00018   0.00001  -0.00004  -0.00003   2.11056
         Item               Value     Threshold  Converged?
 Maximum Force            0.001576     0.000450     NO 
 RMS     Force            0.000695     0.000300     NO 
 Maximum Displacement     0.033979     0.001800     NO 
 RMS     Displacement     0.021022     0.001200     NO 
 Predicted change in Energy=-1.159954D-06
 GradGradGradGradGradGradGradGradGradGradGradGradGradGradGradGradGradGrad

 ---------------------------------------------------------------------------------------------------
                            Z-MATRIX (ANGSTROMS AND DEGREES)
   CD    Cent   Atom    N1       Length/X        N2       Alpha/Y        N3        Beta/Z          J
 ---------------------------------------------------------------------------------------------------
      1         X 
      2         X        1   1.000000(     1)
      3      1  C        1   1.000000(     2)      2   90.000(     9)
      4      2  N        1   1.272910(     3)      2   90.000(    10)      3   70.512(    16)      0
      5      3  N        1   1.355292(     4)      2   90.000(    11)      3  131.041(    17)      0
      6      4  N        1   1.110076(     5)      2   90.000(    12)      3  191.105(    18)      0
      7      5  N        1   0.894743(     6)      2   90.000(    13)      3  274.333(    19)      0
      8      6  H        3   1.068157(     7)      4  125.110(    14)      5  180.000(    20)      0
      9      7  H        4   0.993381(     8)      5  120.926(    15)      6  180.000(    21)      0
 ---------------------------------------------------------------------------------------------------
                         Z-Matrix orientation:                         
 ---------------------------------------------------------------------
 Center     Atomic      Atomic             Coordinates (Angstroms)
 Number     Number       Type             X           Y           Z
 ---------------------------------------------------------------------
      1         -1           0        0.000000    0.000000    0.000000
      2         -1           0        0.000000    0.000000    1.000000
      3          6           0        1.000000    0.000000    0.000000
      4          7           0        0.424660   -1.199985    0.000000
      5          7           0       -0.889879   -1.022219    0.000000
      6          7           0       -1.089292    0.213804    0.000000
      7          7           0        0.067601    0.892186    0.000000
      8          1           0        2.053527    0.176186    0.000000
      9          1           0        0.816390   -2.112867    0.000000
 ---------------------------------------------------------------------
                    Distance matrix (angstroms):
                    1          2          3          4          5
     1  X    0.000000
     2  X    1.000000   0.000000
     3  C    1.000000   1.414214   0.000000
     4  N    1.272910   1.618734   1.330782   0.000000
     5  N    1.355292   1.684285   2.148621   1.326504   0.000000
     6  N    1.110076   1.494078   2.100203   2.071437   1.252006
     7  N    0.894743   1.341851   1.290489   2.122421   2.140493
     8  H    2.061071   2.290854   1.068157   2.132382   3.178020
     9  H    2.265105   2.476025   2.120830   0.993381   2.025060
                    6          7          8          9
     6  N    0.000000
     7  N    1.341120   0.000000
     8  H    3.143044   2.111056   0.000000
     9  H    3.007495   3.096938   2.601974   0.000000
 Stoichiometry    CH2N4
 Framework group  CS[SG(CH2N4)]
 Deg. of freedom    11
 Full point group                 CS      NOp   2
 Largest Abelian subgroup         CS      NOp   2
 Largest concise Abelian subgroup C1      NOp   1
                         Standard orientation:                         
 ---------------------------------------------------------------------
 Center     Atomic      Atomic             Coordinates (Angstroms)
 Number     Number       Type             X           Y           Z
 ---------------------------------------------------------------------
      1          6           0        1.053226    0.226636    0.000000
      2          7           0        0.000000    1.040082    0.000000
[...]
     6   1     0.00   0.00  -0.25     0.00   0.00   0.52     0.00   0.00  -0.21
     7   1     0.00   0.00  -0.94     0.00   0.00  -0.80     0.00   0.00  -0.55
                      4                      5                      6
                     A"                     A'                     A'
 Frequencies --   1007.5200              1089.8876              1111.4664
 Red. masses --      1.3784                 4.7745                 7.3476
 Frc consts  --      0.8244                 3.3415                 5.3479
 IR Inten    --     12.8868                 1.9288                 0.9109
 Raman Activ --      0.1476                 1.5574                 1.9945
 Depolar (P) --      0.7500                 0.6819                 0.6558
 Depolar (U) --      0.8571                 0.8109                 0.7921
  Atom  AN      X      Y      Z        X      Y      Z        X      Y      Z
     1   6     0.00   0.00   0.18     0.13   0.12   0.00    -0.39  -0.05   0.00
     2   7     0.00   0.00  -0.03     0.09   0.01   0.00    -0.03   0.39   0.00
     3   7     0.00   0.00   0.00     0.16  -0.14   0.00     0.26  -0.02   0.00
     4   7     0.00   0.00  -0.01    -0.04  -0.20   0.00     0.24  -0.10   0.00
     5   7     0.00   0.00  -0.03    -0.32   0.26   0.00    -0.11  -0.23   0.00
     6   1     0.00   0.00  -0.98     0.36  -0.61   0.00    -0.30  -0.47   0.00
     7   1     0.00   0.00  -0.02    -0.45  -0.02   0.00    -0.09   0.41   0.00
                      7                      8                      9
                     A'                     A'                     A'
 Frequencies --   1179.4376              1200.3122              1255.8634
 Red. masses --      3.5703                 2.7127                 2.3924
 Frc consts  --      2.9262                 2.3027                 2.2232
 IR Inten    --     26.0710                34.4732                19.7844
 Raman Activ --      5.8530                 2.6890                 5.4719
 Depolar (P) --      0.1754                 0.6381                 0.6733
 Depolar (U) --      0.2984                 0.7791                 0.8047
  Atom  AN      X      Y      Z        X      Y      Z        X      Y      Z
     1   6     0.07  -0.05   0.00     0.09  -0.07   0.00     0.07  -0.11   0.00
     2   7     0.08   0.26   0.00    -0.15   0.04   0.00    -0.14  -0.05   0.00
     3   7    -0.20  -0.16   0.00     0.20   0.06   0.00    -0.08   0.05   0.00
     4   7    -0.15  -0.03   0.00    -0.19   0.00   0.00     0.21   0.13   0.00
     5   7     0.17   0.00   0.00     0.13  -0.05   0.00    -0.04   0.02   0.00
     6   1     0.31  -0.78   0.00     0.07   0.00   0.00     0.29  -0.81   0.00
     7   1     0.13   0.28   0.00    -0.93   0.00   0.00    -0.39  -0.07   0.00
                     10                     11                     12
                     A'                     A'                     A'
 Frequencies --   1424.7211              1544.2401              1623.5728
 Red. masses --      2.7636                 5.7535                 3.2650
 Frc consts  --      3.3051                 8.0838                 5.0708
 IR Inten    --      1.2725                37.8541                13.0909
 Raman Activ --     14.2199                23.5936                 9.2865
 Depolar (P) --      0.0664                 0.0695                 0.5615
 Depolar (U) --      0.1246                 0.1300                 0.7192
  Atom  AN      X      Y      Z        X      Y      Z        X      Y      Z
     1   6     0.21   0.03   0.00     0.18   0.07   0.00    -0.13   0.29   0.00
     2   7     0.05   0.12   0.00    -0.20   0.06   0.00     0.17  -0.12   0.00
     3   7    -0.13  -0.04   0.00    -0.07   0.35   0.00    -0.07   0.11   0.00
     4   7     0.08   0.01   0.00     0.03  -0.39   0.00    -0.02  -0.04   0.00
     5   7    -0.14  -0.19   0.00     0.01  -0.07   0.00     0.07  -0.15   0.00
     6   1     0.04   0.70   0.00     0.30  -0.17   0.00     0.12  -0.56   0.00
     7   1    -0.60   0.11   0.00     0.70   0.13   0.00    -0.67  -0.19   0.00
                     13                     14                     15
                     A'                     A'                     A'
 Frequencies --   1715.0544              3471.8664              3926.8061
 Red. masses --      3.8017                 1.1045                 1.0854
 Frc consts  --      6.5885                 7.8438                 9.8612
 IR Inten    --     24.5950                 1.0110               153.1955
 Raman Activ --      2.0248                64.6504                67.0103
 Depolar (P) --      0.3920                 0.2831                 0.2348
 Depolar (U) --      0.5632                 0.4412                 0.3803
  Atom  AN      X      Y      Z        X      Y      Z        X      Y      Z
     1   6     0.11   0.27   0.00     0.09   0.03   0.00     0.00   0.00   0.00
     2   7    -0.18  -0.02   0.00     0.00   0.00   0.00    -0.01   0.08   0.00
     3   7     0.13  -0.15   0.00     0.00   0.00   0.00     0.00   0.00   0.00
     4   7    -0.07   0.16   0.00     0.00   0.00   0.00     0.00   0.00   0.00
     5   7    -0.06  -0.20   0.00     0.00   0.00   0.00     0.00   0.00   0.00
     6   1     0.34  -0.31   0.00    -0.95  -0.29   0.00    -0.01   0.00   0.00
     7   1     0.75   0.03   0.00     0.01   0.02   0.00     0.06  -1.00   0.00

 -------------------
 - Thermochemistry -
 -------------------
 Temperature   298.150 Kelvin.  Pressure   1.00000 Atm.
 Atom     1 has atomic number  6 and mass  12.00000
 Atom     2 has atomic number  7 and mass  14.00307
 Atom     3 has atomic number  7 and mass  14.00307
 Atom     4 has atomic number  7 and mass  14.00307
 Atom     5 has atomic number  7 and mass  14.00307
 Atom     6 has atomic number  1 and mass   1.00783
 Atom     7 has atomic number  1 and mass   1.00783
 Molecular mass:    70.02795 amu.
 Principal axes and moments of inertia in atomic units:
                           1         2         3
     Eigenvalues --   165.45794 168.03780 333.49575
           X            0.94265   0.33378   0.00000
           Y           -0.33378   0.94265   0.00000
           Z            0.00000   0.00000   1.00000
 This molecule is an asymmetric top.
 Rotational symmetry number  1.
 Rotational temperatures (Kelvin)      0.52348     0.51544     0.25971
 Rotational constants (GHZ):          10.90755    10.74009     5.41159
 Zero-point vibrational energy     136008.5 (Joules/Mol)
                                   32.50681 (Kcal/Mol)
 Vibrational temperatures:    909.35  1073.72  1165.11  1449.59  1568.10
          (Kelvin)           1599.15  1696.95  1726.98  1806.91  2049.85
                             2221.81  2335.96  2467.58  4995.24  5649.79
 
 Zero-point correction=                           0.051803 (Hartree/Particle)
 Thermal correction to Energy=                    0.055099
 Thermal correction to Enthalpy=                  0.056043
 Thermal correction to Gibbs Free Energy=         0.025814
 Sum of electronic and zero-point Energies=           -256.715810
 Sum of electronic and thermal Energies=              -256.712514
 Sum of electronic and thermal Enthalpies=            -256.711570
 Sum of electronic and thermal Free Energies=         -256.741799
 
                     E (Thermal)             CV                S
                      KCal/Mol        Cal/Mol-Kelvin    Cal/Mol-Kelvin
 Total                   34.575             10.071             63.624
 Electronic               0.000              0.000              0.000
 Translational            0.889              2.981             38.656
 Rotational               0.889              2.981             23.743
 Vibrational             32.798              4.110              1.225
                       Q            Log10(Q)             Ln(Q)
 Total Bot       0.133826D-11        -11.873458        -27.339648
 Total V=0       0.899846D+12         11.954168         27.525489
 Vib (Bot)       0.168555D-23        -23.773259        -54.739953
 Vib (V=0)       0.113336D+01          0.054367          0.125185
 Electronic      0.100000D+01          0.000000          0.000000
 Translational   0.230336D+08          7.362362         16.952466
 Rotational      0.344698D+05          4.537439         10.447839
 ***** Axes restored to original set *****
 -------------------------------------------------------------------
 Center     Atomic                   Forces (Hartrees/Bohr)
 Number     Number              X              Y              Z
 -------------------------------------------------------------------
      1        6          -0.000034118    0.000004851    0.000000000
      2        7           0.000027013    0.000043891    0.000000000
      3        7           0.000013437    0.000049514    0.000000000
      4        7          -0.000036257   -0.000021901    0.000000000
      5        7           0.000037311   -0.000034842    0.000000000
      6        1          -0.000016472   -0.000008700    0.000000000
      7        1           0.000009087   -0.000032814    0.000000000
 -------------------------------------------------------------------
 Cartesian Forces:  Max     0.000049514 RMS     0.000024283
 -----------------------------------------------------------------------------------------------
                       Internal Coordinate Forces (Hartree/Bohr or radian)
  Cent   Atom   N1       Length/X         N2         Alpha/Y        N3         Beta/Z          J
 -----------------------------------------------------------------------------------------------
         X 
         X        1   0.000000(     1)
      1  C        1  -0.000046(     2)      2   0.000000(     9)
      2  N        1   0.000002(     3)      2   0.000000(    10)      3  -0.000080(    16)     0
      3  N        1  -0.000050(     4)      2   0.000000(    11)      3   0.000061(    17)     0
      4  N        1   0.000032(     5)      2   0.000000(    12)      3  -0.000058(    18)     0
      5  N        1  -0.000032(     6)      2   0.000000(    13)      3   0.000066(    19)     0
      6  H        3  -0.000018(     7)      4  -0.000011(    14)      5   0.000000(    20)     0
      7  H        4   0.000034(     8)      5  -0.000009(    15)      6   0.000000(    21)     0
 -----------------------------------------------------------------------------------------------
 Internal  Forces:  Max     0.000079593 RMS     0.000035268

 GradGradGradGradGradGradGradGradGradGradGradGradGradGradGradGradGradGrad
 Berny optimization.
 Search for a local minimum.
 Step number   1 out of a maximum of    2
 All quantities printed in internal units (Hartrees-Bohrs-Radians)
 Second derivative matrix not updated -- analytic derivatives used.
 The second derivative matrix:
                          rn1       rn2       rn3       rn4       rch
           rn1          0.70764
           rn2         -0.05584   0.75895
           rn3          0.07709  -0.00243   0.68447
           rn4          0.11295   0.09361   0.01740   0.69424
           rch         -0.00279  -0.00117   0.00079  -0.00407   0.42169
           rnh          0.00977  -0.00760   0.00071  -0.00019   0.00046
           an1          0.07870  -0.45134  -0.25697   0.17206   0.01659
           an2          0.33402  -0.27660  -0.55729  -0.19599  -0.00181
           an3          0.28642   0.73776   0.28743  -0.34210   0.00270
           an4         -0.16447   0.18026   0.37300  -0.18340  -0.01494
           ach          0.04072   0.01368  -0.01574   0.03696   0.00196
           anh         -0.06058   0.02438   0.02812  -0.02208  -0.00150
                          rnh       an1       an2       an3       an4
           rnh          0.54659
           an1         -0.00912   3.30425
           an2          0.01783  -1.46816   4.06908
           an3         -0.00898  -0.39136  -2.03596   3.01531
           an4          0.00423  -0.30320  -0.34274  -0.31189   1.63083
           ach          0.00052  -0.00743  -0.02570  -0.00728   0.09122
           anh          0.00140  -0.02728  -0.02478   0.00981  -0.00194
                          ach       anh
           ach          0.25403
           anh          0.00126   0.25566
 ITU=  0
     Eigenvalues ---    0.00000   0.19176   0.25246   0.32869   0.42189
     Eigenvalues ---    0.54616   0.74158   0.84080   0.95944   2.11049
     Eigenvalues ---    3.86235   6.08708
 Angle between quadratic step and forces=  83.28 degrees.
 Linear search not attempted -- first point.
 Variable       Old X    -DE/DX   Delta X   Delta X   Delta X     New X
                                 (Linear)    (Quad)   (Total)
   rn1        2.42632   0.00000   0.00000   0.00037   0.00037   2.42669
   rn2        2.57964  -0.00005   0.00000   0.00020   0.00020   2.57984
   rn3        2.09129   0.00003   0.00000  -0.00005  -0.00005   2.09124
   rn4        1.66854  -0.00003   0.00000  -0.00039  -0.00039   1.66815
   rch        2.01858  -0.00002   0.00000  -0.00004  -0.00004   2.01854
   rnh        1.87707   0.00003   0.00000   0.00006   0.00006   1.87713
   an1        1.22206  -0.00008   0.00000  -0.00018  -0.00018   1.22188
   an2        2.26904   0.00006   0.00000  -0.00029  -0.00029   2.26874
   an3        3.31248  -0.00006   0.00000  -0.00038  -0.00038   3.31210
   an4        4.77731   0.00007   0.00000  -0.00014  -0.00014   4.77717
   ach        2.18438  -0.00001   0.00000  -0.00005  -0.00005   2.18432
   anh        2.11042  -0.00001   0.00000  -0.00003  -0.00003   2.11039
         Item               Value     Threshold  Converged?
 Maximum Force            0.000080     0.000450     YES
 RMS     Force            0.000045     0.000300     YES
 Maximum Displacement     0.000393     0.001800     YES
 RMS     Displacement     0.000227     0.001200     YES
 Predicted change in Energy=-7.134667D-09
 Optimization completed.
    -- Stationary point found.
                       ----------------------------
                       !   Optimized Parameters   !
                       ! (Angstroms and Degrees)  !
 ----------------------                            ----------------------
 !      Name          Value   Derivative information (Atomic Units)     !
 ------------------------------------------------------------------------
 !       rn1         1.284    -DE/DX =    0.0                           !
 !       rn2         1.3651   -DE/DX =    0.0                           !
 !       rn3         1.1067   -DE/DX =    0.0                           !
 !       rn4         0.883    -DE/DX =    0.0                           !
 !       rch         1.0682   -DE/DX =    0.0                           !
 !       rnh         0.9933   -DE/DX =    0.0                           !
 !       an1        70.019    -DE/DX =   -0.0001                        !
 !       an2       130.0062   -DE/DX =    0.0001                        !
 !       an3       189.7912   -DE/DX =   -0.0001                        !
 !       an4       273.7198   -DE/DX =    0.0001                        !
 !       ach       125.1556   -DE/DX =    0.0                           !
 !       anh       120.918    -DE/DX =    0.0                           !
 ------------------------------------------------------------------------
 GradGradGradGradGradGradGradGradGradGradGradGradGradGradGradGradGradGrad

 1\1\GINC-N342\Freq\RHF\6-31+G(d,p)\C1H2N4\RDJ3\25-Nov-2013\1\\#N Geom=
 AllCheck Guess=TCheck SCRF=Check GenChk RHF/6-31+G(d,p) Freq\\1H-tetra
 zole CH2N4 casno=288948 state=1 config=1 method=1 basis=4\\0,1\X\X,1,1
 .\C,1,1.,2,90.\N,1,rn1,2,90.,3,an1,0\N,1,rn2,2,90.,3,an2,0\N,1,rn3,2,9
 0.,3,an3,0\N,1,rn4,2,90.,3,an4,0\H,3,rch,4,ach,5,180.,0\H,4,rnh,5,anh,
 6,180.,0\\rn1=1.28395347\rn2=1.3650869\rn3=1.10666388\rn4=0.88295274\r
 ch=1.06818652\rnh=0.99330262\an1=70.01899207\an2=130.00624873\an3=189.
 79122148\an4=273.71976557\ach=125.15564822\anh=120.91799087\\Version=E
 M64L-G09RevD.01\State=1-A'\HF=-256.7676131\RMSD=1.798e-09\RMSF=2.428e-
 05\ZeroPoint=0.0518029\Thermal=0.0550992\Dipole=1.8759199,-1.2725446,0
 .\DipoleDeriv=0.326557,0.0129002,0.,-0.1725531,0.5669699,0.,0.,0.,0.16
 16826,-0.3153587,0.3684587,0.,0.2318643,-0.4889255,0.,0.,0.,-0.2033782
 ,0.1339831,-0.4185756,0.,-0.3556363,-0.2115947,0.,0.,0.,-0.0979632,0.1
 028141,0.2296714,0.,0.2292656,0.0285613,0.,0.,0.,-0.1574071,-0.5448779
 ,-0.1419632,0.,0.106169,-0.3585109,0.,0.,0.,-0.2559644,0.0604503,0.005
 1283,0.,0.0001711,0.1205678,0.,0.,0.,0.1750497,0.2364322,-0.0556198,0.
 ,-0.0392806,0.3429321,0.,0.,0.,0.3779806\Polar=38.8812505,-0.3928926,3
 8.9117329,0.,0.,22.4465707\PolarDeriv=3.6266684,0.8894222,2.1416866,0.
 ,0.,3.1700392,-1.7585932,-3.3816176,-0.6712356,0.,0.,0.0170431,0.,0.,0
 .,3.7981143,0.4353597,0.,-1.0185029,0.3587764,0.7980025,0.,0.,-0.72509
 39,-0.7873795,1.6284456,0.6774353,0.,0.,-1.8756308,0.,0.,0.,0.2220636,
 -2.2880186,0.,-2.8858978,-1.941281,-3.1200031,0.,0.,-0.210457,-5.92689
 64,-5.3873442,-7.255066,0.,0.,-1.6661855,0.,0.,0.,-1.4160822,-2.483552
 5,0.,-4.9936547,4.6811409,-3.1210769,0.,0.,-1.5098141,6.104426,3.14863
 43,4.7728435,0.,0.,1.5547313,0.,0.,0.,-2.4521613,1.8388094,0.,-5.03261
 55,-3.4383337,0.0390763,0.,0.,-1.5802919,3.0225805,0.2829113,8.7936505
 ,0.,0.,2.3568542,0.,0.,0.,-0.7146323,2.6591446,0.,8.6532266,1.2664347,
 1.0440727,0.,0.,0.5948402,1.135931,1.4443727,0.7150235,0.,0.,0.1732223
 ,0.,0.,0.,0.3734324,0.1407386,0.,1.6507759,-1.8161595,2.218242,0.,0.,0
 .2607776,-1.7900685,2.2645979,-7.0326512,0.,0.,-0.5600345,0.,0.,0.,0.1
 892655,-0.3024811,0.\HyperPolar=12.4375495,-5.3524108,-10.7618468,5.79
 4137,0.,0.,0.,10.7321324,6.814027,0.\PG=CS [SG(C1H2N4)]\NImag=0\\1.138
 46847,0.01595282,0.73476880,0.,0.,0.18293695,-0.20336369,-0.08441234,0
 .,0.74825287,-0.11348083,-0.33390164,0.,-0.15743529,1.16790363,0.,0.,-
 0.07765667,0.,0.,0.10944168,-0.10076418,-0.10021057,0.,-0.30500292,-0.
 04283479,0.,0.56663934,0.00057273,-0.04624265,0.,0.00746486,-0.1311645
 0,0.,0.05442612,0.82402027,0.,0.,0.02360907,0.,0.,-0.08187560,0.,0.,0.
 13870772,-0.13562737,0.08242290,0.,-0.09414897,0.03599975,0.,-0.155317
 87,0.03715451,0.,0.63854886,-0.04398722,0.05875721,0.,0.13778826,-0.11
 757180,0.,0.09023929,-0.52493956,0.,-0.12864855,0.73535162,0.,0.,0.022
 27665,0.,0.,0.03338544,0.,0.,-0.11750391,0.,0.,0.14978036,-0.32576786,
 0.15844203,0.,0.01463691,0.12296195,0.,-0.00869449,-0.14250644,0.,-0.2
 3791262,-0.06022400,0.,0.57202896,0.18170741,-0.32520338,0.,-0.0304941
 3,-0.11906447,0.,-0.00249336,-0.12029375,0.,-0.02958932,-0.15465861,0.
 ,-0.10194800,0.70800947,0.,0.,-0.09743019,0.,0.,0.02524136,0.,0.,0.043
 40944,0.,0.,-0.10737908,0.,0.,0.13103653,-0.39413383,-0.06121812,0.,-0
 .00070419,0.00146906,0.,0.00129597,0.00129194,0.,-0.00185948,0.0019209
 6,0.,-0.01405203,-0.00635043,0.,0.41006136,-0.05867192,-0.08146573,0.,
 -0.03822192,0.00281840,0.,-0.00032071,-0.00801352,0.,0.00717296,-0.002
 72856,0.,0.02613658,0.01563516,0.,0.06359928,0.07398268,0.,0.,-0.04383
 682,0.,0.,-0.00006391,0.,0.,0.00723095,0.,0.,0.01083473,0.,0.,-0.00371
 129,0.,0.,0.03090248,0.02118846,-0.01097672,0.,-0.15967001,0.15332015,
 0.,0.00184416,0.04159627,0.,-0.01368255,0.00291126,0.,-0.00023886,-0.0
 1083218,0.,-0.00060781,0.00030573,0.,0.15116661,0.01790702,-0.00671262
 ,0.,0.16531055,-0.46901962,0.,0.00119402,0.00663371,0.,-0.00451226,0.0
 0578971,0.,-0.00286213,-0.00442442,0.,-0.00071269,-0.00022843,0.,-0.17
 632451,0.46796167,0.,0.,-0.00989898,0.,0.,-0.00847229,0.,0.,-0.0135776
 7,0.,0.,0.00860582,0.,0.,0.00883324,0.,0.,-0.00135615,0.,0.,0.01586603
 \\0.00003412,-0.00000485,0.,-0.00002701,-0.00004389,0.,-0.00001344,-0.
 00004951,0.,0.00003626,0.00002190,0.,-0.00003731,0.00003484,0.,0.00001
 647,0.00000870,0.,-0.00000909,0.00003281,0.\\\@


 There ain't no surer way to find out whether you
 like people or hate them than to travel with them.
                                     -- Mark Twain
 Job cpu time:       0 days  0 hours  1 minutes  1.6 seconds.
 File lengths (MBytes):  RWF=     12 Int=      0 D2E=      0 Chk=      2 Scr=      1
 Normal termination of Gaussian 09 at Mon Nov 25 17:35:53 2013.
