 Entering Gaussian System, Link 0=g09
 Initial command:
 /usr/local/gaussian/g09.d01.em64t.legacy.linda/g09/l1.exe "/tmp/rdj3/g09-15973/Gau-14987.inp" -scrdir="/tmp/rdj3/g09-15973/"
 Entering Link 1 = /usr/local/gaussian/g09.d01.em64t.legacy.linda/g09/l1.exe PID=     14988.
  
 Copyright (c) 1988,1990,1992,1993,1995,1998,2003,2009,2013,
            Gaussian, Inc.  All Rights Reserved.
  
 This is part of the Gaussian(R) 09 program.  It is based on
 the Gaussian(R) 03 system (copyright 2003, Gaussian, Inc.),
 the Gaussian(R) 98 system (copyright 1998, Gaussian, Inc.),
 the Gaussian(R) 94 system (copyright 1995, Gaussian, Inc.),
 the Gaussian 92(TM) system (copyright 1992, Gaussian, Inc.),
 the Gaussian 90(TM) system (copyright 1990, Gaussian, Inc.),
 the Gaussian 88(TM) system (copyright 1988, Gaussian, Inc.),
 the Gaussian 86(TM) system (copyright 1986, Carnegie Mellon
 University), and the Gaussian 82(TM) system (copyright 1983,
 Carnegie Mellon University). Gaussian is a federally registered
 trademark of Gaussian, Inc.
  
 This software contains proprietary and confidential information,
 including trade secrets, belonging to Gaussian, Inc.
  
 This software is provided under written license and may be
 used, copied, transmitted, or stored only in accord with that
 written license.
  
 The following legend is applicable only to US Government
 contracts under FAR:
  
                    RESTRICTED RIGHTS LEGEND
  
 Use, reproduction and disclosure by the US Government is
 subject to restrictions as set forth in subparagraphs (a)
 and (c) of the Commercial Computer Software - Restricted
 Rights clause in FAR 52.227-19.
  
 Gaussian, Inc.
 340 Quinnipiac St., Bldg. 40, Wallingford CT 06492
  
  
 ---------------------------------------------------------------
 Warning -- This program may not be used in any manner that
 competes with the business of Gaussian, Inc. or will provide
 assistance to any competitor of Gaussian, Inc.  The licensee
 of this program is prohibited from giving any competitor of
 Gaussian, Inc. access to this program.  By using this program,
 the user acknowledges that Gaussian, Inc. is engaged in the
 business of creating and licensing software in the field of
 computational chemistry and represents and warrants to the
 licensee that it is not a competitor of Gaussian, Inc. and that
 it will not use this program in any manner prohibited above.
 ---------------------------------------------------------------
  

 Cite this work as:
 Gaussian 09, Revision D.01,
 M. J. Frisch, G. W. Trucks, H. B. Schlegel, G. E. Scuseria, 
 M. A. Robb, J. R. Cheeseman, G. Scalmani, V. Barone, B. Mennucci, 
 G. A. Petersson, H. Nakatsuji, M. Caricato, X. Li, H. P. Hratchian, 
 A. F. Izmaylov, J. Bloino, G. Zheng, J. L. Sonnenberg, M. Hada, 
 M. Ehara, K. Toyota, R. Fukuda, J. Hasegawa, M. Ishida, T. Nakajima, 
 Y. Honda, O. Kitao, H. Nakai, T. Vreven, J. A. Montgomery, Jr., 
 J. E. Peralta, F. Ogliaro, M. Bearpark, J. J. Heyd, E. Brothers, 
 K. N. Kudin, V. N. Staroverov, T. Keith, R. Kobayashi, J. Normand, 
 K. Raghavachari, A. Rendell, J. C. Burant, S. S. Iyengar, J. Tomasi, 
 M. Cossi, N. Rega, J. M. Millam, M. Klene, J. E. Knox, J. B. Cross, 
 V. Bakken, C. Adamo, J. Jaramillo, R. Gomperts, R. E. Stratmann, 
 O. Yazyev, A. J. Austin, R. Cammi, C. Pomelli, J. W. Ochterski, 
 R. L. Martin, K. Morokuma, V. G. Zakrzewski, G. A. Voth, 
 P. Salvador, J. J. Dannenberg, S. Dapprich, A. D. Daniels, 
 O. Farkas, J. B. Foresman, J. V. Ortiz, J. Cioslowski, 
 and D. J. Fox, Gaussian, Inc., Wallingford CT, 2013.
 
 ******************************************
 Gaussian 09:  EM64L-G09RevD.01 24-Apr-2013
                26-Nov-2013 
 ******************************************
 %Nproc=8
 Will use up to    8 processors via shared memory.
 %mem=436000000
 ------------------------------------------------
 #MP2=Full/6-31G(2df,p) opt=z-matrix freq density
 ------------------------------------------------
 1/10=7,18=40,38=1/1,3;
 2/12=2,17=6,18=5,29=3,40=1/2;
 3/5=1,6=6,7=104,11=9,16=1,25=1,30=1,71=1/1,2,3;
 4//1;
 5/5=2,38=5/2;
 8/6=4,10=90/1;
 9/15=2,16=-3/6;
 10/5=1/2;
 6/7=2,8=2,9=2,10=2,22=-1/1;
 7/12=2,29=1/1,2,3,16;
 1/10=7,18=40/3(2);
 2/29=3/2;
 99//99;
 2/29=3/2;
 3/5=1,6=6,7=104,11=9,16=1,25=1,30=1,71=1/1,2,3;
 4/5=5,16=3,69=1/1;
 5/5=2,38=5/2;
 8/6=4,10=90/1;
 9/15=2,16=-3/6;
 10/5=1/2;
 7/12=2/1,2,3,16;
 1/18=40/3(-8);
 2/29=3/2;
 6/7=2,8=2,9=2,10=2,22=-1/1;
 99//99;
 ------------------------------------------------------------------
 1H-tetrazole CH2N4 casno=288948 state=1 config=1 method=2 basis=19
 ------------------------------------------------------------------
 Symbolic Z-matrix:
 Charge =  0 Multiplicity = 1
 X
 X                    1     1. 
 C                    1     1.       2     90. 
 N                    1    rn1      2     90.      3    an1      0
 N                    1    rn2      2     90.      3    an2      0
 N                    1    rn3      2     90.      3    an3      0
 N                    1    rn4      2     90.      3    an4      0
 H                    3    rch      4    ach      5     180.     0
 H                    4    rnh      5    anh      6     180.     0
       Variables:
  rn1                   1.2426                   
  rn2                   1.333                    
  rn3                   1.1146                   
  rn4                   0.9264                   
  rch                   1.0678                   
  rnh                   0.9941                   
  an1                  71.8427                   
  an2                 133.7028                   
  an3                 194.4597                   
  an4                 276.0768                   
  ach                 125.0248                   
  anh                 120.7626                   
 

 GradGradGradGradGradGradGradGradGradGradGradGradGradGradGradGradGradGrad
 Berny optimization.
 Initialization pass.
                       ----------------------------
                       !    Initial Parameters    !
                       ! (Angstroms and Degrees)  !
 ----------------------                            ----------------------
 !      Name          Value   Derivative information (Atomic Units)     !
 ------------------------------------------------------------------------
 !       rn1         1.2426   estimate D2E/DX2                          !
 !       rn2         1.333    estimate D2E/DX2                          !
 !       rn3         1.1146   estimate D2E/DX2                          !
 !       rn4         0.9264   estimate D2E/DX2                          !
 !       rch         1.0678   estimate D2E/DX2                          !
 !       rnh         0.9941   estimate D2E/DX2                          !
 !       an1        71.8427   estimate D2E/DX2                          !
 !       an2       133.7028   estimate D2E/DX2                          !
 !       an3       194.4597   estimate D2E/DX2                          !
 !       an4       276.0768   estimate D2E/DX2                          !
 !       ach       125.0248   estimate D2E/DX2                          !
 !       anh       120.7626   estimate D2E/DX2                          !
 ------------------------------------------------------------------------
 Trust Radius=3.00D-01 FncErr=1.00D-07 GrdErr=1.00D-07
 Number of steps in this run=     22 maximum allowed number of steps=    100.
 GradGradGradGradGradGradGradGradGradGradGradGradGradGradGradGradGradGrad

 ---------------------------------------------------------------------------------------------------
                            Z-MATRIX (ANGSTROMS AND DEGREES)
   CD    Cent   Atom    N1       Length/X        N2       Alpha/Y        N3        Beta/Z          J
 ---------------------------------------------------------------------------------------------------
      1         X 
      2         X        1   1.000000(     1)
      3      1  C        1   1.000000(     2)      2   90.000(     9)
      4      2  N        1   1.242600(     3)      2   90.000(    10)      3   71.843(    16)      0
      5      3  N        1   1.333000(     4)      2   90.000(    11)      3  133.703(    17)      0
      6      4  N        1   1.114600(     5)      2   90.000(    12)      3  194.460(    18)      0
      7      5  N        1   0.926400(     6)      2   90.000(    13)      3  276.077(    19)      0
      8      6  H        3   1.067800(     7)      4  125.025(    14)      5  180.000(    20)      0
      9      7  H        4   0.994100(     8)      5  120.763(    15)      6  180.000(    21)      0
 ---------------------------------------------------------------------------------------------------
                         Z-Matrix orientation:                         
 ---------------------------------------------------------------------
 Center     Atomic      Atomic             Coordinates (Angstroms)
 Number     Number       Type             X           Y           Z
 ---------------------------------------------------------------------
      1         -1           0        0.000000    0.000000    0.000000
      2         -1           0        0.000000    0.000000    1.000000
      3          6           0        1.000000    0.000000    0.000000
      4          7           0        0.387228   -1.180724    0.000000
      5          7           0       -0.920993   -0.963670    0.000000
      6          7           0       -1.079293    0.278314    0.000000
      7          7           0        0.098070    0.921194    0.000000
      8          1           0        2.058429    0.141157    0.000000
      9          1           0        0.749017   -2.106652    0.000000
 ---------------------------------------------------------------------
                    Distance matrix (angstroms):
                    1          2          3          4          5
     1  X    0.000000
     2  X    1.000000   0.000000
     3  C    1.000000   1.414214   0.000000
     4  N    1.242600   1.595009   1.330263   0.000000
     5  N    1.333000   1.666400   2.149157   1.326105   0.000000
     6  N    1.114600   1.497442   2.097837   2.068690   1.252032
     7  N    0.926400   1.363164   1.289216   2.121715   2.142710
     8  H    2.063263   2.292827   1.067800   2.130794   3.177672
     9  H    2.235847   2.449288   2.121551   0.994100   2.023695
                    6          7          8          9
     6  N    0.000000
     7  N    1.341447   0.000000
     8  H    3.140719   2.109850   0.000000
     9  H    3.005127   3.097029   2.601385   0.000000
 Stoichiometry    CH2N4
 Framework group  CS[SG(CH2N4)]
 Deg. of freedom    11
 Full point group                 CS      NOp   2
 Largest Abelian subgroup         CS      NOp   2
 Largest concise Abelian subgroup C1      NOp   1
                         Standard orientation:                         
 ---------------------------------------------------------------------
 Center     Atomic      Atomic             Coordinates (Angstroms)
 Number     Number       Type             X           Y           Z
 ---------------------------------------------------------------------
      1          6           0        1.052733    0.225621    0.000000
      2          7           0        0.000000    1.038857    0.000000
      3          7           0       -1.095416    0.291448    0.000000
      4          7           0       -0.716382   -0.901832    0.000000
      5          7           0        0.622191   -0.989579    0.000000
      6          1           0        2.072287    0.542964    0.000000
      7          1           0       -0.061439    2.031056    0.000000
 ---------------------------------------------------------------------
 Rotational constants (GHZ):     10.9201517     10.7345054      5.4132664
 Standard basis: 6-31G(2df,p) (6D, 7F)
 There are   113 symmetry adapted cartesian basis functions of A'  symmetry.
 There are    52 symmetry adapted cartesian basis functions of A"  symmetry.
 There are   103 symmetry adapted basis functions of A'  symmetry.
 There are    47 symmetry adapted basis functions of A"  symmetry.
   150 basis functions,   234 primitive gaussians,   165 cartesian basis functions
    18 alpha electrons       18 beta electrons
       nuclear repulsion energy       169.8308489506 Hartrees.
 NAtoms=    7 NActive=    7 NUniq=    7 SFac= 1.00D+00 NAtFMM=   60 NAOKFM=F Big=F
 Integral buffers will be    131072 words long.
 Raffenetti 1 integral format.
 Two-electron integral symmetry is turned on.
 One-electron integrals computed using PRISM.
 NBasis=   150 RedAO= T EigKep=  2.73D-04  NBF=   103    47
 NBsUse=   150 1.00D-06 EigRej= -1.00D+00 NBFU=   103    47
 ExpMin= 1.61D-01 ExpMax= 4.17D+03 ExpMxC= 6.27D+02 IAcc=1 IRadAn=         1 AccDes= 0.00D+00
 Harris functional with IExCor=  205 and IRadAn=       1 diagonalized for initial guess.
 HarFok:  IExCor=  205 AccDes= 0.00D+00 IRadAn=         1 IDoV= 1 UseB2=F ITyADJ=14
 ICtDFT=  3500011 ScaDFX=  1.000000  1.000000  1.000000  1.000000
 FoFCou: FMM=F IPFlag=           0 FMFlag=      100000 FMFlg1=           0
         NFxFlg=           0 DoJE=T BraDBF=F KetDBF=T FulRan=T
         wScrn=  0.000000 ICntrl=     500 IOpCl=  0 I1Cent=   200000004 NGrid=           0
         NMat0=    1 NMatS0=      1 NMatT0=    0 NMatD0=    1 NMtDS0=    0 NMtDT0=    0
 Petite list used in FoFCou.
 Initial guess orbital symmetries:
       Occupied  (A') (A') (A') (A') (A') (A') (A') (A') (A') (A')
                 (A') (A') (A") (A') (A") (A") (A') (A')
       Virtual   (A") (A") (A') (A') (A') (A') (A') (A') (A') (A')
                 (A") (A') (A') (A') (A') (A') (A") (A') (A") (A")
                 (A') (A') (A") (A") (A') (A') (A') (A") (A") (A')
                 (A') (A") (A") (A') (A') (A') (A') (A") (A") (A')
                 (A') (A') (A") (A') (A') (A") (A') (A') (A') (A")
                 (A') (A') (A') (A') (A') (A") (A') (A') (A") (A')
                 (A") (A') (A') (A") (A') (A") (A') (A") (A') (A')
                 (A') (A") (A') (A") (A') (A") (A') (A') (A') (A")
                 (A') (A') (A") (A') (A') (A") (A') (A') (A") (A")
                 (A") (A') (A') (A") (A") (A") (A') (A") (A") (A')
                 (A") (A') (A') (A") (A') (A") (A") (A') (A") (A')
                 (A") (A') (A') (A') (A') (A') (A') (A') (A") (A')
                 (A') (A') (A') (A') (A') (A') (A') (A') (A') (A')
                 (A') (A')
 The electronic state of the initial guess is 1-A'.
 Keep R1 ints in memory in symmetry-blocked form, NReq=97005431.
 Requested convergence on RMS density matrix=1.00D-08 within 128 cycles.
 Requested convergence on MAX density matrix=1.00D-06.
 Requested convergence on             energy=1.00D-06.
 No special actions if energy rises.
 SCF Done:  E(RHF) =  -256.781975392     A.U. after   14 cycles
            NFock= 14  Conv=0.89D-08     -V/T= 2.0006
 Range of M.O.s used for correlation:     1   150
 NBasis=   150 NAE=    18 NBE=    18 NFC=     0 NFV=     0
 NROrb=    150 NOA=    18 NOB=    18 NVA=   132 NVB=   132

 **** Warning!!: The largest alpha MO coefficient is  0.37963108D+02

 Fully direct method using O(ONN) memory.
 JobTyp=1 Pass  1:  I=   1 to  18 NPSUse=  8 ParTrn=T ParDer=T DoDerP=T.
 Spin components of T(2) and E(2):
     alpha-alpha T2 =       0.3948801475D-01 E2=     -0.1251075106D+00
     alpha-beta  T2 =       0.2003407614D+00 E2=     -0.7009850307D+00
     beta-beta   T2 =       0.3948801475D-01 E2=     -0.1251075106D+00
 ANorm=    0.1131068871D+01
 E2 =    -0.9512000519D+00 EUMP2 =    -0.25773317544344D+03
          IDoAtm=1111111
          Differentiating once with respect to electric field.
                with respect to dipole field.
          Differentiating once with respect to nuclear coordinates.
 Keep R1 ints in memory in symmetry-blocked form, NReq=96904189.
          There are     1 degrees of freedom in the 1st order CPHF.  IDoFFX=0 NUNeed=     1.
 LinEq1:  Iter=  0 NonCon=     1 RMS=4.88D-03 Max=7.70D-02 NDo=     1
 AX will form     1 AO Fock derivatives at one time.
 LinEq1:  Iter=  1 NonCon=     1 RMS=1.13D-03 Max=2.02D-02 NDo=     1
 LinEq1:  Iter=  2 NonCon=     1 RMS=4.44D-04 Max=1.07D-02 NDo=     1
 LinEq1:  Iter=  3 NonCon=     1 RMS=1.19D-04 Max=1.58D-03 NDo=     1
 LinEq1:  Iter=  4 NonCon=     1 RMS=4.86D-05 Max=1.08D-03 NDo=     1
 LinEq1:  Iter=  5 NonCon=     1 RMS=1.59D-05 Max=3.30D-04 NDo=     1
 LinEq1:  Iter=  6 NonCon=     1 RMS=5.87D-06 Max=1.14D-04 NDo=     1
 LinEq1:  Iter=  7 NonCon=     1 RMS=2.99D-06 Max=7.36D-05 NDo=     1
 LinEq1:  Iter=  8 NonCon=     1 RMS=7.85D-07 Max=1.65D-05 NDo=     1
 LinEq1:  Iter=  9 NonCon=     1 RMS=3.78D-07 Max=8.92D-06 NDo=     1
 LinEq1:  Iter= 10 NonCon=     1 RMS=9.45D-08 Max=1.04D-06 NDo=     1
 LinEq1:  Iter= 11 NonCon=     1 RMS=3.13D-08 Max=3.04D-07 NDo=     1
 LinEq1:  Iter= 12 NonCon=     1 RMS=1.28D-08 Max=1.64D-07 NDo=     1
 LinEq1:  Iter= 13 NonCon=     1 RMS=2.60D-09 Max=4.21D-08 NDo=     1
 LinEq1:  Iter= 14 NonCon=     1 RMS=5.03D-10 Max=8.53D-09 NDo=     1
 LinEq1:  Iter= 15 NonCon=     1 RMS=8.93D-11 Max=1.26D-09 NDo=     1
 LinEq1:  Iter= 16 NonCon=     0 RMS=1.49D-11 Max=1.83D-10 NDo=     1
 Linear equations converged to 1.000D-10 1.000D-09 after    16 iterations.
 End of Minotr F.D. properties file   721 does not exist.
 End of Minotr F.D. properties file   722 does not exist.
 End of Minotr F.D. properties file   788 does not exist.

 **********************************************************************

            Population analysis using the MP2 density.

 **********************************************************************

 Orbital symmetries:
       Occupied  (A') (A') (A') (A') (A') (A') (A') (A') (A') (A')
                 (A') (A") (A') (A') (A') (A') (A") (A")
       Virtual   (A") (A') (A") (A') (A') (A') (A') (A') (A') (A")
                 (A') (A') (A') (A') (A') (A") (A') (A') (A") (A")
                 (A') (A') (A') (A") (A") (A') (A") (A') (A") (A')
                 (A') (A") (A") (A') (A') (A') (A') (A") (A") (A')
                 (A') (A") (A') (A") (A') (A') (A') (A') (A") (A')
                 (A') (A') (A') (A') (A') (A") (A') (A') (A") (A')
                 (A') (A") (A') (A") (A') (A") (A') (A") (A') (A')
                 (A") (A') (A') (A") (A') (A") (A') (A') (A") (A')
                 (A') (A') (A") (A') (A') (A") (A') (A') (A") (A")
                 (A") (A') (A') (A") (A") (A") (A') (A") (A") (A')
                 (A") (A') (A") (A') (A') (A") (A") (A') (A") (A')
                 (A") (A') (A') (A') (A') (A') (A') (A') (A") (A')
                 (A') (A') (A') (A') (A') (A') (A') (A') (A') (A')
                 (A') (A')
 The electronic state is 1-A'.
 Alpha  occ. eigenvalues --  -15.67694 -15.65533 -15.63717 -15.59501 -11.33098
 Alpha  occ. eigenvalues --   -1.51418  -1.26068  -1.20376  -0.90893  -0.89102
 Alpha  occ. eigenvalues --   -0.80413  -0.68588  -0.67869  -0.56876  -0.47117
 Alpha  occ. eigenvalues --   -0.46054  -0.45442  -0.42019
 Alpha virt. eigenvalues --    0.15452   0.20226   0.20368   0.25787   0.36214
 Alpha virt. eigenvalues --    0.39104   0.43047   0.47997   0.59677   0.65004
 Alpha virt. eigenvalues --    0.65543   0.67613   0.73907   0.76349   0.77254
 Alpha virt. eigenvalues --    0.80907   0.83483   0.84638   0.87322   0.91300
 Alpha virt. eigenvalues --    0.92457   0.95231   0.99232   1.00950   1.03523
 Alpha virt. eigenvalues --    1.06619   1.08040   1.09300   1.09898   1.12664
 Alpha virt. eigenvalues --    1.19974   1.31204   1.32394   1.32867   1.47573
 Alpha virt. eigenvalues --    1.49322   1.52102   1.60808   1.61988   1.68116
 Alpha virt. eigenvalues --    1.73541   1.74594   1.81414   1.87782   1.88154
 Alpha virt. eigenvalues --    1.90825   1.96013   1.98452   2.04964   2.07402
 Alpha virt. eigenvalues --    2.22390   2.24104   2.33958   2.42119   2.48980
 Alpha virt. eigenvalues --    2.52557   2.64913   2.77318   2.88788   3.11887
 Alpha virt. eigenvalues --    3.22888   3.23295   3.26087   3.32410   3.40432
 Alpha virt. eigenvalues --    3.43701   3.47204   3.54681   3.57858   3.64866
 Alpha virt. eigenvalues --    3.69379   3.71708   3.74253   3.77407   3.83343
 Alpha virt. eigenvalues --    3.84752   3.95631   3.98881   4.08073   4.09628
 Alpha virt. eigenvalues --    4.16194   4.22530   4.30911   4.31835   4.39859
 Alpha virt. eigenvalues --    4.41631   4.43043   4.45180   4.54007   4.56270
 Alpha virt. eigenvalues --    4.59856   4.62097   4.66045   4.72767   4.81441
 Alpha virt. eigenvalues --    4.86541   4.90444   4.92356   4.94673   4.95644
 Alpha virt. eigenvalues --    4.96289   4.99106   5.00266   5.02619   5.08173
 Alpha virt. eigenvalues --    5.22738   5.24599   5.28734   5.29738   5.39628
 Alpha virt. eigenvalues --    5.41521   5.46633   5.49462   5.62382   5.67998
 Alpha virt. eigenvalues --    5.79077   5.91001   5.96121   5.97781   6.04669
 Alpha virt. eigenvalues --    6.19464   6.25639   6.71644   6.86899   8.47285
 Alpha virt. eigenvalues --   10.82041  11.88248  11.90292  11.97226  12.09953
 Alpha virt. eigenvalues --   16.59474  19.75195
          Condensed to atoms (all electrons):
               1          2          3          4          5          6
     1  C    5.016073   0.374443  -0.098624  -0.122075   0.471613   0.389688
     2  N    0.374443   6.384981   0.302866  -0.117770  -0.045032  -0.031508
     3  N   -0.098624   0.302866   6.591194   0.412695  -0.141510   0.002853
     4  N   -0.122075  -0.117770   0.412695   6.502614   0.403232   0.003986
     5  N    0.471613  -0.045032  -0.141510   0.403232   6.498497  -0.020291
     6  H    0.389688  -0.031508   0.002853   0.003986  -0.020291   0.459137
     7  H   -0.027846   0.346001  -0.021244   0.005262   0.006057   0.000147
               7
     1  C   -0.027846
     2  N    0.346001
     3  N   -0.021244
     4  N    0.005262
     5  N    0.006057
     6  H    0.000147
     7  H    0.361620
 Mulliken charges:
               1
     1  C   -0.003272
     2  N   -0.213980
     3  N   -0.048230
     4  N   -0.087945
     5  N   -0.172565
     6  H    0.195990
     7  H    0.330002
 Sum of Mulliken charges =   0.00000
 Mulliken charges with hydrogens summed into heavy atoms:
               1
     1  C    0.192718
     2  N    0.116022
     3  N   -0.048230
     4  N   -0.087945
     5  N   -0.172565
 Electronic spatial extent (au):  <R**2>=            244.0302
 Charge=              0.0000 electrons
 Dipole moment (field-independent basis, Debye):
    X=              2.4405    Y=              4.7292    Z=              0.0000  Tot=              5.3218
 Quadrupole moment (field-independent basis, Debye-Ang):
   XX=            -28.7586   YY=            -26.0638   ZZ=            -28.0971
   XY=              1.6755   XZ=              0.0000   YZ=              0.0000
 Traceless Quadrupole moment (field-independent basis, Debye-Ang):
   XX=             -1.1188   YY=              1.5760   ZZ=             -0.4573
   XY=              1.6755   XZ=              0.0000   YZ=              0.0000
 Octapole moment (field-independent basis, Debye-Ang**2):
  XXX=             11.3303  YYY=             21.8503  ZZZ=              0.0000  XYY=             -0.5054
  XXY=              4.3339  XXZ=              0.0000  XZZ=             -0.6620  YZZ=              0.5125
  YYZ=              0.0000  XYZ=              0.0000
 Hexadecapole moment (field-independent basis, Debye-Ang**3):
 XXXX=           -138.7093 YYYY=           -115.8030 ZZZZ=            -24.4106 XXXY=              6.1659
 XXXZ=              0.0000 YYYX=             -0.5913 YYYZ=              0.0000 ZZZX=              0.0000
 ZZZY=              0.0000 XXYY=            -51.9191 XXZZ=            -29.2710 YYZZ=            -27.5204
 XXYZ=              0.0000 YYXZ=              0.0000 ZZXY=             -0.1831
 N-N= 1.698308489506D+02 E-N=-9.420648437887D+02  KE= 2.576351866166D+02
 Symmetry A'   KE= 2.480714046958D+02
 Symmetry A"   KE= 9.563781920868D+00
 Calling FoFJK, ICntrl=  10002127 FMM=F ISym2X=1 I1Cent= 0 IOpClX= 0 NMat=1 NMatS=1 NMatT=0.
 ***** Axes restored to original set *****
 -------------------------------------------------------------------
 Center     Atomic                   Forces (Hartrees/Bohr)
 Number     Number              X              Y              Z
 -------------------------------------------------------------------
      1        6           0.024289049   -0.011635849    0.000000000
      2        7           0.007206246   -0.004101266    0.000000000
      3        7          -0.009476259   -0.059695114    0.000000000
      4        7          -0.023395029    0.051507907    0.000000000
      5        7          -0.006845264    0.034959259    0.000000000
      6        1           0.004797872   -0.000041267    0.000000000
      7        1           0.003423386   -0.010993670    0.000000000
 -------------------------------------------------------------------
 Cartesian Forces:  Max     0.059695114 RMS     0.020785077
 -----------------------------------------------------------------------------------------------
                       Internal Coordinate Forces (Hartree/Bohr or radian)
  Cent   Atom   N1       Length/X         N2         Alpha/Y        N3         Beta/Z          J
 -----------------------------------------------------------------------------------------------
         X 
         X        1   0.000000(     1)
      1  C        1   0.029568(     2)      2   0.000000(     9)
      2  N        1   0.017808(     3)      2   0.000000(    10)      3  -0.011119(    16)     0
      3  N        1   0.049200(     4)      2   0.000000(    11)      3  -0.085774(    17)     0
      4  N        1   0.035515(     5)      2   0.000000(    12)      3   0.092750(    18)     0
      5  N        1   0.034038(     6)      2   0.000000(    13)      3  -0.018395(    19)     0
      6  H        3   0.004750(     7)      4  -0.001362(    14)      5   0.000000(    20)     0
      7  H        4   0.011486(     8)      5  -0.001526(    15)      6   0.000000(    21)     0
 -----------------------------------------------------------------------------------------------
 Internal  Forces:  Max     0.092749587 RMS     0.032814251

 GradGradGradGradGradGradGradGradGradGradGradGradGradGradGradGradGradGrad
 Berny optimization.
 Search for a local minimum.
 Step number   1 out of a maximum of   22
 All quantities printed in internal units (Hartrees-Bohrs-Radians)
 Second derivative matrix not updated -- first step.
 The second derivative matrix:
                          rn1       rn2       rn3       rn4       rch
           rn1          0.65186
           rn2          0.01318   0.69869
           rn3          0.03472   0.07334   0.58262
           rn4          0.03688   0.02662   0.13967   0.63921
           rch          0.00000   0.00000   0.00000   0.00000   0.37510
           rnh          0.00000   0.00000   0.00000   0.00000   0.00000
           an1          0.02012  -0.75016   0.04258  -0.08486   0.00000
           an2          0.72119  -0.31234  -0.71865   0.05436   0.00000
           an3         -0.02914   1.04797   0.05412  -0.58583   0.00000
           an4          0.05328  -0.03228   0.65851  -0.10009   0.00000
           ach          0.04546   0.00000   0.00000   0.05066   0.00000
           anh         -0.10206   0.05276   0.00000   0.00000   0.00000
                          rnh       an1       an2       an3       an4
           rnh          0.48741
           an1          0.00000   4.53257
           an2          0.00000  -2.68051   6.02300
           an3          0.00000  -0.03573  -3.19618   4.47465
           an4          0.00000  -0.12258  -0.06592  -1.16042   2.58479
           ach          0.00000  -0.10460   0.00000   0.00000   0.07318
           anh          0.00000   0.03519  -0.09059   0.00000   0.00000
                          ach       anh
           ach          0.32000
           anh          0.00000   0.32000
 ITU=  0
     Eigenvalues ---    0.00000   0.13346   0.26445   0.33044   0.37510
     Eigenvalues ---    0.40158   0.48741   0.75609   1.20990   2.99509
     Eigenvalues ---    5.09563   9.64077
 RFO step:  Lambda=-8.01066160D-03 EMin=-6.95624114D-16
 Linear search not attempted -- first point.
 Variable       Old X    -DE/DX   Delta X   Delta X   Delta X     New X
                                 (Linear)    (Quad)   (Total)
   rn1        2.34817   0.01781   0.00000   0.02253   0.02253   2.37070
   rn2        2.51900   0.04920   0.00000   0.05429   0.05429   2.57330
   rn3        2.10629   0.03552   0.00000   0.05599   0.05599   2.16228
   rn4        1.75064   0.03404   0.00000   0.04401   0.04401   1.79466
   rch        2.01785   0.00475   0.00000   0.01240   0.01240   2.03025
   rnh        1.87858   0.01149   0.00000   0.02318   0.02318   1.90176
   an1        1.25389  -0.01112   0.00000   0.00563   0.00563   1.25952
   an2        2.33355  -0.08577   0.00000  -0.00102  -0.00102   2.33253
   an3        3.39396   0.09275   0.00000   0.00865   0.00865   3.40261
   an4        4.81845  -0.01840   0.00000  -0.01504  -0.01504   4.80341
   ach        2.18209  -0.00136   0.00000  -0.00892  -0.00892   2.17317
   anh        2.10770  -0.00153   0.00000  -0.00726  -0.00726   2.10044
         Item               Value     Threshold  Converged?
 Maximum Force            0.092750     0.000450     NO 
 RMS     Force            0.042562     0.000300     NO 
 Maximum Displacement     0.055989     0.001800     NO 
 RMS     Displacement     0.028408     0.001200     NO 
 Predicted change in Energy=-4.044119D-03
 GradGradGradGradGradGradGradGradGradGradGradGradGradGradGradGradGradGrad

 ---------------------------------------------------------------------------------------------------
                            Z-MATRIX (ANGSTROMS AND DEGREES)
   CD    Cent   Atom    N1       Length/X        N2       Alpha/Y        N3        Beta/Z          J
 ---------------------------------------------------------------------------------------------------
      1         X 
      2         X        1   1.000000(     1)
      3      1  C        1   1.000000(     2)      2   90.000(     9)
      4      2  N        1   1.254521(     3)      2   90.000(    10)      3   72.165(    16)      0
      5      3  N        1   1.361730(     4)      2   90.000(    11)      3  133.644(    17)      0
      6      4  N        1   1.144228(     5)      2   90.000(    12)      3  194.955(    18)      0
      7      5  N        1   0.949691(     6)      2   90.000(    13)      3  275.215(    19)      0
      8      6  H        3   1.074362(     7)      4  124.514(    14)      5  180.000(    20)      0
      9      7  H        4   1.006368(     8)      5  120.347(    15)      6  180.000(    21)      0
 ---------------------------------------------------------------------------------------------------
                         Z-Matrix orientation:                         
 ---------------------------------------------------------------------
 Center     Atomic      Atomic             Coordinates (Angstroms)
 Number     Number       Type             X           Y           Z
 ---------------------------------------------------------------------
      1         -1           0        0.000000    0.000000    0.000000
      2         -1           0        0.000000    0.000000    1.000000
      3          6           0        1.000000    0.000000    0.000000
      4          7           0        0.384226   -1.194234    0.000000
      5          7           0       -0.939839   -0.985398    0.000000
      6          7           0       -1.105471    0.295280    0.000000
      7          7           0        0.086320    0.945760    0.000000
      8          1           0        2.065803    0.135340    0.000000
      9          1           0        0.751158   -2.131324    0.000000
 ---------------------------------------------------------------------
                    Distance matrix (angstroms):
                    1          2          3          4          5
     1  X    0.000000
     2  X    1.000000   0.000000
     3  C    1.000000   1.414214   0.000000
     4  N    1.254521   1.604314   1.343641   0.000000
     5  N    1.361730   1.689470   2.175772   1.340433   0.000000
     6  N    1.144228   1.519624   2.126076   2.106621   1.291345
     7  N    0.949691   1.379098   1.315018   2.160629   2.186864
     8  H    2.070231   2.299099   1.074362   2.143704   3.207793
     9  H    2.259819   2.471190   2.145802   1.006368   2.042698
                    6          7          8          9
     6  N    0.000000
     7  N    1.357752   0.000000
     8  H    3.175305   2.138955   0.000000
     9  H    3.055402   3.148087   2.620316   0.000000
 Stoichiometry    CH2N4
 Framework group  CS[SG(CH2N4)]
 Deg. of freedom    11
 Full point group                 CS      NOp   2
 Largest Abelian subgroup         CS      NOp   2
 Largest concise Abelian subgroup C1      NOp   1
                         Standard orientation:                         
 ---------------------------------------------------------------------
 Center     Atomic      Atomic             Coordinates (Angstroms)
 Number     Number       Type             X           Y           Z
 ---------------------------------------------------------------------
      1          6           0        1.062497    0.232493    0.000000
      2          7           0        0.000000    1.054972    0.000000
      3          7           0       -1.112016    0.306519    0.000000
      4          7           0       -0.721324   -0.924307    0.000000
      5          7           0        0.633681   -1.010644    0.000000
      6          1           0        2.085755    0.559901    0.000000
      7          1           0       -0.063125    2.059358    0.000000
 ---------------------------------------------------------------------
 Rotational constants (GHZ):     10.5893626     10.3803720      5.2419129
 Standard basis: 6-31G(2df,p) (6D, 7F)
 There are   113 symmetry adapted cartesian basis functions of A'  symmetry.
 There are    52 symmetry adapted cartesian basis functions of A"  symmetry.
 There are   103 symmetry adapted basis functions of A'  symmetry.
 There are    47 symmetry adapted basis functions of A"  symmetry.
   150 basis functions,   234 primitive gaussians,   165 cartesian basis functions
    18 alpha electrons       18 beta electrons
       nuclear repulsion energy       167.1004309573 Hartrees.
 NAtoms=    7 NActive=    7 NUniq=    7 SFac= 1.00D+00 NAtFMM=   60 NAOKFM=F Big=F
 Integral buffers will be    131072 words long.
 Raffenetti 1 integral format.
 Two-electron integral symmetry is turned on.
 One-electron integrals computed using PRISM.
 NBasis=   150 RedAO= T EigKep=  2.95D-04  NBF=   103    47
 NBsUse=   150 1.00D-06 EigRej= -1.00D+00 NBFU=   103    47
 Initial guess from the checkpoint file:  "/tmp/rdj3/g09-15973/Gau-14988.chk"
 B after Tr=     0.000000    0.000000    0.000000
         Rot=    1.000000    0.000000    0.000000   -0.000456 Ang=  -0.05 deg.
 Initial guess orbital symmetries:
       Occupied  (A') (A') (A') (A') (A') (A') (A') (A') (A') (A')
                 (A') (A") (A') (A') (A') (A') (A") (A")
       Virtual   (A') (A') (A') (A') (A') (A') (A') (A') (A') (A')
                 (A') (A') (A') (A') (A') (A') (A') (A') (A') (A')
                 (A') (A') (A') (A') (A') (A') (A') (A') (A') (A')
                 (A') (A') (A') (A') (A') (A') (A') (A') (A') (A')
                 (A') (A') (A') (A') (A') (A') (A') (A') (A') (A')
                 (A') (A') (A') (A') (A') (A') (A') (A') (A') (A')
                 (A') (A') (A') (A') (A') (A') (A') (A') (A') (A')
                 (A') (A') (A') (A') (A') (A') (A') (A') (A') (A')
                 (A') (A') (A') (A') (A') (A') (A') (A') (A") (A")
                 (A") (A") (A") (A") (A") (A") (A") (A") (A") (A")
                 (A") (A") (A") (A") (A") (A") (A") (A") (A") (A")
                 (A") (A") (A") (A") (A") (A") (A") (A") (A") (A")
                 (A") (A") (A") (A") (A") (A") (A") (A") (A") (A")
                 (A") (A")
 ExpMin= 1.61D-01 ExpMax= 4.17D+03 ExpMxC= 6.27D+02 IAcc=1 IRadAn=         1 AccDes= 0.00D+00
 Harris functional with IExCor=  205 and IRadAn=       1 diagonalized for initial guess.
 HarFok:  IExCor=  205 AccDes= 0.00D+00 IRadAn=         1 IDoV= 1 UseB2=F ITyADJ=14
 ICtDFT=  3500011 ScaDFX=  1.000000  1.000000  1.000000  1.000000
 FoFCou: FMM=F IPFlag=           0 FMFlag=      100000 FMFlg1=           0
         NFxFlg=           0 DoJE=T BraDBF=F KetDBF=T FulRan=T
         wScrn=  0.000000 ICntrl=     500 IOpCl=  0 I1Cent=   200000004 NGrid=           0
         NMat0=    1 NMatS0=      1 NMatT0=    0 NMatD0=    1 NMtDS0=    0 NMtDT0=    0
 Petite list used in FoFCou.
 Keep R1 ints in memory in symmetry-blocked form, NReq=97005431.
 Requested convergence on RMS density matrix=1.00D-08 within 128 cycles.
 Requested convergence on MAX density matrix=1.00D-06.
 Requested convergence on             energy=1.00D-06.
 No special actions if energy rises.
 SCF Done:  E(RHF) =  -256.777521167     A.U. after   13 cycles
            NFock= 13  Conv=0.33D-08     -V/T= 2.0021
 Range of M.O.s used for correlation:     1   150
 NBasis=   150 NAE=    18 NBE=    18 NFC=     0 NFV=     0
 NROrb=    150 NOA=    18 NOB=    18 NVA=   132 NVB=   132

 **** Warning!!: The largest alpha MO coefficient is  0.36703515D+02

 Fully direct method using O(ONN) memory.
 JobTyp=1 Pass  1:  I=   1 to  18 NPSUse=  8 ParTrn=T ParDer=T DoDerP=T.
 Spin components of T(2) and E(2):
     alpha-alpha T2 =       0.4093698858D-01 E2=     -0.1262735221D+00
     alpha-beta  T2 =       0.2077055681D+00 E2=     -0.7076530721D+00
     beta-beta   T2 =       0.4093698858D-01 E2=     -0.1262735221D+00
 ANorm=    0.1135596559D+01
 E2 =    -0.9602001163D+00 EUMP2 =    -0.25773772128303D+03
          IDoAtm=1111111
          Differentiating once with respect to electric field.
                with respect to dipole field.
          Differentiating once with respect to nuclear coordinates.
 Keep R1 ints in memory in symmetry-blocked form, NReq=96904189.
          There are     1 degrees of freedom in the 1st order CPHF.  IDoFFX=0 NUNeed=     1.
 LinEq1:  Iter=  0 NonCon=     1 RMS=5.04D-03 Max=7.46D-02 NDo=     1
 AX will form     1 AO Fock derivatives at one time.
 LinEq1:  Iter=  1 NonCon=     1 RMS=1.19D-03 Max=2.04D-02 NDo=     1
 LinEq1:  Iter=  2 NonCon=     1 RMS=4.80D-04 Max=1.23D-02 NDo=     1
 LinEq1:  Iter=  3 NonCon=     1 RMS=1.37D-04 Max=1.46D-03 NDo=     1
 LinEq1:  Iter=  4 NonCon=     1 RMS=5.57D-05 Max=1.06D-03 NDo=     1
 LinEq1:  Iter=  5 NonCon=     1 RMS=1.73D-05 Max=3.92D-04 NDo=     1
 LinEq1:  Iter=  6 NonCon=     1 RMS=5.93D-06 Max=1.18D-04 NDo=     1
 LinEq1:  Iter=  7 NonCon=     1 RMS=3.42D-06 Max=1.03D-04 NDo=     1
 LinEq1:  Iter=  8 NonCon=     1 RMS=9.79D-07 Max=1.41D-05 NDo=     1
 LinEq1:  Iter=  9 NonCon=     1 RMS=5.52D-07 Max=1.40D-05 NDo=     1
 LinEq1:  Iter= 10 NonCon=     1 RMS=1.28D-07 Max=1.18D-06 NDo=     1
 LinEq1:  Iter= 11 NonCon=     1 RMS=5.15D-08 Max=6.35D-07 NDo=     1
 LinEq1:  Iter= 12 NonCon=     1 RMS=1.90D-08 Max=2.68D-07 NDo=     1
 LinEq1:  Iter= 13 NonCon=     1 RMS=3.67D-09 Max=6.32D-08 NDo=     1
 LinEq1:  Iter= 14 NonCon=     1 RMS=7.11D-10 Max=9.47D-09 NDo=     1
 LinEq1:  Iter= 15 NonCon=     1 RMS=1.29D-10 Max=1.48D-09 NDo=     1
 LinEq1:  Iter= 16 NonCon=     0 RMS=2.31D-11 Max=2.98D-10 NDo=     1
 Linear equations converged to 1.000D-10 1.000D-09 after    16 iterations.
 End of Minotr F.D. properties file   721 does not exist.
 End of Minotr F.D. properties file   722 does not exist.
 End of Minotr F.D. properties file   788 does not exist.
 Calling FoFJK, ICntrl=  10002127 FMM=F ISym2X=1 I1Cent= 0 IOpClX= 0 NMat=1 NMatS=1 NMatT=0.
 ***** Axes restored to original set *****
 -------------------------------------------------------------------
 Center     Atomic                   Forces (Hartrees/Bohr)
 Number     Number              X              Y              Z
 -------------------------------------------------------------------
      1        6           0.004645800   -0.004328427    0.000000000
      2        7          -0.000712502    0.007032884    0.000000000
      3        7           0.000222364   -0.019046565    0.000000000
      4        7          -0.001997351    0.015877341    0.000000000
      5        7          -0.001976803    0.000724176    0.000000000
      6        1          -0.000014883   -0.000049193    0.000000000
      7        1          -0.000166625   -0.000210217    0.000000000
 -------------------------------------------------------------------
 Cartesian Forces:  Max     0.019046565 RMS     0.005829707
 -----------------------------------------------------------------------------------------------
                       Internal Coordinate Forces (Hartree/Bohr or radian)
  Cent   Atom   N1       Length/X         N2         Alpha/Y        N3         Beta/Z          J
 -----------------------------------------------------------------------------------------------
         X 
         X        1   0.000000(     1)
      1  C        1   0.004664(     2)      2   0.000000(     9)
      2  N        1  -0.006635(     3)      2   0.000000(    10)      3  -0.002721(    16)     0
      3  N        1   0.013486(     4)      2   0.000000(    11)      3  -0.033987(    17)     0
      4  N        1   0.006027(     5)      2   0.000000(    12)      3   0.032054(    18)     0
      5  N        1   0.000542(     6)      2   0.000000(    13)      3  -0.003651(    19)     0
      6  H        3  -0.000021(     7)      4  -0.000095(    14)      5   0.000000(    20)     0
      7  H        4   0.000135(     8)      5  -0.000441(    15)      6   0.000000(    21)     0
 -----------------------------------------------------------------------------------------------
 Internal  Forces:  Max     0.033986674 RMS     0.010884194

 GradGradGradGradGradGradGradGradGradGradGradGradGradGradGradGradGradGrad
 Berny optimization.
 Search for a local minimum.
 Step number   2 out of a maximum of   22
 All quantities printed in internal units (Hartrees-Bohrs-Radians)
 Update second derivatives using D2CorN and points    1    2
 DE= -4.55D-03 DEPred=-4.04D-03 R= 1.12D+00
 TightC=F SS=  1.41D+00  RLast= 9.84D-02 DXNew= 5.0454D-01 2.9522D-01
 Trust test= 1.12D+00 RLast= 9.84D-02 DXMaxT set to 3.00D-01
 The second derivative matrix:
                          rn1       rn2       rn3       rn4       rch
           rn1          0.66772
           rn2          0.01710   0.62552
           rn3          0.04793   0.01998   0.55037
           rn4          0.05215  -0.00357   0.12645   0.63836
           rch          0.00450  -0.00802  -0.00322   0.00015   0.37525
           rnh          0.00822  -0.01548  -0.00653  -0.00011   0.00018
           an1          0.02532  -0.74620   0.04896  -0.07862   0.00181
           an2          0.76035  -0.21640  -0.62013   0.13158   0.02175
           an3         -0.06330   0.95249  -0.04083  -0.65859  -0.02042
           an4          0.05209  -0.01225   0.67305  -0.09192   0.00217
           ach          0.04235   0.00608   0.00264   0.05080  -0.00004
           anh         -0.10417   0.05872   0.00320   0.00094   0.00020
                          rnh       an1       an2       an3       an4
           rnh          0.48753
           an1          0.00333   4.53418
           an2          0.04067  -2.67078   6.01942
           an3         -0.03826  -0.04380  -3.17934   4.44610
           an4          0.00419  -0.12370  -0.09250  -1.13401   2.57931
           ach          0.00001  -0.10586  -0.01565   0.01474   0.07153
           anh          0.00044   0.03426  -0.10335   0.01216  -0.00162
                          ach       anh
           ach          0.31998
           anh         -0.00019   0.31971
 ITU=  1  0
     Eigenvalues ---    0.00000   0.11913   0.26371   0.32689   0.37499
     Eigenvalues ---    0.39428   0.48721   0.74027   1.20627   2.98874
     Eigenvalues ---    5.06621   9.59575
 RFO step:  Lambda=-4.36597501D-04 EMin=-6.72971302D-07
 Quartic linear search produced a step of  0.22005.
 Variable       Old X    -DE/DX   Delta X   Delta X   Delta X     New X
                                 (Linear)    (Quad)   (Total)
   rn1        2.37070  -0.00664   0.00496  -0.14483  -0.13987   2.23083
   rn2        2.57330   0.01349   0.01195  -0.07340  -0.06145   2.51185
   rn3        2.16228   0.00603   0.01232   0.04388   0.05620   2.21848
   rn4        1.79466   0.00054   0.00969   0.11589   0.12558   1.92023
   rch        2.03025  -0.00002   0.00273  -0.00161   0.00112   2.03137
   rnh        1.90176   0.00013   0.00510  -0.00305   0.00206   1.90382
   an1        1.25952  -0.00272   0.00124   0.05540   0.05663   1.31616
   an2        2.33253  -0.03399  -0.00022   0.10575   0.10553   2.43806
   an3        3.40261   0.03205   0.00190   0.12605   0.12796   3.53056
   an4        4.80341  -0.00365  -0.00331   0.05666   0.05335   4.85676
   ach        2.17317  -0.00010  -0.00196   0.00689   0.00492   2.17809
   anh        2.10044  -0.00044  -0.00160  -0.01176  -0.01336   2.08709
         Item               Value     Threshold  Converged?
 Maximum Force            0.033987     0.000450     NO 
 RMS     Force            0.014335     0.000300     NO 
 Maximum Displacement     0.139873     0.001800     NO 
 RMS     Displacement     0.079603     0.001200     NO 
 Predicted change in Energy=-3.136515D-04
 GradGradGradGradGradGradGradGradGradGradGradGradGradGradGradGradGradGrad

 ---------------------------------------------------------------------------------------------------
                            Z-MATRIX (ANGSTROMS AND DEGREES)
   CD    Cent   Atom    N1       Length/X        N2       Alpha/Y        N3        Beta/Z          J
 ---------------------------------------------------------------------------------------------------
      1         X 
      2         X        1   1.000000(     1)
      3      1  C        1   1.000000(     2)      2   90.000(     9)
      4      2  N        1   1.180504(     3)      2   90.000(    10)      3   75.410(    16)      0
      5      3  N        1   1.329212(     4)      2   90.000(    11)      3  139.691(    17)      0
      6      4  N        1   1.173968(     5)      2   90.000(    12)      3  202.286(    18)      0
      7      5  N        1   1.016144(     6)      2   90.000(    13)      3  278.272(    19)      0
      8      6  H        3   1.074952(     7)      4  124.796(    14)      5  180.000(    20)      0
      9      7  H        4   1.007456(     8)      5  119.581(    15)      6  180.000(    21)      0
 ---------------------------------------------------------------------------------------------------
                         Z-Matrix orientation:                         
 ---------------------------------------------------------------------
 Center     Atomic      Atomic             Coordinates (Angstroms)
 Number     Number       Type             X           Y           Z
 ---------------------------------------------------------------------
      1         -1           0        0.000000    0.000000    0.000000
      2         -1           0        0.000000    0.000000    1.000000
      3          6           0        1.000000    0.000000    0.000000
      4          7           0        0.297366   -1.142437    0.000000
      5          7           0       -1.013606   -0.859888    0.000000
      6          7           0       -1.086273    0.445211    0.000000
      7          7           0        0.146193    1.005573    0.000000
      8          1           0        2.073273    0.060059    0.000000
      9          1           0        0.598947   -2.103695    0.000000
 ---------------------------------------------------------------------
                    Distance matrix (angstroms):
                    1          2          3          4          5
     1  X    0.000000
     2  X    1.000000   0.000000
     3  C    1.000000   1.414214   0.000000
     4  N    1.180504   1.547123   1.341215   0.000000
     5  N    1.329212   1.663371   2.189524   1.341075   0.000000
     6  N    1.173968   1.542142   2.133248   2.105963   1.307120
     7  N    1.016144   1.425675   1.319153   2.153323   2.196605
     8  H    2.074143   2.302622   1.074952   2.144724   3.221044
     9  H    2.187297   2.405051   2.141582   1.007456   2.036512
                    6          7          8          9
     6  N    0.000000
     7  N    1.353875   0.000000
     8  H    3.182935   2.146541   0.000000
     9  H    3.055631   3.142058   2.618295   0.000000
 Stoichiometry    CH2N4
 Framework group  CS[SG(CH2N4)]
 Deg. of freedom    11
 Full point group                 CS      NOp   2
 Largest Abelian subgroup         CS      NOp   2
 Largest concise Abelian subgroup C1      NOp   1
                         Standard orientation:                         
 ---------------------------------------------------------------------
 Center     Atomic      Atomic             Coordinates (Angstroms)
 Number     Number       Type             X           Y           Z
 ---------------------------------------------------------------------
      1          6           0        1.067514    0.237142    0.000000
      2          7           0        0.000000    1.049096    0.000000
      3          7           0       -1.120711    0.312558    0.000000
      4          7           0       -0.717579   -0.930843    0.000000
      5          7           0        0.634052   -1.008761    0.000000
      6          1           0        2.090158    0.568386    0.000000
      7          1           0       -0.065575    2.054416    0.000000
 ---------------------------------------------------------------------
 Rotational constants (GHZ):     10.5511727     10.3404141      5.2223651
 Standard basis: 6-31G(2df,p) (6D, 7F)
 There are   113 symmetry adapted cartesian basis functions of A'  symmetry.
 There are    52 symmetry adapted cartesian basis functions of A"  symmetry.
 There are   103 symmetry adapted basis functions of A'  symmetry.
 There are    47 symmetry adapted basis functions of A"  symmetry.
   150 basis functions,   234 primitive gaussians,   165 cartesian basis functions
    18 alpha electrons       18 beta electrons
       nuclear repulsion energy       166.7638272559 Hartrees.
 NAtoms=    7 NActive=    7 NUniq=    7 SFac= 1.00D+00 NAtFMM=   60 NAOKFM=F Big=F
 Integral buffers will be    131072 words long.
 Raffenetti 1 integral format.
 Two-electron integral symmetry is turned on.
 One-electron integrals computed using PRISM.
 NBasis=   150 RedAO= T EigKep=  2.99D-04  NBF=   103    47
 NBsUse=   150 1.00D-06 EigRej= -1.00D+00 NBFU=   103    47
 Initial guess from the checkpoint file:  "/tmp/rdj3/g09-15973/Gau-14988.chk"
 B after Tr=     0.000000    0.000000    0.000000
         Rot=    1.000000    0.000000    0.000000   -0.000787 Ang=  -0.09 deg.
 Initial guess orbital symmetries:
       Occupied  (A') (A') (A') (A') (A') (A') (A') (A') (A') (A')
                 (A') (A") (A') (A') (A') (A') (A") (A")
       Virtual   (A') (A') (A') (A') (A') (A') (A') (A') (A') (A')
                 (A') (A') (A') (A') (A') (A') (A') (A') (A') (A')
                 (A') (A') (A') (A') (A') (A') (A') (A') (A') (A')
                 (A') (A') (A') (A') (A') (A') (A') (A') (A') (A')
                 (A') (A') (A') (A') (A') (A') (A') (A') (A') (A')
                 (A') (A') (A') (A') (A') (A') (A') (A') (A') (A')
                 (A') (A') (A') (A') (A') (A') (A') (A') (A') (A')
                 (A') (A') (A') (A') (A') (A') (A') (A') (A') (A')
                 (A') (A') (A') (A') (A') (A') (A') (A') (A") (A")
                 (A") (A") (A") (A") (A") (A") (A") (A") (A") (A")
                 (A") (A") (A") (A") (A") (A") (A") (A") (A") (A")
                 (A") (A") (A") (A") (A") (A") (A") (A") (A") (A")
                 (A") (A") (A") (A") (A") (A") (A") (A") (A") (A")
                 (A") (A")
 ExpMin= 1.61D-01 ExpMax= 4.17D+03 ExpMxC= 6.27D+02 IAcc=1 IRadAn=         1 AccDes= 0.00D+00
 Harris functional with IExCor=  205 and IRadAn=       1 diagonalized for initial guess.
 HarFok:  IExCor=  205 AccDes= 0.00D+00 IRadAn=         1 IDoV= 1 UseB2=F ITyADJ=14
 ICtDFT=  3500011 ScaDFX=  1.000000  1.000000  1.000000  1.000000
 FoFCou: FMM=F IPFlag=           0 FMFlag=      100000 FMFlg1=           0
         NFxFlg=           0 DoJE=T BraDBF=F KetDBF=T FulRan=T
         wScrn=  0.000000 ICntrl=     500 IOpCl=  0 I1Cent=   200000004 NGrid=           0
         NMat0=    1 NMatS0=      1 NMatT0=    0 NMatD0=    1 NMtDS0=    0 NMtDT0=    0
 Petite list used in FoFCou.
 Keep R1 ints in memory in symmetry-blocked form, NReq=97005431.
 Requested convergence on RMS density matrix=1.00D-08 within 128 cycles.
 Requested convergence on MAX density matrix=1.00D-06.
 Requested convergence on             energy=1.00D-06.
 No special actions if energy rises.
 SCF Done:  E(RHF) =  -256.775622214     A.U. after   12 cycles
            NFock= 12  Conv=0.86D-08     -V/T= 2.0023
 Range of M.O.s used for correlation:     1   150
 NBasis=   150 NAE=    18 NBE=    18 NFC=     0 NFV=     0
 NROrb=    150 NOA=    18 NOB=    18 NVA=   132 NVB=   132

 **** Warning!!: The largest alpha MO coefficient is  0.36338186D+02

 Fully direct method using O(ONN) memory.
 JobTyp=1 Pass  1:  I=   1 to  18 NPSUse=  8 ParTrn=T ParDer=T DoDerP=T.
 Spin components of T(2) and E(2):
     alpha-alpha T2 =       0.4129031542D-01 E2=     -0.1266601609D+00
     alpha-beta  T2 =       0.2092064905D+00 E2=     -0.7091539535D+00
     beta-beta   T2 =       0.4129031542D-01 E2=     -0.1266601609D+00
 ANorm=    0.1136568133D+01
 E2 =    -0.9624742754D+00 EUMP2 =    -0.25773809648892D+03
          IDoAtm=1111111
          Differentiating once with respect to electric field.
                with respect to dipole field.
          Differentiating once with respect to nuclear coordinates.
 Keep R1 ints in memory in symmetry-blocked form, NReq=96904189.
          There are     1 degrees of freedom in the 1st order CPHF.  IDoFFX=0 NUNeed=     1.
 LinEq1:  Iter=  0 NonCon=     1 RMS=5.02D-03 Max=7.12D-02 NDo=     1
 AX will form     1 AO Fock derivatives at one time.
 LinEq1:  Iter=  1 NonCon=     1 RMS=1.19D-03 Max=1.98D-02 NDo=     1
 LinEq1:  Iter=  2 NonCon=     1 RMS=4.77D-04 Max=1.26D-02 NDo=     1
 LinEq1:  Iter=  3 NonCon=     1 RMS=1.38D-04 Max=1.53D-03 NDo=     1
 LinEq1:  Iter=  4 NonCon=     1 RMS=5.64D-05 Max=1.13D-03 NDo=     1
 LinEq1:  Iter=  5 NonCon=     1 RMS=1.75D-05 Max=3.57D-04 NDo=     1
 LinEq1:  Iter=  6 NonCon=     1 RMS=5.42D-06 Max=1.21D-04 NDo=     1
 LinEq1:  Iter=  7 NonCon=     1 RMS=3.07D-06 Max=9.37D-05 NDo=     1
 LinEq1:  Iter=  8 NonCon=     1 RMS=7.15D-07 Max=7.21D-06 NDo=     1
 LinEq1:  Iter=  9 NonCon=     1 RMS=3.11D-07 Max=7.10D-06 NDo=     1
 LinEq1:  Iter= 10 NonCon=     1 RMS=9.87D-08 Max=8.65D-07 NDo=     1
 LinEq1:  Iter= 11 NonCon=     1 RMS=3.82D-08 Max=8.40D-07 NDo=     1
 LinEq1:  Iter= 12 NonCon=     1 RMS=1.80D-08 Max=2.61D-07 NDo=     1
 LinEq1:  Iter= 13 NonCon=     1 RMS=3.82D-09 Max=5.81D-08 NDo=     1
 LinEq1:  Iter= 14 NonCon=     1 RMS=7.38D-10 Max=8.93D-09 NDo=     1
 LinEq1:  Iter= 15 NonCon=     1 RMS=1.35D-10 Max=1.70D-09 NDo=     1
 LinEq1:  Iter= 16 NonCon=     0 RMS=2.52D-11 Max=2.98D-10 NDo=     1
 Linear equations converged to 1.000D-10 1.000D-09 after    16 iterations.
 End of Minotr F.D. properties file   721 does not exist.
 End of Minotr F.D. properties file   722 does not exist.
 End of Minotr F.D. properties file   788 does not exist.
 Calling FoFJK, ICntrl=  10002127 FMM=F ISym2X=1 I1Cent= 0 IOpClX= 0 NMat=1 NMatS=1 NMatT=0.
 ***** Axes restored to original set *****
 -------------------------------------------------------------------
 Center     Atomic                   Forces (Hartrees/Bohr)
 Number     Number              X              Y              Z
 -------------------------------------------------------------------
      1        6          -0.001438253   -0.002069360    0.000000000
      2        7          -0.001059922   -0.001135239    0.000000000
      3        7           0.004742202   -0.003862834    0.000000000
      4        7          -0.001172959    0.005873740    0.000000000
      5        7          -0.000630643    0.000713949    0.000000000
      6        1          -0.000653085   -0.000020039    0.000000000
      7        1           0.000212661    0.000499783    0.000000000
 -------------------------------------------------------------------
 Cartesian Forces:  Max     0.005873740 RMS     0.001996175
 -----------------------------------------------------------------------------------------------
                       Internal Coordinate Forces (Hartree/Bohr or radian)
  Cent   Atom   N1       Length/X         N2         Alpha/Y        N3         Beta/Z          J
 -----------------------------------------------------------------------------------------------
         X 
         X        1   0.000000(     1)
      1  C        1  -0.002103(     2)      2   0.000000(     9)
      2  N        1   0.000175(     3)      2   0.000000(    10)      3   0.001900(    16)     0
      3  N        1  -0.000907(     4)      2   0.000000(    11)      3  -0.015510(    17)     0
      4  N        1   0.003313(     5)      2   0.000000(    12)      3   0.011071(    18)     0
      5  N        1   0.000616(     6)      2   0.000000(    13)      3  -0.001396(    19)     0
      6  H        3  -0.000653(     7)      4   0.000033(    14)      5   0.000000(    20)     0
      7  H        4  -0.000413(     8)      5   0.000671(    15)      6   0.000000(    21)     0
 -----------------------------------------------------------------------------------------------
 Internal  Forces:  Max     0.015510071 RMS     0.004289267

 GradGradGradGradGradGradGradGradGradGradGradGradGradGradGradGradGradGrad
 Berny optimization.
 Search for a local minimum.
 Step number   3 out of a maximum of   22
 All quantities printed in internal units (Hartrees-Bohrs-Radians)
 Update second derivatives using D2CorN and points    1    2    3
 DE= -3.75D-04 DEPred=-3.14D-04 R= 1.20D+00
 TightC=F SS=  1.41D+00  RLast= 2.76D-01 DXNew= 5.0454D-01 8.2726D-01
 Trust test= 1.20D+00 RLast= 2.76D-01 DXMaxT set to 5.05D-01
 The second derivative matrix:
                          rn1       rn2       rn3       rn4       rch
           rn1          0.66472
           rn2          0.01940   0.62511
           rn3          0.05487   0.01906   0.54437
           rn4          0.05532  -0.00598   0.12195   0.63975
           rch          0.00393  -0.00836  -0.00259   0.00165   0.37547
           rnh          0.00813  -0.01591  -0.00607   0.00148   0.00051
           an1          0.02769  -0.74657   0.04639  -0.07961   0.00231
           an2          0.73515  -0.22098  -0.60014   0.16856   0.02529
           an3         -0.04053   0.95207  -0.06440  -0.68727  -0.02156
           an4          0.05005  -0.01317   0.67340  -0.08885   0.00268
           ach          0.04230   0.00612   0.00239   0.05040  -0.00011
           anh         -0.10378   0.05922   0.00317  -0.00019  -0.00003
                          rnh       an1       an2       an3       an4
           rnh          0.48802
           an1          0.00379   4.53312
           an2          0.04647  -2.65800   6.06618
           an3         -0.04142  -0.05574  -3.16716   4.39888
           an4          0.00480  -0.12302  -0.08148  -1.13813   2.58097
           ach         -0.00012  -0.10601  -0.01647   0.01515   0.07147
           anh          0.00015   0.03399  -0.10846   0.01480  -0.00227
                          ach       anh
           ach          0.32002
           anh         -0.00013   0.31996
 ITU=  1  1  0
     Eigenvalues ---   -0.00018   0.12064   0.26423   0.32689   0.37523
     Eigenvalues ---    0.39523   0.48753   0.74039   1.20583   2.98798
     Eigenvalues ---    5.06330   9.58950
 RFO step:  Lambda=-7.98573363D-04 EMin=-1.75096858D-04
 Quartic linear search produced a step of  0.19736.
 Maximum step size (   0.505) exceeded in Quadratic search.
    -- Step size scaled by   0.504
 Variable       Old X    -DE/DX   Delta X   Delta X   Delta X     New X
                                 (Linear)    (Quad)   (Total)
   rn1        2.23083   0.00017  -0.02761  -0.21421  -0.24182   1.98901
   rn2        2.51185  -0.00091  -0.01213  -0.19221  -0.20434   2.30750
   rn3        2.21848   0.00331   0.01109   0.06042   0.07151   2.28999
   rn4        1.92023   0.00062   0.02478   0.24115   0.26593   2.18617
   rch        2.03137  -0.00065   0.00022  -0.00351  -0.00329   2.02808
   rnh        1.90382  -0.00041   0.00041  -0.00193  -0.00152   1.90230
   an1        1.31616   0.00190   0.01118   0.08569   0.09687   1.41302
   an2        2.43806  -0.01551   0.02083   0.18137   0.20219   2.64025
   an3        3.53056   0.01107   0.02525   0.23927   0.26453   3.79509
   an4        4.85676  -0.00140   0.01053   0.11096   0.12149   4.97825
   ach        2.17809   0.00003   0.00097  -0.00472  -0.00374   2.17435
   anh        2.08709   0.00067  -0.00264   0.00911   0.00647   2.09356
         Item               Value     Threshold  Converged?
 Maximum Force            0.015510     0.000450     NO 
 RMS     Force            0.005642     0.000300     NO 
 Maximum Displacement     0.265933     0.001800     NO 
 RMS     Displacement     0.161021     0.001200     NO 
 Predicted change in Energy=-3.700222D-04
 GradGradGradGradGradGradGradGradGradGradGradGradGradGradGradGradGradGrad

 ---------------------------------------------------------------------------------------------------
                            Z-MATRIX (ANGSTROMS AND DEGREES)
   CD    Cent   Atom    N1       Length/X        N2       Alpha/Y        N3        Beta/Z          J
 ---------------------------------------------------------------------------------------------------
      1         X 
      2         X        1   1.000000(     1)
      3      1  C        1   1.000000(     2)      2   90.000(     9)
      4      2  N        1   1.052539(     3)      2   90.000(    10)      3   80.960(    16)      0
      5      3  N        1   1.221079(     4)      2   90.000(    11)      3  151.275(    17)      0
      6      4  N        1   1.211808(     5)      2   90.000(    12)      3  217.443(    18)      0
      7      5  N        1   1.156870(     6)      2   90.000(    13)      3  285.233(    19)      0
      8      6  H        3   1.073211(     7)      4  124.581(    14)      5  180.000(    20)      0
      9      7  H        4   1.006652(     8)      5  119.952(    15)      6  180.000(    21)      0
 ---------------------------------------------------------------------------------------------------
                         Z-Matrix orientation:                         
 ---------------------------------------------------------------------
 Center     Atomic      Atomic             Coordinates (Angstroms)
 Number     Number       Type             X           Y           Z
 ---------------------------------------------------------------------
      1         -1           0        0.000000    0.000000    0.000000
      2         -1           0        0.000000    0.000000    1.000000
      3          6           0        1.000000    0.000000    0.000000
      4          7           0        0.165373   -1.039466    0.000000
      5          7           0       -1.070813   -0.586850    0.000000
      6          7           0       -0.962131    0.736737    0.000000
      7          7           0        0.303957    1.116225    0.000000
      8          1           0        2.070355   -0.078249    0.000000
      9          1           0        0.337449   -2.031301    0.000000
 ---------------------------------------------------------------------
                    Distance matrix (angstroms):
                    1          2          3          4          5
     1  X    0.000000
     2  X    1.000000   0.000000
     3  C    1.000000   1.414214   0.000000
     4  N    1.052539   1.451839   1.333076   0.000000
     5  N    1.221079   1.578301   2.152361   1.316441   0.000000
     6  N    1.211808   1.571139   2.095887   2.103845   1.328042
     7  N    1.156870   1.529166   1.315459   2.160140   2.188711
     8  H    2.071833   2.300542   1.073211   2.133750   3.182076
     9  H    2.059140   2.289117   2.136623   1.006652   2.017335
                    6          7          8          9
     6  N    0.000000
     7  N    1.321738   0.000000
     8  H    3.140092   2.132353   0.000000
     9  H    3.057932   3.147704   2.611010   0.000000
 Stoichiometry    CH2N4
 Framework group  CS[SG(CH2N4)]
 Deg. of freedom    11
 Full point group                 CS      NOp   2
 Largest Abelian subgroup         CS      NOp   2
 Largest concise Abelian subgroup C1      NOp   1
                         Standard orientation:                         
 ---------------------------------------------------------------------
 Center     Atomic      Atomic             Coordinates (Angstroms)
 Number     Number       Type             X           Y           Z
 ---------------------------------------------------------------------
      1          6           0        1.046478    0.225908    0.000000
      2          7           0        0.000000    1.051725    0.000000
      3          7           0       -1.103197    0.333412    0.000000
      4          7           0       -0.700456   -0.932091    0.000000
      5          7           0        0.618488   -1.017980    0.000000
      6          1           0        2.072022    0.542201    0.000000
      7          1           0       -0.054736    2.056888    0.000000
 ---------------------------------------------------------------------
 Rotational constants (GHZ):     10.9257349     10.2661707      5.2928444
 Standard basis: 6-31G(2df,p) (6D, 7F)
 There are   113 symmetry adapted cartesian basis functions of A'  symmetry.
 There are    52 symmetry adapted cartesian basis functions of A"  symmetry.
 There are   103 symmetry adapted basis functions of A'  symmetry.
 There are    47 symmetry adapted basis functions of A"  symmetry.
   150 basis functions,   234 primitive gaussians,   165 cartesian basis functions
    18 alpha electrons       18 beta electrons
       nuclear repulsion energy       167.8815383757 Hartrees.
 NAtoms=    7 NActive=    7 NUniq=    7 SFac= 1.00D+00 NAtFMM=   60 NAOKFM=F Big=F
 Integral buffers will be    131072 words long.
 Raffenetti 1 integral format.
 Two-electron integral symmetry is turned on.
 One-electron integrals computed using PRISM.
 NBasis=   150 RedAO= T EigKep=  2.94D-04  NBF=   103    47
 NBsUse=   150 1.00D-06 EigRej= -1.00D+00 NBFU=   103    47
 Initial guess from the checkpoint file:  "/tmp/rdj3/g09-15973/Gau-14988.chk"
 B after Tr=     0.000000    0.000000    0.000000
         Rot=    0.999995    0.000000    0.000000    0.003272 Ang=   0.37 deg.
 Initial guess orbital symmetries:
       Occupied  (A') (A') (A') (A') (A') (A') (A') (A') (A') (A')
                 (A') (A") (A') (A') (A') (A') (A") (A")
       Virtual   (A') (A') (A') (A') (A') (A') (A') (A') (A') (A')
                 (A') (A') (A') (A') (A') (A') (A') (A') (A') (A')
                 (A') (A') (A') (A') (A') (A') (A') (A') (A') (A')
                 (A') (A') (A') (A') (A') (A') (A') (A') (A') (A')
                 (A') (A') (A') (A') (A') (A') (A') (A') (A') (A')
                 (A') (A') (A') (A') (A') (A') (A') (A') (A') (A')
                 (A') (A') (A') (A') (A') (A') (A') (A') (A') (A')
                 (A') (A') (A') (A') (A') (A') (A') (A') (A') (A')
                 (A') (A') (A') (A') (A') (A') (A') (A') (A") (A")
                 (A") (A") (A") (A") (A") (A") (A") (A") (A") (A")
                 (A") (A") (A") (A") (A") (A") (A") (A") (A") (A")
                 (A") (A") (A") (A") (A") (A") (A") (A") (A") (A")
                 (A") (A") (A") (A") (A") (A") (A") (A") (A") (A")
                 (A") (A")
 ExpMin= 1.61D-01 ExpMax= 4.17D+03 ExpMxC= 6.27D+02 IAcc=1 IRadAn=         1 AccDes= 0.00D+00
 Harris functional with IExCor=  205 and IRadAn=       1 diagonalized for initial guess.
 HarFok:  IExCor=  205 AccDes= 0.00D+00 IRadAn=         1 IDoV= 1 UseB2=F ITyADJ=14
 ICtDFT=  3500011 ScaDFX=  1.000000  1.000000  1.000000  1.000000
 FoFCou: FMM=F IPFlag=           0 FMFlag=      100000 FMFlg1=           0
         NFxFlg=           0 DoJE=T BraDBF=F KetDBF=T FulRan=T
         wScrn=  0.000000 ICntrl=     500 IOpCl=  0 I1Cent=   200000004 NGrid=           0
         NMat0=    1 NMatS0=      1 NMatT0=    0 NMatD0=    1 NMtDS0=    0 NMtDT0=    0
 Petite list used in FoFCou.
 Keep R1 ints in memory in symmetry-blocked form, NReq=97005431.
 Requested convergence on RMS density matrix=1.00D-08 within 128 cycles.
 Requested convergence on MAX density matrix=1.00D-06.
 Requested convergence on             energy=1.00D-06.
 No special actions if energy rises.
 SCF Done:  E(RHF) =  -256.774600701     A.U. after   13 cycles
            NFock= 13  Conv=0.76D-08     -V/T= 2.0017
 Range of M.O.s used for correlation:     1   150
 NBasis=   150 NAE=    18 NBE=    18 NFC=     0 NFV=     0
 NROrb=    150 NOA=    18 NOB=    18 NVA=   132 NVB=   132

 **** Warning!!: The largest alpha MO coefficient is  0.36125469D+02

 Fully direct method using O(ONN) memory.
 JobTyp=1 Pass  1:  I=   1 to  18 NPSUse=  8 ParTrn=T ParDer=T DoDerP=T.
 Spin components of T(2) and E(2):
     alpha-alpha T2 =       0.4113232417D-01 E2=     -0.1268519161D+00
     alpha-beta  T2 =       0.2077592077D+00 E2=     -0.7082636116D+00
     beta-beta   T2 =       0.4113232417D-01 E2=     -0.1268519161D+00
 ANorm=    0.1135792171D+01
 E2 =    -0.9619674438D+00 EUMP2 =    -0.25773656814471D+03
          IDoAtm=1111111
          Differentiating once with respect to electric field.
                with respect to dipole field.
          Differentiating once with respect to nuclear coordinates.
 Keep R1 ints in memory in symmetry-blocked form, NReq=96904189.
          There are     1 degrees of freedom in the 1st order CPHF.  IDoFFX=0 NUNeed=     1.
 LinEq1:  Iter=  0 NonCon=     1 RMS=4.80D-03 Max=5.36D-02 NDo=     1
 AX will form     1 AO Fock derivatives at one time.
 LinEq1:  Iter=  1 NonCon=     1 RMS=1.11D-03 Max=1.68D-02 NDo=     1
 LinEq1:  Iter=  2 NonCon=     1 RMS=4.25D-04 Max=1.14D-02 NDo=     1
 LinEq1:  Iter=  3 NonCon=     1 RMS=1.26D-04 Max=1.25D-03 NDo=     1
 LinEq1:  Iter=  4 NonCon=     1 RMS=5.15D-05 Max=1.09D-03 NDo=     1
 LinEq1:  Iter=  5 NonCon=     1 RMS=1.61D-05 Max=2.97D-04 NDo=     1
 LinEq1:  Iter=  6 NonCon=     1 RMS=4.82D-06 Max=9.85D-05 NDo=     1
 LinEq1:  Iter=  7 NonCon=     1 RMS=2.74D-06 Max=7.67D-05 NDo=     1
 LinEq1:  Iter=  8 NonCon=     1 RMS=6.87D-07 Max=1.20D-05 NDo=     1
 LinEq1:  Iter=  9 NonCon=     1 RMS=2.60D-07 Max=5.01D-06 NDo=     1
 LinEq1:  Iter= 10 NonCon=     1 RMS=9.16D-08 Max=1.43D-06 NDo=     1
 LinEq1:  Iter= 11 NonCon=     1 RMS=2.07D-08 Max=3.46D-07 NDo=     1
 LinEq1:  Iter= 12 NonCon=     1 RMS=8.67D-09 Max=1.30D-07 NDo=     1
 LinEq1:  Iter= 13 NonCon=     1 RMS=3.28D-09 Max=3.82D-08 NDo=     1
 LinEq1:  Iter= 14 NonCon=     1 RMS=6.27D-10 Max=8.37D-09 NDo=     1
 LinEq1:  Iter= 15 NonCon=     1 RMS=1.15D-10 Max=1.30D-09 NDo=     1
 LinEq1:  Iter= 16 NonCon=     0 RMS=2.30D-11 Max=2.36D-10 NDo=     1
 Linear equations converged to 1.000D-10 1.000D-09 after    16 iterations.
 End of Minotr F.D. properties file   721 does not exist.
 End of Minotr F.D. properties file   722 does not exist.
 End of Minotr F.D. properties file   788 does not exist.
 Calling FoFJK, ICntrl=  10002127 FMM=F ISym2X=1 I1Cent= 0 IOpClX= 0 NMat=1 NMatS=1 NMatT=0.
 ***** Axes restored to original set *****
 -------------------------------------------------------------------
 Center     Atomic                   Forces (Hartrees/Bohr)
 Number     Number              X              Y              Z
 -------------------------------------------------------------------
      1        6           0.024109523   -0.000990323    0.000000000
      2        7           0.008129686   -0.000947715    0.000000000
      3        7          -0.019809972    0.010241526    0.000000000
      4        7          -0.028197000   -0.008764149    0.000000000
      5        7           0.013539128    0.001092725    0.000000000
      6        1           0.001072772   -0.000782079    0.000000000
      7        1           0.001155864    0.000150015    0.000000000
 -------------------------------------------------------------------
 Cartesian Forces:  Max     0.028197000 RMS     0.010249432
 -----------------------------------------------------------------------------------------------
                       Internal Coordinate Forces (Hartree/Bohr or radian)
  Cent   Atom   N1       Length/X         N2         Alpha/Y        N3         Beta/Z          J
 -----------------------------------------------------------------------------------------------
         X 
         X        1   0.000000(     1)
      1  C        1   0.025623(     2)      2   0.000000(     9)
      2  N        1   0.001050(     3)      2   0.000000(    10)      3  -0.018098(    16)     0
      3  N        1   0.013120(     4)      2   0.000000(    11)      3   0.041341(    17)     0
      4  N        1   0.017059(     5)      2   0.000000(    12)      3  -0.055191(    18)     0
      5  N        1   0.004612(     6)      2   0.000000(    13)      3   0.027931(    19)     0
      6  H        3   0.001127(     7)      4  -0.001423(    14)      5   0.000000(    20)     0
      7  H        4   0.000050(     8)      5   0.002215(    15)      6   0.000000(    21)     0
 -----------------------------------------------------------------------------------------------
 Internal  Forces:  Max     0.055191433 RMS     0.018274503

 GradGradGradGradGradGradGradGradGradGradGradGradGradGradGradGradGradGrad
 Berny optimization.
 Search for a local minimum.
 Step number   4 out of a maximum of   22
 All quantities printed in internal units (Hartrees-Bohrs-Radians)
 Update second derivatives using D2CorN and points    1    2    4    3
 DE=  1.53D-03 DEPred=-3.70D-04 R=-4.13D+00
 Trust test=-4.13D+00 RLast= 5.58D-01 DXMaxT set to 2.52D-01
 The second derivative matrix:
                          rn1       rn2       rn3       rn4       rch
           rn1          0.66556
           rn2          0.02637   0.63368
           rn3          0.06281   0.02183   0.54007
           rn4          0.05790  -0.01111   0.11485   0.63726
           rch          0.00469  -0.00774  -0.00238   0.00149   0.37560
           rnh          0.00871  -0.01571  -0.00564   0.00203   0.00071
           an1          0.02059  -0.75510   0.04609  -0.07179   0.00213
           an2          0.75077  -0.20646  -0.60396   0.15458   0.02638
           an3         -0.06155   0.92250  -0.07084  -0.66977  -0.02336
           an4          0.06041  -0.00646   0.66736  -0.10136   0.00260
           ach          0.04157   0.00570   0.00246   0.05083  -0.00016
           anh         -0.10317   0.05969   0.00274  -0.00129  -0.00013
                          rnh       an1       an2       an3       an4
           rnh          0.48834
           an1          0.00391   4.53905
           an2          0.04879  -2.65678   6.04190
           an3         -0.04340  -0.04030  -3.16594   4.44208
           an4          0.00489  -0.12358  -0.09953  -1.13818   2.57001
           ach         -0.00022  -0.10599  -0.01621   0.01581   0.07193
           anh          0.00002   0.03384  -0.11110   0.01569  -0.00303
                          ach       anh
           ach          0.32004
           anh         -0.00008   0.32000
 ITU= -1  1  1  0
     Eigenvalues ---    0.01410   0.12316   0.26440   0.32718   0.37536
     Eigenvalues ---    0.39593   0.48778   0.74199   1.20570   2.98786
     Eigenvalues ---    5.06219   9.58797
 RFO step:  Lambda=-9.62321599D-05 EMin= 1.40959957D-02
 Quartic linear search produced a step of -0.80452.
 Variable       Old X    -DE/DX   Delta X   Delta X   Delta X     New X
                                 (Linear)    (Quad)   (Total)
   rn1        1.98901   0.00105   0.19455  -0.01281   0.18174   2.17075
   rn2        2.30750   0.01312   0.16440  -0.00091   0.16349   2.47099
   rn3        2.28999   0.01706  -0.05753   0.02105  -0.03648   2.25350
   rn4        2.18617   0.00461  -0.21395   0.00748  -0.20647   1.97969
   rch        2.02808   0.00113   0.00265  -0.00077   0.00188   2.02995
   rnh        1.90230   0.00005   0.00122  -0.00052   0.00071   1.90300
   an1        1.41302  -0.01810  -0.07793   0.00501  -0.07292   1.34010
   an2        2.64025   0.04134  -0.16267   0.00936  -0.15331   2.48694
   an3        3.79509  -0.05519  -0.21282   0.00817  -0.20465   3.59044
   an4        4.97825   0.02793  -0.09774   0.00112  -0.09662   4.88163
   ach        2.17435  -0.00142   0.00301   0.00100   0.00401   2.17836
   anh        2.09356   0.00222  -0.00521   0.00131  -0.00390   2.08966
         Item               Value     Threshold  Converged?
 Maximum Force            0.055191     0.000450     NO 
 RMS     Force            0.023016     0.000300     NO 
 Maximum Displacement     0.206474     0.001800     NO 
 RMS     Displacement     0.123759     0.001200     NO 
 Predicted change in Energy=-9.919207D-04
 GradGradGradGradGradGradGradGradGradGradGradGradGradGradGradGradGradGrad

 ---------------------------------------------------------------------------------------------------
                            Z-MATRIX (ANGSTROMS AND DEGREES)
   CD    Cent   Atom    N1       Length/X        N2       Alpha/Y        N3        Beta/Z          J
 ---------------------------------------------------------------------------------------------------
      1         X 
      2         X        1   1.000000(     1)
      3      1  C        1   1.000000(     2)      2   90.000(     9)
      4      2  N        1   1.148713(     3)      2   90.000(    10)      3   76.782(    16)      0
      5      3  N        1   1.307592(     4)      2   90.000(    11)      3  142.491(    17)      0
      6      4  N        1   1.192502(     5)      2   90.000(    12)      3  205.717(    18)      0
      7      5  N        1   1.047608(     6)      2   90.000(    13)      3  279.697(    19)      0
      8      6  H        3   1.074204(     7)      4  124.811(    14)      5  180.000(    20)      0
      9      7  H        4   1.007026(     8)      5  119.729(    15)      6  180.000(    21)      0
 ---------------------------------------------------------------------------------------------------
                         Z-Matrix orientation:                         
 ---------------------------------------------------------------------
 Center     Atomic      Atomic             Coordinates (Angstroms)
 Number     Number       Type             X           Y           Z
 ---------------------------------------------------------------------
      1         -1           0        0.000000    0.000000    0.000000
      2         -1           0        0.000000    0.000000    1.000000
      3          6           0        1.000000    0.000000    0.000000
      4          7           0        0.262657   -1.118281    0.000000
      5          7           0       -1.037261   -0.796169    0.000000
      6          7           0       -1.074382    0.517461    0.000000
      7          7           0        0.176452    1.032641    0.000000
      8          1           0        2.073878    0.026466    0.000000
      9          1           0        0.537042   -2.087206    0.000000
 ---------------------------------------------------------------------
                    Distance matrix (angstroms):
                    1          2          3          4          5
     1  X    0.000000
     2  X    1.000000   0.000000
     3  C    1.000000   1.414214   0.000000
     4  N    1.148713   1.523004   1.339488   0.000000
[...]
 Full mass-weighted force constant matrix:
 Low frequencies ---   -0.8042   -0.0010   -0.0008   -0.0006    1.8153    2.6656
 Low frequencies ---  640.1040  710.1690  752.2242
 Diagonal vibrational polarizability:
        1.2113936       0.8576655       6.2336241
 Harmonic frequencies (cm**-1), IR intensities (KM/Mole), Raman scattering
 activities (A**4/AMU), depolarization ratios for plane and unpolarized
 incident light, reduced masses (AMU), force constants (mDyne/A),
 and normal coordinates:
                      1                      2                      3
                     A"                     A"                     A"
 Frequencies --    640.1040               710.1690               752.2242
 Red. masses --      2.1644                 1.8054                 5.6331
 Frc consts  --      0.5225                 0.5365                 1.8780
 IR Inten    --     63.6024                14.4759                13.8138
  Atom  AN      X      Y      Z        X      Y      Z        X      Y      Z
     1   6     0.00   0.00  -0.12     0.00   0.00   0.16     0.00   0.00  -0.05
     2   7     0.00   0.00   0.25     0.00   0.00  -0.06     0.00   0.00  -0.09
     3   7     0.00   0.00  -0.12     0.00   0.00   0.06     0.00   0.00   0.35
     4   7     0.00   0.00   0.01     0.00   0.00   0.06     0.00   0.00  -0.40
     5   7     0.00   0.00   0.04     0.00   0.00  -0.17     0.00   0.00   0.25
     6   1     0.00   0.00  -0.32     0.00   0.00   0.46     0.00   0.00  -0.04
     7   1     0.00   0.00  -0.90     0.00   0.00  -0.85     0.00   0.00  -0.80
                      4                      5                      6
                     A"                     A'                     A'
 Frequencies --    857.0367               976.3230              1016.5056
 Red. masses --      1.3585                 4.3651                 5.6215
 Frc consts  --      0.5879                 2.4515                 3.4223
 IR Inten    --     17.1086                 2.8736                 5.3796
  Atom  AN      X      Y      Z        X      Y      Z        X      Y      Z
     1   6     0.00   0.00   0.17     0.15   0.11   0.00    -0.30  -0.06   0.00
     2   7     0.00   0.00  -0.03     0.10   0.02   0.00     0.00   0.42   0.00
     3   7     0.00   0.00   0.00     0.13  -0.17   0.00     0.19  -0.08   0.00
     4   7     0.00   0.00  -0.01    -0.05  -0.14   0.00     0.11  -0.09   0.00
     5   7     0.00   0.00  -0.03    -0.30   0.25   0.00    -0.02  -0.17   0.00
     6   1     0.00   0.00  -0.98     0.38  -0.60   0.00    -0.14  -0.64   0.00
     7   1     0.00   0.00  -0.06    -0.49  -0.02   0.00    -0.15   0.43   0.00
                      7                      8                      9
                     A'                     A'                     A'
 Frequencies --   1107.0776              1135.8719              1160.9975
 Red. masses --      3.1345                 4.3936                 2.5216
 Frc consts  --      2.2635                 3.3399                 2.0026
 IR Inten    --     32.5109                10.4739                11.7388
  Atom  AN      X      Y      Z        X      Y      Z        X      Y      Z
     1   6     0.04   0.03   0.00    -0.15   0.03   0.00     0.05  -0.11   0.00
     2   7    -0.04   0.00   0.00    -0.08  -0.18   0.00    -0.13  -0.04   0.00
     3   7     0.24  -0.04   0.00     0.26   0.13   0.00     0.00  -0.06   0.00
     4   7    -0.28   0.04   0.00     0.23   0.01   0.00     0.11   0.26   0.00
     5   7     0.12  -0.06   0.00    -0.25  -0.02   0.00     0.00  -0.02   0.00
     6   1    -0.11   0.50   0.00    -0.40   0.73   0.00     0.21  -0.62   0.00
     7   1    -0.75  -0.04   0.00    -0.11  -0.20   0.00    -0.67  -0.08   0.00
                     10                     11                     12
                     A'                     A'                     A'
 Frequencies --   1212.2647              1275.7890              1481.6463
 Red. masses --      4.0671                 3.2269                 2.4464
 Frc consts  --      3.5215                 3.0945                 3.1642
 IR Inten    --      1.4872                 1.2505                24.9099
  Atom  AN      X      Y      Z        X      Y      Z        X      Y      Z
     1   6     0.17  -0.01   0.00     0.20   0.06   0.00    -0.16  -0.10   0.00
     2   7    -0.15   0.04   0.00     0.08   0.14   0.00     0.24  -0.03   0.00
     3   7    -0.04   0.33   0.00    -0.14  -0.09   0.00    -0.10   0.04   0.00
     4   7     0.05  -0.26   0.00     0.08   0.05   0.00     0.04  -0.02   0.00
     5   7     0.03  -0.08   0.00    -0.16  -0.21   0.00     0.05   0.09   0.00
     6   1     0.29  -0.34   0.00    -0.01   0.81   0.00    -0.28   0.15   0.00
     7   1    -0.75   0.02   0.00    -0.39   0.13   0.00    -0.88  -0.11   0.00
                     13                     14                     15
                     A'                     A'                     A'
 Frequencies --   1494.9094              3356.4372              3707.2234
 Red. masses --      5.0038                 1.1006                 1.0845
 Frc consts  --      6.5884                 7.3050                 8.7816
 IR Inten    --      6.7815                 3.9212               120.9530
  Atom  AN      X      Y      Z        X      Y      Z        X      Y      Z
     1   6    -0.14   0.46   0.00     0.09   0.03   0.00     0.01   0.00   0.00
     2   7     0.14  -0.16   0.00     0.00   0.00   0.00    -0.01   0.08   0.00
     3   7    -0.03   0.03   0.00     0.00   0.00   0.00     0.00   0.00   0.00
     4   7    -0.02   0.04   0.00     0.00   0.00   0.00     0.00   0.00   0.00
     5   7     0.02  -0.24   0.00     0.00   0.00   0.00     0.00   0.00   0.00
     6   1     0.24  -0.72   0.00    -0.95  -0.30   0.00    -0.02   0.00   0.00
     7   1    -0.20  -0.21   0.00     0.00   0.02   0.00     0.06  -0.99   0.00

 -------------------
 - Thermochemistry -
 -------------------
 Temperature   298.150 Kelvin.  Pressure   1.00000 Atm.
 Atom     1 has atomic number  6 and mass  12.00000
 Atom     2 has atomic number  7 and mass  14.00307
 Atom     3 has atomic number  7 and mass  14.00307
 Atom     4 has atomic number  7 and mass  14.00307
 Atom     5 has atomic number  7 and mass  14.00307
 Atom     6 has atomic number  1 and mass   1.00783
 Atom     7 has atomic number  1 and mass   1.00783
 Molecular mass:    70.02795 amu.
 Principal axes and moments of inertia in atomic units:
                           1         2         3
     Eigenvalues --   170.94607 174.68388 345.62996
           X           -0.62050   0.78421   0.00000
           Y            0.78421   0.62050   0.00000
           Z            0.00000   0.00000   1.00000
 This molecule is an asymmetric top.
 Rotational symmetry number  1.
 Rotational temperatures (Kelvin)      0.50667     0.49583     0.25060
 Rotational constants (GHZ):          10.55737    10.33147     5.22160
 Zero-point vibrational energy     124917.5 (Joules/Mol)
                                   29.85600 (Kcal/Mol)
 Vibrational temperatures:    920.97  1021.77  1082.28  1233.08  1404.71
          (Kelvin)           1462.52  1592.84  1634.26  1670.41  1744.18
                             1835.57  2131.76  2150.84  4829.16  5333.86
 
 Zero-point correction=                           0.047579 (Hartree/Particle)
 Thermal correction to Energy=                    0.050995
 Thermal correction to Enthalpy=                  0.051939
 Thermal correction to Gibbs Free Energy=         0.021508
 Sum of electronic and zero-point Energies=           -257.690578
 Sum of electronic and thermal Energies=              -257.687162
 Sum of electronic and thermal Enthalpies=            -257.686218
 Sum of electronic and thermal Free Energies=         -257.716649
 
                     E (Thermal)             CV                S
                      KCal/Mol        Cal/Mol-Kelvin    Cal/Mol-Kelvin
 Total                   32.000             11.047             64.048
 Electronic               0.000              0.000              0.000
 Translational            0.889              2.981             38.656
 Rotational               0.889              2.981             23.849
 Vibrational             30.222              5.085              1.543
                       Q            Log10(Q)             Ln(Q)
 Total Bot       0.128009D-09         -9.892761        -22.778923
 Total V=0       0.981334D+12         11.991817         27.612179
 Vib (Bot)       0.152816D-21        -21.815831        -50.232807
 Vib (V=0)       0.117151D+01          0.068747          0.158295
 Electronic      0.100000D+01          0.000000          0.000000
 Translational   0.230336D+08          7.362362         16.952466
 Rotational      0.363671D+05          4.560708         10.501418
 ***** Axes restored to original set *****
 -------------------------------------------------------------------
 Center     Atomic                   Forces (Hartrees/Bohr)
 Number     Number              X              Y              Z
 -------------------------------------------------------------------
      1        6          -0.000006954   -0.000002233    0.000000000
      2        7          -0.000001235    0.000002849    0.000000000
      3        7           0.000007178   -0.000005898    0.000000000
      4        7           0.000006993    0.000009554    0.000000000
      5        7          -0.000005623   -0.000004870    0.000000000
      6        1          -0.000000080    0.000000277    0.000000000
      7        1          -0.000000278    0.000000322    0.000000000
 -------------------------------------------------------------------
 Cartesian Forces:  Max     0.000009554 RMS     0.000004054
 -----------------------------------------------------------------------------------------------
                       Internal Coordinate Forces (Hartree/Bohr or radian)
  Cent   Atom   N1       Length/X         N2         Alpha/Y        N3         Beta/Z          J
 -----------------------------------------------------------------------------------------------
         X 
         X        1   0.000000(     1)
      1  C        1  -0.000007(     2)      2   0.000000(     9)
      2  N        1  -0.000003(     3)      2   0.000000(    10)      3   0.000001(    16)     0
      3  N        1  -0.000002(     4)      2   0.000000(    11)      3  -0.000022(    17)     0
      4  N        1  -0.000002(     5)      2   0.000000(    12)      3   0.000026(    18)     0
      5  N        1  -0.000006(     6)      2   0.000000(    13)      3  -0.000009(    19)     0
      6  H        3   0.000000(     7)      4   0.000001(    14)      5   0.000000(    20)     0
      7  H        4   0.000000(     8)      5   0.000000(    15)      6   0.000000(    21)     0
 -----------------------------------------------------------------------------------------------
 Internal  Forces:  Max     0.000026313 RMS     0.000008071

 GradGradGradGradGradGradGradGradGradGradGradGradGradGradGradGradGradGrad
 Berny optimization.
 Search for a local minimum.
 Step number   1 out of a maximum of    2
 All quantities printed in internal units (Hartrees-Bohrs-Radians)
 Second derivative matrix not updated -- analytic derivatives used.
 The second derivative matrix:
                          rn1       rn2       rn3       rn4       rch
           rn1          0.59617
           rn2         -0.03419   0.55198
           rn3          0.08439  -0.03743   0.55676
           rn4          0.09632   0.07846  -0.02262   0.55085
           rch         -0.00507  -0.00169   0.00034  -0.00573   0.39457
           rnh          0.01000  -0.00894  -0.00040  -0.00060   0.00021
           an1          0.10684  -0.42407  -0.17263   0.09898   0.00889
           an2          0.29859   0.03846  -0.36277  -0.12831   0.00324
           an3          0.19210   0.34401   0.06905  -0.27335  -0.00141
           an4         -0.11524   0.14974   0.34448  -0.16005  -0.01306
           ach          0.03782   0.01302  -0.01520   0.02688   0.00253
           anh         -0.05069   0.02406   0.02471  -0.01959  -0.00091
                          rnh       an1       an2       an3       an4
           rnh          0.48743
           an1         -0.01093   2.42906
           an2          0.01595  -1.11833   2.66311
           an3         -0.00393  -0.18478  -1.19181   2.17847
           an4         -0.00041  -0.17510  -0.21579  -0.65242   1.91663
           ach          0.00016   0.00417  -0.01865  -0.00419   0.09811
           anh         -0.00043  -0.05420  -0.00217   0.00100  -0.00652
                          ach       anh
           ach          0.21349
           anh          0.00091   0.21169
 ITU=  0
     Eigenvalues ---    0.00000   0.15809   0.20962   0.26611   0.39457
     Eigenvalues ---    0.48681   0.60941   0.68819   0.84290   2.25253
     Eigenvalues ---    2.75844   4.08354
 Eigenvalue     1 is  -3.12D-06 should be greater than     0.000000 Eigenvector:
                          rn4       rn1       an3       an2       rn2
   1                    0.46672  -0.46269   0.43906   0.40595  -0.28352
                          rn3       an4       an1       ach       anh
   1                    0.21381   0.20852   0.20236   0.00000   0.00000
 Angle between quadratic step and forces=  88.67 degrees.
 Linear search not attempted -- first point.
 Variable       Old X    -DE/DX   Delta X   Delta X   Delta X     New X
                                 (Linear)    (Quad)   (Total)
   rn1        2.15414   0.00000   0.00000   0.00028   0.00028   2.15441
   rn2        2.45596   0.00000   0.00000   0.00016   0.00016   2.45612
   rn3        2.25281   0.00000   0.00000  -0.00014  -0.00014   2.25267
   rn4        2.00240  -0.00001   0.00000  -0.00029  -0.00029   2.00212
   rch        2.02986   0.00000   0.00000   0.00000   0.00000   2.02986
   rnh        1.90297   0.00000   0.00000   0.00000   0.00000   1.90297
   an1        1.34783   0.00000   0.00000  -0.00013  -0.00013   1.34770
   an2        2.50108  -0.00002   0.00000  -0.00025  -0.00025   2.50083
   an3        3.60910   0.00003   0.00000  -0.00025  -0.00025   3.60884
   an4        4.89289  -0.00001   0.00000  -0.00013  -0.00013   4.89276
   ach        2.17766   0.00000   0.00000   0.00000   0.00000   2.17766
   anh        2.09075   0.00000   0.00000   0.00000   0.00000   2.09075
         Item               Value     Threshold  Converged?
 Maximum Force            0.000026     0.000450     YES
 RMS     Force            0.000010     0.000300     YES
 Maximum Displacement     0.000286     0.001800     YES
 RMS     Displacement     0.000174     0.001200     YES
 Predicted change in Energy=-2.540929D-10
 Optimization completed.
    -- Stationary point found.
                       ----------------------------
                       !   Optimized Parameters   !
                       ! (Angstroms and Degrees)  !
 ----------------------                            ----------------------
 !      Name          Value   Derivative information (Atomic Units)     !
 ------------------------------------------------------------------------
 !       rn1         1.1399   -DE/DX =    0.0                           !
 !       rn2         1.2996   -DE/DX =    0.0                           !
 !       rn3         1.1921   -DE/DX =    0.0                           !
 !       rn4         1.0596   -DE/DX =    0.0                           !
 !       rch         1.0742   -DE/DX =    0.0                           !
 !       rnh         1.007    -DE/DX =    0.0                           !
 !       an1        77.2248   -DE/DX =    0.0                           !
 !       an2       143.3016   -DE/DX =    0.0                           !
 !       an3       206.786    -DE/DX =    0.0                           !
 !       an4       280.342    -DE/DX =    0.0                           !
 !       ach       124.7707   -DE/DX =    0.0                           !
 !       anh       119.7914   -DE/DX =    0.0                           !
 ------------------------------------------------------------------------
 GradGradGradGradGradGradGradGradGradGradGradGradGradGradGradGradGradGrad

 1\1\GINC-N354\Freq\RMP2-Full\6-31G(2df,p)\C1H2N4\RDJ3\26-Nov-2013\1\\#
 N Geom=AllCheck Guess=TCheck SCRF=Check GenChk RMP2-Full/6-31G(2df,p) 
 Freq\\1H-tetrazole CH2N4 casno=288948 state=1 config=1 method=2 basis=
 19\\0,1\X\X,1,1.\C,1,1.,2,90.\N,1,rn1,2,90.,3,an1,0\N,1,rn2,2,90.,3,an
 2,0\N,1,rn3,2,90.,3,an3,0\N,1,rn4,2,90.,3,an4,0\H,3,rch,4,ach,5,180.,0
 \H,4,rnh,5,anh,6,180.,0\\rn1=1.13992091\rn2=1.29963821\rn3=1.19213744\
 rn4=1.0596262\rch=1.07415591\rnh=1.00700723\an1=77.22477763\an2=143.30
 159366\an3=206.78604287\an4=280.34197154\ach=124.77069386\anh=119.7914
 2243\\Version=EM64L-G09RevD.01\State=1-A'\HF=-256.7750305\MP2=-257.738
 1567\RMSD=2.229e-09\RMSF=4.054e-06\ZeroPoint=0.0475786\Thermal=0.05099
 48\Dipole=1.5383092,-1.4680754,0.\DipoleDeriv=0.1450557,0.120665,0.,0.
 0193122,0.426243,0.,0.,0.,0.0795106,-0.2256387,0.1571046,0.,0.1937007,
 -0.3893673,0.,0.,0.,-0.0981704,0.0781184,-0.257747,0.,-0.3279468,-0.14
 86461,0.,0.,0.,-0.106652,0.0382378,0.0652557,0.,0.2015948,-0.0352724,0
 .,0.,0.,-0.1668613,-0.3297296,-0.0726966,0.,-0.0866937,-0.2909064,0.,0
 .,0.,-0.1965994,0.081343,0.0188265,0.,0.0150287,0.111,0.,0.,0.,0.16385
 97,0.2126134,-0.0314082,0.,-0.0149959,0.3269493,0.,0.,0.,0.3249128\Pol
 ar=39.2474159,-0.5256497,36.5771458,0.,0.,18.276419\Quadrupole=0.15175
 17,0.3105466,-0.4622982,-1.6669124,0.,0.\PG=CS [SG(C1H2N4)]\NImag=0\\0
 .96027252,-0.00257018,0.63986855,0.,0.,0.14128955,-0.19181317,-0.11960
 824,0.,0.61624875,-0.12352345,-0.28064595,0.,-0.06058929,1.04539329,0.
 ,0.,-0.06547006,0.,0.,0.10427788,-0.09780286,-0.06265970,0.,-0.2861245
 5,-0.01258291,0.,0.52589343,0.00942201,-0.01343659,0.,0.04340553,-0.10
 987176,0.,0.04781439,0.48548604,0.,0.,0.02203549,0.,0.,-0.07308668,0.,
 0.,0.11829290,-0.11600521,0.06433073,0.,-0.05200314,0.03776476,0.,-0.1
 0492686,-0.04158143,0.,0.50619663,-0.01346105,0.00834781,0.,0.08986692
 ,-0.10538961,0.,0.06006950,-0.27451348,0.,-0.06950461,0.47980491,0.,0.
 ,0.02046986,0.,0.,0.02664934,0.,0.,-0.09858110,0.,0.,0.12704921,-0.188
 86781,0.14538557,0.,0.00898582,0.06025770,0.,-0.03954421,-0.09708776,0
 .,-0.22138716,-0.07201658,0.,0.45212576,0.12001569,-0.29484078,0.,-0.0
 2226583,-0.10098904,0.,-0.02696657,-0.08015497,0.,0.00534085,-0.107323
 86,0.,-0.06191495,0.57673403,0.,0.,-0.08068625,0.,0.,0.02177713,0.,0.,
 0.03669106,0.,0.,-0.09323103,0.,0.,0.11345730,-0.38104683,-0.00801499,
 0.,-0.00501310,0.00520338,0.,0.00051427,0.00181410,0.,-0.00067860,-0.0
 0034329,0.,-0.00782397,-0.00459246,0.,0.39446032,-0.00427591,-0.054428
 85,0.,-0.03164428,0.00472442,0.,-0.00285586,-0.00663475,0.,0.00626153,
 -0.00419647,0.,0.02601032,0.00862969,0.,0.00626125,0.05192433,0.,0.,-0
 .02904584,0.,0.,-0.00349191,0.,0.,0.00676278,0.,0.,0.00892793,0.,0.,-0
 .00539473,0.,0.,0.02312205,0.01526336,-0.01686317,0.,-0.09028061,0.093
 46982,0.,0.00199078,0.03621315,0.,-0.01119566,0.00538911,0.,-0.0034884
 4,-0.00961673,0.,-0.00041210,0.00024295,0.,0.08812268,0.01439289,-0.00
 486418,0.,0.10083519,-0.45322135,0.,-0.00281884,-0.00087449,0.,-0.0026
 1184,0.00327070,0.,-0.00063429,-0.00205508,0.,-0.00032799,-0.00001836,
 0.,-0.10883513,0.45776276,0.,0.,-0.00859275,0.,0.,-0.01065571,0.,0.,-0
 .01211446,0.,0.,0.00871578,0.,0.,0.00738652,0.,0.,-0.00088028,0.,0.,0.
 01614089\\0.00000695,0.00000223,0.,0.00000124,-0.00000285,0.,-0.000007
 18,0.00000590,0.,-0.00000699,-0.00000955,0.,0.00000562,0.00000487,0.,0
 .00000008,-0.00000028,0.,0.00000028,-0.00000032,0.\\\@


 ONE OF THE BENEFITS OF A COLLEGE EDUCATION
 IS TO SHOW THE BOY ITS LITTLE AVAIL 
                                    EMERSON IN 'CULTURE'
 Job cpu time:       0 days  0 hours 48 minutes 20.0 seconds.
 File lengths (MBytes):  RWF=   2637 Int=      0 D2E=      0 Chk=      3 Scr=      1
 Normal termination of Gaussian 09 at Tue Nov 26 03:53:56 2013.
