 Entering Gaussian System, Link 0=g09
 Initial command:
 /usr/local/gaussian/g09.d01.em64t.legacy.linda/g09/l1.exe "/tmp/rdj3/g09-15973/Gau-21989.inp" -scrdir="/tmp/rdj3/g09-15973/"
 Entering Link 1 = /usr/local/gaussian/g09.d01.em64t.legacy.linda/g09/l1.exe PID=     21990.
  
 Copyright (c) 1988,1990,1992,1993,1995,1998,2003,2009,2013,
            Gaussian, Inc.  All Rights Reserved.
  
 This is part of the Gaussian(R) 09 program.  It is based on
 the Gaussian(R) 03 system (copyright 2003, Gaussian, Inc.),
 the Gaussian(R) 98 system (copyright 1998, Gaussian, Inc.),
 the Gaussian(R) 94 system (copyright 1995, Gaussian, Inc.),
 the Gaussian 92(TM) system (copyright 1992, Gaussian, Inc.),
 the Gaussian 90(TM) system (copyright 1990, Gaussian, Inc.),
 the Gaussian 88(TM) system (copyright 1988, Gaussian, Inc.),
 the Gaussian 86(TM) system (copyright 1986, Carnegie Mellon
 University), and the Gaussian 82(TM) system (copyright 1983,
 Carnegie Mellon University). Gaussian is a federally registered
 trademark of Gaussian, Inc.
  
 This software contains proprietary and confidential information,
 including trade secrets, belonging to Gaussian, Inc.
  
 This software is provided under written license and may be
 used, copied, transmitted, or stored only in accord with that
 written license.
  
 The following legend is applicable only to US Government
 contracts under FAR:
  
                    RESTRICTED RIGHTS LEGEND
  
 Use, reproduction and disclosure by the US Government is
 subject to restrictions as set forth in subparagraphs (a)
 and (c) of the Commercial Computer Software - Restricted
 Rights clause in FAR 52.227-19.
  
 Gaussian, Inc.
 340 Quinnipiac St., Bldg. 40, Wallingford CT 06492
  
  
 ---------------------------------------------------------------
 Warning -- This program may not be used in any manner that
 competes with the business of Gaussian, Inc. or will provide
 assistance to any competitor of Gaussian, Inc.  The licensee
 of this program is prohibited from giving any competitor of
 Gaussian, Inc. access to this program.  By using this program,
 the user acknowledges that Gaussian, Inc. is engaged in the
 business of creating and licensing software in the field of
 computational chemistry and represents and warrants to the
 licensee that it is not a competitor of Gaussian, Inc. and that
 it will not use this program in any manner prohibited above.
 ---------------------------------------------------------------
  

 Cite this work as:
 Gaussian 09, Revision D.01,
 M. J. Frisch, G. W. Trucks, H. B. Schlegel, G. E. Scuseria, 
 M. A. Robb, J. R. Cheeseman, G. Scalmani, V. Barone, B. Mennucci, 
 G. A. Petersson, H. Nakatsuji, M. Caricato, X. Li, H. P. Hratchian, 
 A. F. Izmaylov, J. Bloino, G. Zheng, J. L. Sonnenberg, M. Hada, 
 M. Ehara, K. Toyota, R. Fukuda, J. Hasegawa, M. Ishida, T. Nakajima, 
 Y. Honda, O. Kitao, H. Nakai, T. Vreven, J. A. Montgomery, Jr., 
 J. E. Peralta, F. Ogliaro, M. Bearpark, J. J. Heyd, E. Brothers, 
 K. N. Kudin, V. N. Staroverov, T. Keith, R. Kobayashi, J. Normand, 
 K. Raghavachari, A. Rendell, J. C. Burant, S. S. Iyengar, J. Tomasi, 
 M. Cossi, N. Rega, J. M. Millam, M. Klene, J. E. Knox, J. B. Cross, 
 V. Bakken, C. Adamo, J. Jaramillo, R. Gomperts, R. E. Stratmann, 
 O. Yazyev, A. J. Austin, R. Cammi, C. Pomelli, J. W. Ochterski, 
 R. L. Martin, K. Morokuma, V. G. Zakrzewski, G. A. Voth, 
 P. Salvador, J. J. Dannenberg, S. Dapprich, A. D. Daniels, 
 O. Farkas, J. B. Foresman, J. V. Ortiz, J. Cioslowski, 
 and D. J. Fox, Gaussian, Inc., Wallingford CT, 2013.
 
 ******************************************
 Gaussian 09:  EM64L-G09RevD.01 24-Apr-2013
                26-Nov-2013 
 ******************************************
 %Nproc=8
 Will use up to    8 processors via shared memory.
 %mem=436000000
 -----------------------------------------
 #MP2=FUll/3-21G opt=z-matrix freq density
 -----------------------------------------
 1/10=7,18=40,38=1/1,3;
 2/12=2,17=6,18=5,29=3,40=1/2;
 3/5=5,11=9,16=1,25=1,30=1,71=1/1,2,3;
 4//1;
 5/5=2,38=5/2;
 8/6=4,10=90/1;
 9/15=2,16=-3/6;
 10/5=1/2;
 6/7=2,8=2,9=2,10=2,22=-1/1;
 7/12=2,29=1/1,2,3,16;
 1/10=7,18=40/3(2);
 2/29=3/2;
 99//99;
 2/29=3/2;
 3/5=5,11=9,16=1,25=1,30=1,71=1/1,2,3;
 4/5=5,16=3,69=1/1;
 5/5=2,38=5/2;
 8/6=4,10=90/1;
 9/15=2,16=-3/6;
 10/5=1/2;
 7/12=2/1,2,3,16;
 1/18=40/3(-8);
 2/29=3/2;
 6/7=2,8=2,9=2,10=2,22=-1/1;
 99//99;
 -----------------------------------------------------------------
 1H-tetrazole CH2N4 casno=288948 state=1 config=1 method=2 basis=2
 -----------------------------------------------------------------
 Symbolic Z-matrix:
 Charge =  0 Multiplicity = 1
 X
 X                    1     1. 
 C                    1     1.       2     90. 
 N                    1    rn1      2     90.      3    an1      0
 N                    1    rn2      2     90.      3    an2      0
 N                    1    rn3      2     90.      3    an3      0
 N                    1    rn4      2     90.      3    an4      0
 H                    3    rch      4    ach      5     180.     0
 H                    4    rnh      5    anh      6     180.     0
       Variables:
  rn1                   1.2426                   
  rn2                   1.333                    
  rn3                   1.1146                   
  rn4                   0.9264                   
  rch                   1.0678                   
  rnh                   0.9941                   
  an1                  71.8427                   
  an2                 133.7028                   
  an3                 194.4597                   
  an4                 276.0768                   
  ach                 125.0248                   
  anh                 120.7626                   
 

 GradGradGradGradGradGradGradGradGradGradGradGradGradGradGradGradGradGrad
 Berny optimization.
 Initialization pass.
                       ----------------------------
                       !    Initial Parameters    !
                       ! (Angstroms and Degrees)  !
 ----------------------                            ----------------------
 !      Name          Value   Derivative information (Atomic Units)     !
 ------------------------------------------------------------------------
 !       rn1         1.2426   estimate D2E/DX2                          !
 !       rn2         1.333    estimate D2E/DX2                          !
 !       rn3         1.1146   estimate D2E/DX2                          !
 !       rn4         0.9264   estimate D2E/DX2                          !
 !       rch         1.0678   estimate D2E/DX2                          !
 !       rnh         0.9941   estimate D2E/DX2                          !
 !       an1        71.8427   estimate D2E/DX2                          !
 !       an2       133.7028   estimate D2E/DX2                          !
 !       an3       194.4597   estimate D2E/DX2                          !
 !       an4       276.0768   estimate D2E/DX2                          !
 !       ach       125.0248   estimate D2E/DX2                          !
 !       anh       120.7626   estimate D2E/DX2                          !
 ------------------------------------------------------------------------
 Trust Radius=3.00D-01 FncErr=1.00D-07 GrdErr=1.00D-07
 Number of steps in this run=     22 maximum allowed number of steps=    100.
 GradGradGradGradGradGradGradGradGradGradGradGradGradGradGradGradGradGrad

 ---------------------------------------------------------------------------------------------------
                            Z-MATRIX (ANGSTROMS AND DEGREES)
   CD    Cent   Atom    N1       Length/X        N2       Alpha/Y        N3        Beta/Z          J
 ---------------------------------------------------------------------------------------------------
      1         X 
      2         X        1   1.000000(     1)
      3      1  C        1   1.000000(     2)      2   90.000(     9)
      4      2  N        1   1.242600(     3)      2   90.000(    10)      3   71.843(    16)      0
      5      3  N        1   1.333000(     4)      2   90.000(    11)      3  133.703(    17)      0
      6      4  N        1   1.114600(     5)      2   90.000(    12)      3  194.460(    18)      0
      7      5  N        1   0.926400(     6)      2   90.000(    13)      3  276.077(    19)      0
      8      6  H        3   1.067800(     7)      4  125.025(    14)      5  180.000(    20)      0
      9      7  H        4   0.994100(     8)      5  120.763(    15)      6  180.000(    21)      0
 ---------------------------------------------------------------------------------------------------
                         Z-Matrix orientation:                         
 ---------------------------------------------------------------------
 Center     Atomic      Atomic             Coordinates (Angstroms)
 Number     Number       Type             X           Y           Z
 ---------------------------------------------------------------------
      1         -1           0        0.000000    0.000000    0.000000
      2         -1           0        0.000000    0.000000    1.000000
      3          6           0        1.000000    0.000000    0.000000
      4          7           0        0.387228   -1.180724    0.000000
      5          7           0       -0.920993   -0.963670    0.000000
      6          7           0       -1.079293    0.278314    0.000000
      7          7           0        0.098070    0.921194    0.000000
      8          1           0        2.058429    0.141157    0.000000
      9          1           0        0.749017   -2.106652    0.000000
 ---------------------------------------------------------------------
                    Distance matrix (angstroms):
                    1          2          3          4          5
     1  X    0.000000
     2  X    1.000000   0.000000
     3  C    1.000000   1.414214   0.000000
     4  N    1.242600   1.595009   1.330263   0.000000
     5  N    1.333000   1.666400   2.149157   1.326105   0.000000
     6  N    1.114600   1.497442   2.097837   2.068690   1.252032
     7  N    0.926400   1.363164   1.289216   2.121715   2.142710
     8  H    2.063263   2.292827   1.067800   2.130794   3.177672
     9  H    2.235847   2.449288   2.121551   0.994100   2.023695
                    6          7          8          9
     6  N    0.000000
     7  N    1.341447   0.000000
     8  H    3.140719   2.109850   0.000000
     9  H    3.005127   3.097029   2.601385   0.000000
 Stoichiometry    CH2N4
 Framework group  CS[SG(CH2N4)]
 Deg. of freedom    11
 Full point group                 CS      NOp   2
 Largest Abelian subgroup         CS      NOp   2
 Largest concise Abelian subgroup C1      NOp   1
                         Standard orientation:                         
 ---------------------------------------------------------------------
 Center     Atomic      Atomic             Coordinates (Angstroms)
 Number     Number       Type             X           Y           Z
 ---------------------------------------------------------------------
      1          6           0        1.052733    0.225621    0.000000
      2          7           0        0.000000    1.038857    0.000000
      3          7           0       -1.095416    0.291448    0.000000
      4          7           0       -0.716382   -0.901832    0.000000
      5          7           0        0.622191   -0.989579    0.000000
      6          1           0        2.072287    0.542964    0.000000
      7          1           0       -0.061439    2.031056    0.000000
 ---------------------------------------------------------------------
 Rotational constants (GHZ):     10.9201517     10.7345054      5.4132664
 Standard basis: 3-21G (6D, 7F)
 There are    39 symmetry adapted cartesian basis functions of A'  symmetry.
 There are    10 symmetry adapted cartesian basis functions of A"  symmetry.
 There are    39 symmetry adapted basis functions of A'  symmetry.
 There are    10 symmetry adapted basis functions of A"  symmetry.
    49 basis functions,    81 primitive gaussians,    49 cartesian basis functions
    18 alpha electrons       18 beta electrons
       nuclear repulsion energy       169.8308489506 Hartrees.
 NAtoms=    7 NActive=    7 NUniq=    7 SFac= 1.00D+00 NAtFMM=   60 NAOKFM=F Big=F
 Integral buffers will be    131072 words long.
 Raffenetti 1 integral format.
 Two-electron integral symmetry is turned on.
 One-electron integrals computed using PRISM.
 NBasis=    49 RedAO= T EigKep=  1.68D-02  NBF=    39    10
 NBsUse=    49 1.00D-06 EigRej= -1.00D+00 NBFU=    39    10
 ExpMin= 1.83D-01 ExpMax= 2.43D+02 ExpMxC= 2.43D+02 IAcc=1 IRadAn=         1 AccDes= 0.00D+00
 Harris functional with IExCor=  205 and IRadAn=       1 diagonalized for initial guess.
 HarFok:  IExCor=  205 AccDes= 0.00D+00 IRadAn=         1 IDoV= 1 UseB2=F ITyADJ=14
 ICtDFT=  3500011 ScaDFX=  1.000000  1.000000  1.000000  1.000000
 FoFCou: FMM=F IPFlag=           0 FMFlag=      100000 FMFlg1=           0
         NFxFlg=           0 DoJE=T BraDBF=F KetDBF=T FulRan=T
         wScrn=  0.000000 ICntrl=     500 IOpCl=  0 I1Cent=   200000004 NGrid=           0
         NMat0=    1 NMatS0=      1 NMatT0=    0 NMatD0=    1 NMtDS0=    0 NMtDT0=    0
 Petite list used in FoFCou.
 Initial guess orbital symmetries:
       Occupied  (A') (A') (A') (A') (A') (A') (A') (A') (A') (A')
                 (A') (A') (A") (A') (A") (A") (A') (A')
       Virtual   (A") (A") (A') (A') (A') (A') (A') (A') (A') (A')
                 (A") (A') (A') (A') (A') (A") (A') (A") (A') (A")
                 (A') (A") (A') (A') (A') (A') (A') (A') (A') (A')
                 (A')
 The electronic state of the initial guess is 1-A'.
 Keep R1 ints in memory in symmetry-blocked form, NReq=1592300.
 Requested convergence on RMS density matrix=1.00D-08 within 128 cycles.
 Requested convergence on MAX density matrix=1.00D-06.
 Requested convergence on             energy=1.00D-06.
 No special actions if energy rises.
 SCF Done:  E(RHF) =  -255.261114440     A.U. after   14 cycles
            NFock= 14  Conv=0.56D-08     -V/T= 2.0004
 Range of M.O.s used for correlation:     1    49
 NBasis=    49 NAE=    18 NBE=    18 NFC=     0 NFV=     0
 NROrb=     49 NOA=    18 NOB=    18 NVA=    31 NVB=    31
 Fully direct method using O(ONN) memory.
 JobTyp=1 Pass  1:  I=   1 to  18 NPSUse=  8 ParTrn=T ParDer=T DoDerP=T.
 Spin components of T(2) and E(2):
     alpha-alpha T2 =       0.2577070528D-01 E2=     -0.7131793280D-01
     alpha-beta  T2 =       0.1397266094D+00 E2=     -0.3903552419D+00
     beta-beta   T2 =       0.2577070528D-01 E2=     -0.7131793280D-01
 ANorm=    0.1091452253D+01
 E2 =    -0.5329911075D+00 EUMP2 =    -0.25579410554770D+03
          IDoAtm=1111111
          Differentiating once with respect to electric field.
                with respect to dipole field.
          Differentiating once with respect to nuclear coordinates.
 Keep R1 ints in memory in symmetry-blocked form, NReq=1570884.
          There are     1 degrees of freedom in the 1st order CPHF.  IDoFFX=0 NUNeed=     1.
 LinEq1:  Iter=  0 NonCon=     1 RMS=9.22D-03 Max=6.86D-02 NDo=     1
 AX will form     1 AO Fock derivatives at one time.
 LinEq1:  Iter=  1 NonCon=     1 RMS=2.19D-03 Max=1.33D-02 NDo=     1
 LinEq1:  Iter=  2 NonCon=     1 RMS=6.86D-04 Max=1.03D-02 NDo=     1
 LinEq1:  Iter=  3 NonCon=     1 RMS=2.20D-04 Max=1.37D-03 NDo=     1
 LinEq1:  Iter=  4 NonCon=     1 RMS=7.43D-05 Max=4.31D-04 NDo=     1
 LinEq1:  Iter=  5 NonCon=     1 RMS=2.19D-05 Max=2.84D-04 NDo=     1
 LinEq1:  Iter=  6 NonCon=     1 RMS=8.81D-06 Max=7.73D-05 NDo=     1
 LinEq1:  Iter=  7 NonCon=     1 RMS=2.97D-06 Max=3.41D-05 NDo=     1
 LinEq1:  Iter=  8 NonCon=     1 RMS=1.40D-06 Max=2.12D-05 NDo=     1
 LinEq1:  Iter=  9 NonCon=     1 RMS=2.79D-07 Max=2.17D-06 NDo=     1
 LinEq1:  Iter= 10 NonCon=     1 RMS=5.67D-08 Max=3.64D-07 NDo=     1
 LinEq1:  Iter= 11 NonCon=     1 RMS=2.43D-08 Max=1.60D-07 NDo=     1
 LinEq1:  Iter= 12 NonCon=     1 RMS=4.64D-09 Max=3.48D-08 NDo=     1
 LinEq1:  Iter= 13 NonCon=     1 RMS=6.02D-10 Max=4.39D-09 NDo=     1
 LinEq1:  Iter= 14 NonCon=     0 RMS=7.75D-11 Max=4.82D-10 NDo=     1
 Linear equations converged to 1.000D-10 1.000D-09 after    14 iterations.
 End of Minotr F.D. properties file   721 does not exist.
 End of Minotr F.D. properties file   722 does not exist.
 End of Minotr F.D. properties file   788 does not exist.

 **********************************************************************

            Population analysis using the MP2 density.

 **********************************************************************

 Orbital symmetries:
       Occupied  (A') (A') (A') (A') (A') (A') (A') (A') (A') (A')
                 (A') (A") (A') (A') (A") (A') (A') (A")
       Virtual   (A") (A") (A') (A') (A') (A') (A') (A') (A') (A")
                 (A') (A') (A') (A') (A") (A') (A') (A") (A') (A")
                 (A') (A") (A') (A') (A') (A') (A') (A') (A') (A')
                 (A')
 The electronic state is 1-A'.
 Alpha  occ. eigenvalues --  -15.61939 -15.59728 -15.57344 -15.53664 -11.29263
 Alpha  occ. eigenvalues --   -1.56604  -1.28794  -1.23647  -0.92126  -0.90654
 Alpha  occ. eigenvalues --   -0.82215  -0.70640  -0.68746  -0.57036  -0.47109
 Alpha  occ. eigenvalues --   -0.47064  -0.45414  -0.43574
 Alpha virt. eigenvalues --    0.14680   0.20552   0.23545   0.28011   0.40590
 Alpha virt. eigenvalues --    0.41799   0.55279   0.58002   0.71429   0.93304
 Alpha virt. eigenvalues --    0.95217   1.06185   1.10335   1.21844   1.32054
 Alpha virt. eigenvalues --    1.33618   1.37244   1.38544   1.41758   1.46076
 Alpha virt. eigenvalues --    1.46644   1.51174   1.52797   1.65022   1.69060
 Alpha virt. eigenvalues --    1.75935   1.96570   2.40711   2.70611   2.99162
 Alpha virt. eigenvalues --    3.06310
          Condensed to atoms (all electrons):
               1          2          3          4          5          6
     1  C    5.090429   0.137818  -0.127789  -0.134451   0.341869   0.355763
     2  N    0.137818   7.293063   0.091687  -0.148938  -0.090965  -0.041851
     3  N   -0.127789   0.091687   7.021985   0.188077  -0.140005   0.001820
     4  N   -0.134451  -0.148938   0.188077   6.957198   0.220542   0.004149
     5  N    0.341869  -0.090965  -0.140005   0.220542   7.038572  -0.027490
     6  H    0.355763  -0.041851   0.001820   0.004149  -0.027490   0.431344
     7  H   -0.013118   0.312224  -0.018383   0.004217   0.003300   0.001068
               7
     1  C   -0.013118
     2  N    0.312224
     3  N   -0.018383
     4  N    0.004217
     5  N    0.003300
     6  H    0.001068
     7  H    0.328322
 Mulliken charges:
               1
     1  C    0.349480
     2  N   -0.553037
     3  N   -0.017392
     4  N   -0.090794
     5  N   -0.345823
     6  H    0.275196
     7  H    0.382370
 Sum of Mulliken charges =   0.00000
 Mulliken charges with hydrogens summed into heavy atoms:
               1
     1  C    0.624676
     2  N   -0.170667
     3  N   -0.017392
     4  N   -0.090794
     5  N   -0.345823
 Electronic spatial extent (au):  <R**2>=            245.7374
 Charge=              0.0000 electrons
 Dipole moment (field-independent basis, Debye):
    X=              2.5445    Y=              5.0463    Z=              0.0000  Tot=              5.6515
 Quadrupole moment (field-independent basis, Debye-Ang):
   XX=            -29.8575   YY=            -27.0784   ZZ=            -28.2798
   XY=              1.6969   XZ=              0.0000   YZ=              0.0000
 Traceless Quadrupole moment (field-independent basis, Debye-Ang):
   XX=             -1.4523   YY=              1.3269   ZZ=              0.1254
   XY=              1.6969   XZ=              0.0000   YZ=              0.0000
 Octapole moment (field-independent basis, Debye-Ang**2):
  XXX=             11.2261  YYY=             22.7138  ZZZ=              0.0000  XYY=             -0.6630
  XXY=              4.5357  XXZ=              0.0000  XZZ=             -1.0937  YZZ=              0.2550
  YYZ=              0.0000  XYZ=              0.0000
 Hexadecapole moment (field-independent basis, Debye-Ang**3):
 XXXX=           -137.6125 YYYY=           -113.5488 ZZZZ=            -23.0160 XXXY=              5.8250
 XXXZ=              0.0000 YYYX=             -0.8771 YYYZ=              0.0000 ZZZX=              0.0000
 ZZZY=              0.0000 XXYY=            -51.4630 XXZZ=            -28.8143 YYZZ=            -26.7318
 XXYZ=              0.0000 YYXZ=              0.0000 ZZXY=             -0.3605
 N-N= 1.698308489506D+02 E-N=-9.381727062336D+02  KE= 2.561227950977D+02
 Symmetry A'   KE= 2.466712537951D+02
 Symmetry A"   KE= 9.451541302539D+00
 Calling FoFJK, ICntrl=  10002127 FMM=F ISym2X=1 I1Cent= 0 IOpClX= 0 NMat=1 NMatS=1 NMatT=0.
 ***** Axes restored to original set *****
 -------------------------------------------------------------------
 Center     Atomic                   Forces (Hartrees/Bohr)
 Number     Number              X              Y              Z
 -------------------------------------------------------------------
      1        6           0.070560388   -0.005285765    0.000000000
      2        7           0.053392192   -0.047125785    0.000000000
      3        7          -0.065554340   -0.103570207    0.000000000
      4        7          -0.094949772    0.080231435    0.000000000
      5        7           0.026079312    0.089162651    0.000000000
      6        1           0.004163023    0.000815416    0.000000000
      7        1           0.006309196   -0.014227746    0.000000000
 -------------------------------------------------------------------
 Cartesian Forces:  Max     0.103570207 RMS     0.048523590
 -----------------------------------------------------------------------------------------------
                       Internal Coordinate Forces (Hartree/Bohr or radian)
  Cent   Atom   N1       Length/X         N2         Alpha/Y        N3         Beta/Z          J
 -----------------------------------------------------------------------------------------------
         X 
         X        1   0.000000(     1)
      1  C        1   0.074540(     2)      2   0.000000(     9)
      2  N        1   0.076587(     3)      2   0.000000(    10)      3  -0.089222(    16)     0
      3  N        1   0.120600(     4)      2   0.000000(    11)      3  -0.061620(    17)     0
      4  N        1   0.111976(     5)      2   0.000000(    12)      3   0.113700(    18)     0
      5  N        1   0.091422(     6)      2   0.000000(    13)      3   0.028875(    19)     0
      6  H        3   0.004234(     7)      4   0.000520(    14)      5   0.000000(    20)     0
      7  H        4   0.015548(     8)      5   0.001312(    15)      6   0.000000(    21)     0
 -----------------------------------------------------------------------------------------------
 Internal  Forces:  Max     0.120599692 RMS     0.058815012

 GradGradGradGradGradGradGradGradGradGradGradGradGradGradGradGradGradGrad
 Berny optimization.
 Search for a local minimum.
 Step number   1 out of a maximum of   22
 All quantities printed in internal units (Hartrees-Bohrs-Radians)
 Second derivative matrix not updated -- first step.
 The second derivative matrix:
                          rn1       rn2       rn3       rn4       rch
           rn1          0.65186
           rn2          0.01318   0.69869
           rn3          0.03472   0.07334   0.58262
           rn4          0.03688   0.02662   0.13967   0.63921
           rch          0.00000   0.00000   0.00000   0.00000   0.37510
           rnh          0.00000   0.00000   0.00000   0.00000   0.00000
           an1          0.02012  -0.75016   0.04258  -0.08486   0.00000
           an2          0.72119  -0.31234  -0.71865   0.05436   0.00000
           an3         -0.02914   1.04797   0.05412  -0.58583   0.00000
           an4          0.05328  -0.03228   0.65851  -0.10009   0.00000
           ach          0.04546   0.00000   0.00000   0.05066   0.00000
           anh         -0.10206   0.05276   0.00000   0.00000   0.00000
                          rnh       an1       an2       an3       an4
           rnh          0.48741
           an1          0.00000   4.53257
           an2          0.00000  -2.68051   6.02300
           an3          0.00000  -0.03573  -3.19618   4.47465
           an4          0.00000  -0.12258  -0.06592  -1.16042   2.58479
           ach          0.00000  -0.10460   0.00000   0.00000   0.07318
           anh          0.00000   0.03519  -0.09059   0.00000   0.00000
                          ach       anh
           ach          0.32000
           anh          0.00000   0.32000
 ITU=  0
     Eigenvalues ---    0.00000   0.13346   0.26445   0.33044   0.37510
     Eigenvalues ---    0.40158   0.48741   0.75609   1.20990   2.99509
     Eigenvalues ---    5.09563   9.64077
 RFO step:  Lambda=-5.06632805D-02 EMin=-6.95624114D-16
 Linear search not attempted -- first point.
 Variable       Old X    -DE/DX   Delta X   Delta X   Delta X     New X
                                 (Linear)    (Quad)   (Total)
   rn1        2.34817   0.07659   0.00000   0.06910   0.06910   2.41728
   rn2        2.51900   0.12060   0.00000   0.14630   0.14630   2.66530
   rn3        2.10629   0.11198   0.00000   0.18665   0.18665   2.29294
   rn4        1.75064   0.09142   0.00000   0.09476   0.09476   1.84540
   rch        2.01785   0.00423   0.00000   0.00995   0.00995   2.02779
   rnh        1.87858   0.01555   0.00000   0.02890   0.02890   1.90747
   an1        1.25389  -0.08922   0.00000   0.01842   0.01842   1.27232
   an2        2.33355  -0.06162   0.00000   0.02571   0.02571   2.35926
   an3        3.39396   0.11370   0.00000   0.01393   0.01393   3.40789
   an4        4.81845   0.02887   0.00000  -0.02377  -0.02377   4.79468
   ach        2.18209   0.00052   0.00000  -0.01013  -0.01013   2.17197
   anh        2.10770   0.00131   0.00000   0.00628   0.00628   2.11398
         Item               Value     Threshold  Converged?
 Maximum Force            0.120600     0.000450     NO 
 RMS     Force            0.074770     0.000300     NO 
 Maximum Displacement     0.186649     0.001800     NO 
 RMS     Displacement     0.077905     0.001200     NO 
 Predicted change in Energy=-2.717657D-02
 GradGradGradGradGradGradGradGradGradGradGradGradGradGradGradGradGradGrad

 ---------------------------------------------------------------------------------------------------
                            Z-MATRIX (ANGSTROMS AND DEGREES)
   CD    Cent   Atom    N1       Length/X        N2       Alpha/Y        N3        Beta/Z          J
 ---------------------------------------------------------------------------------------------------
      1         X 
      2         X        1   1.000000(     1)
      3      1  C        1   1.000000(     2)      2   90.000(     9)
      4      2  N        1   1.279168(     3)      2   90.000(    10)      3   72.898(    16)      0
      5      3  N        1   1.410418(     4)      2   90.000(    11)      3  135.176(    17)      0
      6      4  N        1   1.213370(     5)      2   90.000(    12)      3  195.258(    18)      0
      7      5  N        1   0.976544(     6)      2   90.000(    13)      3  274.715(    19)      0
      8      6  H        3   1.073063(     7)      4  124.444(    14)      5  180.000(    20)      0
      9      7  H        4   1.009391(     8)      5  121.122(    15)      6  180.000(    21)      0
 ---------------------------------------------------------------------------------------------------
                         Z-Matrix orientation:                         
 ---------------------------------------------------------------------
 Center     Atomic      Atomic             Coordinates (Angstroms)
 Number     Number       Type             X           Y           Z
 ---------------------------------------------------------------------
      1         -1           0        0.000000    0.000000    0.000000
      2         -1           0        0.000000    0.000000    1.000000
      3          6           0        1.000000    0.000000    0.000000
      4          7           0        0.376163   -1.222608    0.000000
      5          7           0       -1.000371   -0.994253    0.000000
      6          7           0       -1.170600    0.319316    0.000000
      7          7           0        0.080268    0.973240    0.000000
      8          1           0        2.064098    0.138418    0.000000
      9          1           0        0.749434   -2.160446    0.000000
 ---------------------------------------------------------------------
                    Distance matrix (angstroms):
                    1          2          3          4          5
     1  X    0.000000
     2  X    1.000000   0.000000
     3  C    1.000000   1.414214   0.000000
     4  N    1.279168   1.623659   1.372568   0.000000
     5  N    1.410418   1.728953   2.233836   1.395346   0.000000
     6  N    1.213370   1.572345   2.193962   2.184034   1.324553
     7  N    0.976544   1.397726   1.339068   2.215695   2.244728
     8  H    2.068734   2.297751   1.073063   2.168298   3.267095
     9  H    2.286739   2.495832   2.174927   1.009391   2.102813
                    6          7          8          9
     6  N    0.000000
     7  N    1.411484   0.000000
     8  H    3.239752   2.152326   0.000000
     9  H    3.136200   3.204336   2.648229   0.000000
 Stoichiometry    CH2N4
 Framework group  CS[SG(CH2N4)]
 Deg. of freedom    11
 Full point group                 CS      NOp   2
 Largest Abelian subgroup         CS      NOp   2
 Largest concise Abelian subgroup C1      NOp   1
                         Standard orientation:                         
 ---------------------------------------------------------------------
 Center     Atomic      Atomic             Coordinates (Angstroms)
 Number     Number       Type             X           Y           Z
 ---------------------------------------------------------------------
      1          6           0        1.085314    0.250416    0.000000
      2          7           0        0.000000    1.090677    0.000000
      3          7           0       -1.148024    0.297562    0.000000
      4          7           0       -0.742331   -0.963332    0.000000
      5          7           0        0.667936   -1.021944    0.000000
      6          1           0        2.106962    0.578592    0.000000
      7          1           0       -0.061910    2.098168    0.000000
 ---------------------------------------------------------------------
 Rotational constants (GHZ):      9.9270792      9.9081141      4.9587938
 Standard basis: 3-21G (6D, 7F)
 There are    39 symmetry adapted cartesian basis functions of A'  symmetry.
 There are    10 symmetry adapted cartesian basis functions of A"  symmetry.
 There are    39 symmetry adapted basis functions of A'  symmetry.
 There are    10 symmetry adapted basis functions of A"  symmetry.
    49 basis functions,    81 primitive gaussians,    49 cartesian basis functions
    18 alpha electrons       18 beta electrons
       nuclear repulsion energy       162.6197695186 Hartrees.
 NAtoms=    7 NActive=    7 NUniq=    7 SFac= 1.00D+00 NAtFMM=   60 NAOKFM=F Big=F
 Integral buffers will be    131072 words long.
 Raffenetti 1 integral format.
 Two-electron integral symmetry is turned on.
 One-electron integrals computed using PRISM.
 NBasis=    49 RedAO= T EigKep=  2.05D-02  NBF=    39    10
 NBsUse=    49 1.00D-06 EigRej= -1.00D+00 NBFU=    39    10
 Initial guess from the checkpoint file:  "/tmp/rdj3/g09-15973/Gau-21990.chk"
 B after Tr=     0.000000    0.000000    0.000000
         Rot=    0.999987    0.000000    0.000000   -0.005118 Ang=  -0.59 deg.
 Initial guess orbital symmetries:
       Occupied  (A') (A') (A') (A') (A') (A') (A') (A') (A') (A')
                 (A') (A") (A') (A') (A") (A') (A') (A")
       Virtual   (A') (A') (A') (A') (A') (A') (A') (A') (A') (A')
                 (A') (A') (A') (A') (A') (A') (A') (A') (A') (A')
                 (A') (A') (A') (A') (A") (A") (A") (A") (A") (A")
                 (A")
 ExpMin= 1.83D-01 ExpMax= 2.43D+02 ExpMxC= 2.43D+02 IAcc=1 IRadAn=         1 AccDes= 0.00D+00
 Harris functional with IExCor=  205 and IRadAn=       1 diagonalized for initial guess.
 HarFok:  IExCor=  205 AccDes= 0.00D+00 IRadAn=         1 IDoV= 1 UseB2=F ITyADJ=14
 ICtDFT=  3500011 ScaDFX=  1.000000  1.000000  1.000000  1.000000
 FoFCou: FMM=F IPFlag=           0 FMFlag=      100000 FMFlg1=           0
         NFxFlg=           0 DoJE=T BraDBF=F KetDBF=T FulRan=T
         wScrn=  0.000000 ICntrl=     500 IOpCl=  0 I1Cent=   200000004 NGrid=           0
         NMat0=    1 NMatS0=      1 NMatT0=    0 NMatD0=    1 NMtDS0=    0 NMtDT0=    0
 Petite list used in FoFCou.
 Keep R1 ints in memory in symmetry-blocked form, NReq=1592180.
 Requested convergence on RMS density matrix=1.00D-08 within 128 cycles.
 Requested convergence on MAX density matrix=1.00D-06.
 Requested convergence on             energy=1.00D-06.
 No special actions if energy rises.
 SCF Done:  E(RHF) =  -255.263817522     A.U. after   15 cycles
            NFock= 15  Conv=0.91D-08     -V/T= 2.0043
 Range of M.O.s used for correlation:     1    49
 NBasis=    49 NAE=    18 NBE=    18 NFC=     0 NFV=     0
 NROrb=     49 NOA=    18 NOB=    18 NVA=    31 NVB=    31
 Fully direct method using O(ONN) memory.
 JobTyp=1 Pass  1:  I=   1 to  18 NPSUse=  8 ParTrn=T ParDer=T DoDerP=T.
 Spin components of T(2) and E(2):
     alpha-alpha T2 =       0.2923788166D-01 E2=     -0.7513778254D-01
     alpha-beta  T2 =       0.1580665201D+00 E2=     -0.4105269149D+00
     beta-beta   T2 =       0.2923788166D-01 E2=     -0.7513778254D-01
 ANorm=    0.1102969756D+01
 E2 =    -0.5608024800D+00 EUMP2 =    -0.25582462000193D+03
          IDoAtm=1111111
          Differentiating once with respect to electric field.
                with respect to dipole field.
          Differentiating once with respect to nuclear coordinates.
 Keep R1 ints in memory in symmetry-blocked form, NReq=1570705.
          There are     1 degrees of freedom in the 1st order CPHF.  IDoFFX=0 NUNeed=     1.
 LinEq1:  Iter=  0 NonCon=     1 RMS=1.05D-02 Max=7.82D-02 NDo=     1
 AX will form     1 AO Fock derivatives at one time.
 LinEq1:  Iter=  1 NonCon=     1 RMS=2.67D-03 Max=1.40D-02 NDo=     1
 LinEq1:  Iter=  2 NonCon=     1 RMS=9.80D-04 Max=1.57D-02 NDo=     1
 LinEq1:  Iter=  3 NonCon=     1 RMS=4.05D-04 Max=3.20D-03 NDo=     1
 LinEq1:  Iter=  4 NonCon=     1 RMS=1.18D-04 Max=7.04D-04 NDo=     1
 LinEq1:  Iter=  5 NonCon=     1 RMS=5.41D-05 Max=7.50D-04 NDo=     1
 LinEq1:  Iter=  6 NonCon=     1 RMS=2.01D-05 Max=2.61D-04 NDo=     1
 LinEq1:  Iter=  7 NonCon=     1 RMS=8.29D-06 Max=1.09D-04 NDo=     1
 LinEq1:  Iter=  8 NonCon=     1 RMS=3.41D-06 Max=4.65D-05 NDo=     1
 LinEq1:  Iter=  9 NonCon=     1 RMS=6.13D-07 Max=4.45D-06 NDo=     1
 LinEq1:  Iter= 10 NonCon=     1 RMS=8.16D-08 Max=4.49D-07 NDo=     1
 LinEq1:  Iter= 11 NonCon=     1 RMS=3.55D-08 Max=2.37D-07 NDo=     1
 LinEq1:  Iter= 12 NonCon=     1 RMS=1.07D-08 Max=7.32D-08 NDo=     1
 LinEq1:  Iter= 13 NonCon=     1 RMS=1.65D-09 Max=1.35D-08 NDo=     1
 LinEq1:  Iter= 14 NonCon=     1 RMS=2.27D-10 Max=1.44D-09 NDo=     1
 LinEq1:  Iter= 15 NonCon=     0 RMS=3.30D-11 Max=2.54D-10 NDo=     1
 Linear equations converged to 1.000D-10 1.000D-09 after    15 iterations.
 End of Minotr F.D. properties file   721 does not exist.
 End of Minotr F.D. properties file   722 does not exist.
 End of Minotr F.D. properties file   788 does not exist.
 Calling FoFJK, ICntrl=  10002127 FMM=F ISym2X=1 I1Cent= 0 IOpClX= 0 NMat=1 NMatS=1 NMatT=0.
 ***** Axes restored to original set *****
 -------------------------------------------------------------------
 Center     Atomic                   Forces (Hartrees/Bohr)
 Number     Number              X              Y              Z
 -------------------------------------------------------------------
      1        6           0.006836886   -0.004139438    0.000000000
      2        7           0.017293863    0.003562274    0.000000000
      3        7          -0.022604467   -0.042614866    0.000000000
      4        7          -0.024997992    0.022124028    0.000000000
      5        7           0.022430903    0.023609637    0.000000000
      6        1           0.000756819    0.000568518    0.000000000
      7        1           0.000283987   -0.003110154    0.000000000
 -------------------------------------------------------------------
 Cartesian Forces:  Max     0.042614866 RMS     0.015256874
 -----------------------------------------------------------------------------------------------
                       Internal Coordinate Forces (Hartree/Bohr or radian)
  Cent   Atom   N1       Length/X         N2         Alpha/Y        N3         Beta/Z          J
 -----------------------------------------------------------------------------------------------
         X 
         X        1   0.000000(     1)
      1  C        1   0.007269(     2)      2   0.000000(     9)
      2  N        1   0.005564(     3)      2   0.000000(    10)      3  -0.040873(    16)     0
      3  N        1   0.045553(     4)      2   0.000000(    11)      3  -0.037091(    17)     0
      4  N        1   0.029939(     5)      2   0.000000(    12)      3   0.033857(    18)     0
      5  N        1   0.025373(     6)      2   0.000000(    13)      3   0.037673(    19)     0
      6  H        3   0.000824(     7)      4   0.000945(    14)      5   0.000000(    20)     0
      7  H        4   0.002995(     8)      5  -0.001691(    15)      6   0.000000(    21)     0
 -----------------------------------------------------------------------------------------------
 Internal  Forces:  Max     0.045553137 RMS     0.021071678

 GradGradGradGradGradGradGradGradGradGradGradGradGradGradGradGradGradGrad
 Berny optimization.
 Search for a local minimum.
 Step number   2 out of a maximum of   22
 All quantities printed in internal units (Hartrees-Bohrs-Radians)
 Update second derivatives using D2CorN and points    1    2
 DE= -3.05D-02 DEPred=-2.72D-02 R= 1.12D+00
 TightC=F SS=  1.41D+00  RLast= 2.70D-01 DXNew= 5.0454D-01 8.0962D-01
 Trust test= 1.12D+00 RLast= 2.70D-01 DXMaxT set to 5.05D-01
 The second derivative matrix:
                          rn1       rn2       rn3       rn4       rch
           rn1          0.64990
           rn2         -0.00699   0.62207
           rn3          0.02236   0.00390   0.53013
           rn4          0.02578  -0.01886   0.09999   0.61245
           rch         -0.00029  -0.00293  -0.00181  -0.00161   0.37505
           rnh         -0.00114  -0.00910  -0.00602  -0.00508  -0.00017
           an1          0.03969  -0.71300   0.09356  -0.06026   0.00281
           an2          0.73904  -0.28051  -0.67307   0.07570   0.00256
           an3         -0.04506   1.01102   0.00968  -0.60936  -0.00229
           an4          0.03517  -0.06510   0.61204  -0.12203  -0.00260
           ach          0.04492   0.00119  -0.00044   0.05114  -0.00008
           anh         -0.10119   0.05313   0.00169   0.00042   0.00012
                          rnh       an1       an2       an3       an4
           rnh          0.48680
           an1          0.00810   4.54315
           an2          0.00735  -2.66827   6.03655
           an3         -0.00672  -0.03593  -3.19836   4.46831
           an4         -0.00746  -0.13432  -0.07905  -1.15873   2.59748
           ach         -0.00018  -0.10769  -0.00293   0.00217   0.07612
           anh          0.00033   0.03724  -0.08858  -0.00124  -0.00200
                          ach       anh
           ach          0.32020
           anh         -0.00020   0.32017
 ITU=  1  0
     Eigenvalues ---    0.00000   0.13264   0.26983   0.32866   0.37491
     Eigenvalues ---    0.38689   0.48663   0.68504   1.21019   2.96822
     Eigenvalues ---    5.08107   9.63819
 RFO step:  Lambda=-2.88448072D-03 EMin=-3.66935461D-07
 Quartic linear search produced a step of  0.48429.
 Variable       Old X    -DE/DX   Delta X   Delta X   Delta X     New X
                                 (Linear)    (Quad)   (Total)
   rn1        2.41728   0.00556   0.03347  -0.00439   0.02908   2.44635
   rn2        2.66530   0.04555   0.07085   0.09500   0.16585   2.83116
   rn3        2.29294   0.02994   0.09039  -0.01776   0.07263   2.36557
   rn4        1.84540   0.02537   0.04589  -0.04518   0.00071   1.84611
   rch        2.02779   0.00082   0.00482   0.00010   0.00491   2.03271
   rnh        1.90747   0.00299   0.01399  -0.00113   0.01286   1.92034
   an1        1.27232  -0.04087   0.00892  -0.00832   0.00060   1.27291
   an2        2.35926  -0.03709   0.01245  -0.03295  -0.02050   2.33876
   an3        3.40789   0.03386   0.00675  -0.05360  -0.04685   3.36104
   an4        4.79468   0.03767  -0.01151  -0.00559  -0.01711   4.77757
   ach        2.17197   0.00095  -0.00491   0.00727   0.00236   2.17433
   anh        2.11398  -0.00169   0.00304  -0.03349  -0.03045   2.08354
         Item               Value     Threshold  Converged?
 Maximum Force            0.045553     0.000450     NO 
 RMS     Force            0.027796     0.000300     NO 
 Maximum Displacement     0.165851     0.001800     NO 
 RMS     Displacement     0.056020     0.001200     NO 
 Predicted change in Energy=-2.680103D-03
 GradGradGradGradGradGradGradGradGradGradGradGradGradGradGradGradGradGrad

 ---------------------------------------------------------------------------------------------------
                            Z-MATRIX (ANGSTROMS AND DEGREES)
   CD    Cent   Atom    N1       Length/X        N2       Alpha/Y        N3        Beta/Z          J
 ---------------------------------------------------------------------------------------------------
      1         X 
      2         X        1   1.000000(     1)
      3      1  C        1   1.000000(     2)      2   90.000(     9)
      4      2  N        1   1.294555(     3)      2   90.000(    10)      3   72.933(    16)      0
      5      3  N        1   1.498183(     4)      2   90.000(    11)      3  134.001(    17)      0
      6      4  N        1   1.251807(     5)      2   90.000(    12)      3  192.574(    18)      0
      7      5  N        1   0.976920(     6)      2   90.000(    13)      3  273.735(    19)      0
      8      6  H        3   1.075664(     7)      4  124.580(    14)      5  180.000(    20)      0
      9      7  H        4   1.016198(     8)      5  119.378(    15)      6  180.000(    21)      0
 ---------------------------------------------------------------------------------------------------
                         Z-Matrix orientation:                         
 ---------------------------------------------------------------------
 Center     Atomic      Atomic             Coordinates (Angstroms)
 Number     Number       Type             X           Y           Z
 ---------------------------------------------------------------------
      1         -1           0        0.000000    0.000000    0.000000
      2         -1           0        0.000000    0.000000    1.000000
      3          6           0        1.000000    0.000000    0.000000
      4          7           0        0.379947   -1.237543    0.000000
      5          7           0       -1.040745   -1.077684    0.000000
      6          7           0       -1.221785    0.272510    0.000000
      7          7           0        0.063633    0.974846    0.000000
      8          1           0        2.065281    0.149095    0.000000
      9          1           0        0.776320   -2.173250    0.000000
 ---------------------------------------------------------------------
                    Distance matrix (angstroms):
                    1          2          3          4          5
     1  X    0.000000
     2  X    1.000000   0.000000
     3  C    1.000000   1.414214   0.000000
     4  N    1.294555   1.635809   1.384188   0.000000
     5  N    1.498183   1.801264   2.307822   1.429658   0.000000
     6  N    1.251807   1.602192   2.238435   2.201319   1.362277
     7  N    0.976920   1.397989   1.351706   2.234886   2.330778
     8  H    2.070655   2.299481   1.075664   2.182455   3.339518
     9  H    2.307745   2.515092   2.184730   1.016198   2.121789
                    6          7          8          9
     6  N    0.000000
     7  N    1.464778   0.000000
     8  H    3.289382   2.165285   0.000000
     9  H    3.158190   3.227759   2.656069   0.000000
 Stoichiometry    CH2N4
 Framework group  CS[SG(CH2N4)]
 Deg. of freedom    11
 Full point group                 CS      NOp   2
 Largest Abelian subgroup         CS      NOp   2
 Largest concise Abelian subgroup C1      NOp   1
                         Standard orientation:                         
 ---------------------------------------------------------------------
 Center     Atomic      Atomic             Coordinates (Angstroms)
 Number     Number       Type             X           Y           Z
 ---------------------------------------------------------------------
      1          6           0        1.108851    0.260628    0.000000
      2          7           0        0.000000    1.089136    0.000000
      3          7           0       -1.198451    0.309625    0.000000
      4          7           0       -0.755288   -0.978554    0.000000
      5          7           0        0.708570   -1.030450    0.000000
      6          1           0        2.128007    0.604682    0.000000
      7          1           0       -0.064930    2.103258    0.000000
 ---------------------------------------------------------------------
 Rotational constants (GHZ):      9.7810091      9.2740361      4.7603892
 Standard basis: 3-21G (6D, 7F)
 There are    39 symmetry adapted cartesian basis functions of A'  symmetry.
 There are    10 symmetry adapted cartesian basis functions of A"  symmetry.
 There are    39 symmetry adapted basis functions of A'  symmetry.
 There are    10 symmetry adapted basis functions of A"  symmetry.
    49 basis functions,    81 primitive gaussians,    49 cartesian basis functions
    18 alpha electrons       18 beta electrons
       nuclear repulsion energy       159.3973015573 Hartrees.
 NAtoms=    7 NActive=    7 NUniq=    7 SFac= 1.00D+00 NAtFMM=   60 NAOKFM=F Big=F
 Integral buffers will be    131072 words long.
 Raffenetti 1 integral format.
 Two-electron integral symmetry is turned on.
 One-electron integrals computed using PRISM.
 NBasis=    49 RedAO= T EigKep=  2.18D-02  NBF=    39    10
 NBsUse=    49 1.00D-06 EigRej= -1.00D+00 NBFU=    39    10
 Initial guess from the checkpoint file:  "/tmp/rdj3/g09-15973/Gau-21990.chk"
 B after Tr=     0.000000    0.000000    0.000000
         Rot=    0.999996    0.000000    0.000000   -0.002918 Ang=  -0.33 deg.
 Initial guess orbital symmetries:
       Occupied  (A') (A') (A') (A') (A') (A') (A') (A') (A') (A')
                 (A') (A') (A") (A') (A') (A') (A") (A")
       Virtual   (A') (A') (A') (A') (A') (A') (A') (A') (A') (A')
                 (A') (A') (A') (A') (A') (A') (A') (A') (A') (A')
                 (A') (A') (A') (A') (A") (A") (A") (A") (A") (A")
                 (A")
 ExpMin= 1.83D-01 ExpMax= 2.43D+02 ExpMxC= 2.43D+02 IAcc=1 IRadAn=         1 AccDes= 0.00D+00
 Harris functional with IExCor=  205 and IRadAn=       1 diagonalized for initial guess.
 HarFok:  IExCor=  205 AccDes= 0.00D+00 IRadAn=         1 IDoV= 1 UseB2=F ITyADJ=14
 ICtDFT=  3500011 ScaDFX=  1.000000  1.000000  1.000000  1.000000
 FoFCou: FMM=F IPFlag=           0 FMFlag=      100000 FMFlg1=           0
         NFxFlg=           0 DoJE=T BraDBF=F KetDBF=T FulRan=T
         wScrn=  0.000000 ICntrl=     500 IOpCl=  0 I1Cent=   200000004 NGrid=           0
         NMat0=    1 NMatS0=      1 NMatT0=    0 NMatD0=    1 NMtDS0=    0 NMtDT0=    0
 Petite list used in FoFCou.
 Keep R1 ints in memory in symmetry-blocked form, NReq=1592106.
 Requested convergence on RMS density matrix=1.00D-08 within 128 cycles.
 Requested convergence on MAX density matrix=1.00D-06.
 Requested convergence on             energy=1.00D-06.
 No special actions if energy rises.
 SCF Done:  E(RHF) =  -255.252945075     A.U. after   14 cycles
            NFock= 14  Conv=0.69D-08     -V/T= 2.0058
 Range of M.O.s used for correlation:     1    49
 NBasis=    49 NAE=    18 NBE=    18 NFC=     0 NFV=     0
 NROrb=     49 NOA=    18 NOB=    18 NVA=    31 NVB=    31
 Fully direct method using O(ONN) memory.
 JobTyp=1 Pass  1:  I=   1 to  18 NPSUse=  8 ParTrn=T ParDer=T DoDerP=T.
 Spin components of T(2) and E(2):
     alpha-alpha T2 =       0.3114766106D-01 E2=     -0.7710639126D-01
     alpha-beta  T2 =       0.1683562755D+00 E2=     -0.4211087361D+00
     beta-beta   T2 =       0.3114766106D-01 E2=     -0.7710639126D-01
 ANorm=    0.1109347375D+01
 E2 =    -0.5753215186D+00 EUMP2 =    -0.25582826659379D+03
          IDoAtm=1111111
          Differentiating once with respect to electric field.
                with respect to dipole field.
          Differentiating once with respect to nuclear coordinates.
 Keep R1 ints in memory in symmetry-blocked form, NReq=1570638.
          There are     1 degrees of freedom in the 1st order CPHF.  IDoFFX=0 NUNeed=     1.
 LinEq1:  Iter=  0 NonCon=     1 RMS=1.13D-02 Max=8.89D-02 NDo=     1
 AX will form     1 AO Fock derivatives at one time.
 LinEq1:  Iter=  1 NonCon=     1 RMS=2.99D-03 Max=1.53D-02 NDo=     1
 LinEq1:  Iter=  2 NonCon=     1 RMS=1.24D-03 Max=2.09D-02 NDo=     1
 LinEq1:  Iter=  3 NonCon=     1 RMS=5.62D-04 Max=4.91D-03 NDo=     1
 LinEq1:  Iter=  4 NonCon=     1 RMS=1.70D-04 Max=1.26D-03 NDo=     1
 LinEq1:  Iter=  5 NonCon=     1 RMS=9.10D-05 Max=1.03D-03 NDo=     1
 LinEq1:  Iter=  6 NonCon=     1 RMS=3.42D-05 Max=4.83D-04 NDo=     1
 LinEq1:  Iter=  7 NonCon=     1 RMS=1.43D-05 Max=1.84D-04 NDo=     1
 LinEq1:  Iter=  8 NonCon=     1 RMS=5.37D-06 Max=5.95D-05 NDo=     1
 LinEq1:  Iter=  9 NonCon=     1 RMS=9.32D-07 Max=6.63D-06 NDo=     1
 LinEq1:  Iter= 10 NonCon=     1 RMS=3.12D-07 Max=2.46D-06 NDo=     1
 LinEq1:  Iter= 11 NonCon=     1 RMS=1.05D-07 Max=9.24D-07 NDo=     1
 LinEq1:  Iter= 12 NonCon=     1 RMS=1.83D-08 Max=1.47D-07 NDo=     1
 LinEq1:  Iter= 13 NonCon=     1 RMS=2.96D-09 Max=2.20D-08 NDo=     1
 LinEq1:  Iter= 14 NonCon=     1 RMS=4.09D-10 Max=2.31D-09 NDo=     1
 LinEq1:  Iter= 15 NonCon=     0 RMS=5.65D-11 Max=3.91D-10 NDo=     1
 Linear equations converged to 1.000D-10 1.000D-09 after    15 iterations.
 End of Minotr F.D. properties file   721 does not exist.
 End of Minotr F.D. properties file   722 does not exist.
 End of Minotr F.D. properties file   788 does not exist.
 Calling FoFJK, ICntrl=  10002127 FMM=F ISym2X=1 I1Cent= 0 IOpClX= 0 NMat=1 NMatS=1 NMatT=0.
 ***** Axes restored to original set *****
 -------------------------------------------------------------------
 Center     Atomic                   Forces (Hartrees/Bohr)
 Number     Number              X              Y              Z
 -------------------------------------------------------------------
      1        6          -0.019305146   -0.006998107    0.000000000
      2        7           0.011244066   -0.005638337    0.000000000
      3        7           0.012643458   -0.004076487    0.000000000
      4        7          -0.010016601    0.016066516    0.000000000
      5        7           0.005987048   -0.000134967    0.000000000
      6        1          -0.000651251   -0.000632472    0.000000000
      7        1           0.000098424    0.001413854    0.000000000
 -------------------------------------------------------------------
 Cartesian Forces:  Max     0.019305146 RMS     0.007411438
 -----------------------------------------------------------------------------------------------
                       Internal Coordinate Forces (Hartree/Bohr or radian)
  Cent   Atom   N1       Length/X         N2         Alpha/Y        N3         Beta/Z          J
 -----------------------------------------------------------------------------------------------
         X 
         X        1   0.000000(     1)
      1  C        1  -0.019584(     2)      2   0.000000(     9)
      2  N        1   0.006661(     3)      2   0.000000(    10)      3  -0.023200(    16)     0
      3  N        1  -0.005489(     4)      2   0.000000(    11)      3  -0.034554(    17)     0
      4  N        1   0.013274(     5)      2   0.000000(    12)      3   0.031937(    18)     0
      5  N        1   0.000255(     6)      2   0.000000(    13)      3   0.011046(    19)     0
      6  H        3  -0.000733(     7)      4  -0.001090(    14)      5   0.000000(    20)     0
      7  H        4  -0.001263(     8)      5   0.001233(    15)      6   0.000000(    21)     0
 -----------------------------------------------------------------------------------------------
 Internal  Forces:  Max     0.034554138 RMS     0.012934533

 GradGradGradGradGradGradGradGradGradGradGradGradGradGradGradGradGradGrad
 Berny optimization.
 Search for a local minimum.
 Step number   3 out of a maximum of   22
 All quantities printed in internal units (Hartrees-Bohrs-Radians)
 Update second derivatives using D2CorN and points    1    2    3
 DE= -3.65D-03 DEPred=-2.68D-03 R= 1.36D+00
 TightC=F SS=  1.41D+00  RLast= 1.94D-01 DXNew= 8.4853D-01 5.8218D-01
 Trust test= 1.36D+00 RLast= 1.94D-01 DXMaxT set to 5.82D-01
 The second derivative matrix:
                          rn1       rn2       rn3       rn4       rch
           rn1          0.64037
           rn2         -0.03598   0.57688
           rn3         -0.00341  -0.07399   0.46027
           rn4          0.01830  -0.04757   0.07885   0.60551
           rch         -0.00080  -0.00280  -0.00329  -0.00234   0.37514
           rnh         -0.00306  -0.01138  -0.01153  -0.00736  -0.00003
           an1          0.06180  -0.62141   0.15043  -0.04700   0.00641
           an2          0.76909  -0.16189  -0.59597   0.09339   0.00696
           an3         -0.06560   0.90314  -0.04350  -0.61911  -0.00663
           an4          0.02271  -0.12123   0.58006  -0.12957  -0.00508
           ach          0.04520   0.00386   0.00044   0.05119  -0.00002
           anh         -0.09803   0.05284   0.00979   0.00367  -0.00009
                          rnh       an1       an2       an3       an4
           rnh          0.48693
           an1          0.01785   4.54898
           an2          0.01949  -2.66997   6.02207
           an3         -0.01797  -0.05717  -3.21518   4.51481
           an4         -0.01396  -0.14725  -0.09008  -1.13521   2.61149
           ach         -0.00003  -0.10813  -0.00361   0.00170   0.07634
           anh          0.00013   0.02504  -0.10431   0.01511   0.00554
                          ach       anh
           ach          0.32028
           anh         -0.00070   0.32124
 ITU=  1  1  0
     Eigenvalues ---   -0.00049   0.15392   0.28046   0.31709   0.37504
     Eigenvalues ---    0.40302   0.48561   0.62231   1.21002   2.93529
     Eigenvalues ---    5.06714   9.63460
 RFO step:  Lambda=-3.00148083D-03 EMin=-4.88453637D-04
 Quartic linear search produced a step of -0.09779.
 Maximum step size (   0.582) exceeded in Quadratic search.
    -- Step size scaled by   0.581
 Variable       Old X    -DE/DX   Delta X   Delta X   Delta X     New X
                                 (Linear)    (Quad)   (Total)
   rn1        2.44635   0.00666  -0.00284   0.30117   0.29833   2.74468
   rn2        2.83116  -0.00549  -0.01622   0.15930   0.14308   2.97423
   rn3        2.36557   0.01327  -0.00710  -0.04449  -0.05159   2.31398
   rn4        1.84611   0.00026  -0.00007  -0.25109  -0.25116   1.59496
   rch        2.03271  -0.00073  -0.00048  -0.00060  -0.00108   2.03163
   rnh        1.92034  -0.00126  -0.00126   0.00101  -0.00025   1.92009
   an1        1.27291  -0.02320  -0.00006  -0.13389  -0.13395   1.13896
   an2        2.33876  -0.03455   0.00200  -0.23756  -0.23555   2.10321
   an3        3.36104   0.03194   0.00458  -0.25984  -0.25526   3.10579
   an4        4.77757   0.01105   0.00167  -0.12271  -0.12103   4.65654
   ach        2.17433  -0.00109  -0.00023  -0.02288  -0.02312   2.15121
   anh        2.08354   0.00123   0.00298   0.01923   0.02220   2.10574
         Item               Value     Threshold  Converged?
 Maximum Force            0.034554     0.000450     NO 
 RMS     Force            0.016150     0.000300     NO 
 Maximum Displacement     0.298325     0.001800     NO 
 RMS     Displacement     0.165698     0.001200     NO 
 Predicted change in Energy=-2.016062D-03
 GradGradGradGradGradGradGradGradGradGradGradGradGradGradGradGradGradGrad

 ---------------------------------------------------------------------------------------------------
                            Z-MATRIX (ANGSTROMS AND DEGREES)
   CD    Cent   Atom    N1       Length/X        N2       Alpha/Y        N3        Beta/Z          J
 ---------------------------------------------------------------------------------------------------
      1         X 
      2         X        1   1.000000(     1)
      3      1  C        1   1.000000(     2)      2   90.000(     9)
      4      2  N        1   1.452422(     3)      2   90.000(    10)      3   65.258(    16)      0
      5      3  N        1   1.573897(     4)      2   90.000(    11)      3  120.505(    17)      0
      6      4  N        1   1.224507(     5)      2   90.000(    12)      3  177.948(    18)      0
      7      5  N        1   0.844014(     6)      2   90.000(    13)      3  266.800(    19)      0
      8      6  H        3   1.075092(     7)      4  123.255(    14)      5  180.000(    20)      0
      9      7  H        4   1.016066(     8)      5  120.650(    15)      6  180.000(    21)      0
 ---------------------------------------------------------------------------------------------------
                         Z-Matrix orientation:                         
 ---------------------------------------------------------------------
 Center     Atomic      Atomic             Coordinates (Angstroms)
 Number     Number       Type             X           Y           Z
 ---------------------------------------------------------------------
      1         -1           0        0.000000    0.000000    0.000000
      2         -1           0        0.000000    0.000000    1.000000
      3          6           0        1.000000    0.000000    0.000000
      4          7           0        0.607889   -1.319090    0.000000
      5          7           0       -0.798928   -1.356047    0.000000
      6          7           0       -1.223722   -0.043836    0.000000
      7          7           0       -0.047114    0.842698    0.000000
      8          1           0        2.029746    0.308944    0.000000
      9          1           0        1.148650   -2.179305    0.000000
 ---------------------------------------------------------------------
                    Distance matrix (angstroms):
                    1          2          3          4          5
     1  X    0.000000
     2  X    1.000000   0.000000
     3  C    1.000000   1.414214   0.000000
     4  N    1.452422   1.763386   1.376136   0.000000
     5  N    1.573897   1.864712   2.252778   1.407303   0.000000
     6  N    1.224507   1.580954   2.224154   2.231832   1.379256
     7  N    0.844014   1.308572   1.344094   2.258840   2.323727
     8  H    2.053123   2.283706   1.075092   2.161520   3.282315
     9  H    2.463486   2.658715   2.184368   1.016066   2.114430
                    6          7          8          9
     6  N    0.000000
     7  N    1.473210   0.000000
     8  H    3.272538   2.144351   0.000000
     9  H    3.191923   3.249977   2.639642   0.000000
 Stoichiometry    CH2N4
 Framework group  CS[SG(CH2N4)]
 Deg. of freedom    11
 Full point group                 CS      NOp   2
 Largest Abelian subgroup         CS      NOp   2
 Largest concise Abelian subgroup C1      NOp   1
                         Standard orientation:                         
 ---------------------------------------------------------------------
 Center     Atomic      Atomic             Coordinates (Angstroms)
 Number     Number       Type             X           Y           Z
 ---------------------------------------------------------------------
      1          6           0        1.081207    0.253291    0.000000
      2          7           0        0.000000    1.104609    0.000000
      3          7           0       -1.170483    0.323283    0.000000
      4          7           0       -0.760536   -0.993642    0.000000
      5          7           0        0.711973   -1.039092    0.000000
      6          1           0        2.100571    0.594932    0.000000
      7          1           0       -0.054487    2.119213    0.000000
 ---------------------------------------------------------------------
 Rotational constants (GHZ):      9.6839218      9.4186190      4.7747140
 Standard basis: 3-21G (6D, 7F)
 There are    39 symmetry adapted cartesian basis functions of A'  symmetry.
 There are    10 symmetry adapted cartesian basis functions of A"  symmetry.
 There are    39 symmetry adapted basis functions of A'  symmetry.
 There are    10 symmetry adapted basis functions of A"  symmetry.
    49 basis functions,    81 primitive gaussians,    49 cartesian basis functions
    18 alpha electrons       18 beta electrons
       nuclear repulsion energy       159.6332070730 Hartrees.
 NAtoms=    7 NActive=    7 NUniq=    7 SFac= 1.00D+00 NAtFMM=   60 NAOKFM=F Big=F
 Integral buffers will be    131072 words long.
 Raffenetti 1 integral format.
 Two-electron integral symmetry is turned on.
 One-electron integrals computed using PRISM.
 NBasis=    49 RedAO= T EigKep=  2.19D-02  NBF=    39    10
 NBsUse=    49 1.00D-06 EigRej= -1.00D+00 NBFU=    39    10
 Initial guess from the checkpoint file:  "/tmp/rdj3/g09-15973/Gau-21990.chk"
 B after Tr=     0.000000    0.000000    0.000000
         Rot=    0.999999    0.000000    0.000000    0.001581 Ang=   0.18 deg.
 Initial guess orbital symmetries:
       Occupied  (A') (A') (A') (A') (A') (A') (A') (A') (A') (A')
                 (A') (A') (A") (A') (A') (A') (A") (A")
       Virtual   (A') (A') (A') (A') (A') (A') (A') (A') (A') (A')
                 (A') (A') (A') (A') (A') (A') (A') (A') (A') (A')
                 (A') (A') (A') (A') (A") (A") (A") (A") (A") (A")
                 (A")
 ExpMin= 1.83D-01 ExpMax= 2.43D+02 ExpMxC= 2.43D+02 IAcc=1 IRadAn=         1 AccDes= 0.00D+00
 Harris functional with IExCor=  205 and IRadAn=       1 diagonalized for initial guess.
 HarFok:  IExCor=  205 AccDes= 0.00D+00 IRadAn=         1 IDoV= 1 UseB2=F ITyADJ=14
 ICtDFT=  3500011 ScaDFX=  1.000000  1.000000  1.000000  1.000000
 FoFCou: FMM=F IPFlag=           0 FMFlag=      100000 FMFlg1=           0
         NFxFlg=           0 DoJE=T BraDBF=F KetDBF=T FulRan=T
         wScrn=  0.000000 ICntrl=     500 IOpCl=  0 I1Cent=   200000004 NGrid=           0
         NMat0=    1 NMatS0=      1 NMatT0=    0 NMatD0=    1 NMtDS0=    0 NMtDT0=    0
 Petite list used in FoFCou.
 Keep R1 ints in memory in symmetry-blocked form, NReq=1592136.
 Requested convergence on RMS density matrix=1.00D-08 within 128 cycles.
 Requested convergence on MAX density matrix=1.00D-06.
 Requested convergence on             energy=1.00D-06.
 No special actions if energy rises.
 SCF Done:  E(RHF) =  -255.252537489     A.U. after   14 cycles
            NFock= 14  Conv=0.34D-08     -V/T= 2.0057
 Range of M.O.s used for correlation:     1    49
 NBasis=    49 NAE=    18 NBE=    18 NFC=     0 NFV=     0
 NROrb=     49 NOA=    18 NOB=    18 NVA=    31 NVB=    31
 Fully direct method using O(ONN) memory.
 JobTyp=1 Pass  1:  I=   1 to  18 NPSUse=  8 ParTrn=T ParDer=T DoDerP=T.
 Spin components of T(2) and E(2):
     alpha-alpha T2 =       0.3125506043D-01 E2=     -0.7726291869D-01
     alpha-beta  T2 =       0.1689790126D+00 E2=     -0.4217572521D+00
     beta-beta   T2 =       0.3125506043D-01 E2=     -0.7726291869D-01
 ANorm=    0.1109724801D+01
 E2 =    -0.5762830895D+00 EUMP2 =    -0.25582882057858D+03
          IDoAtm=1111111
          Differentiating once with respect to electric field.
                with respect to dipole field.
          Differentiating once with respect to nuclear coordinates.
 Keep R1 ints in memory in symmetry-blocked form, NReq=1570659.
          There are     1 degrees of freedom in the 1st order CPHF.  IDoFFX=0 NUNeed=     1.
 LinEq1:  Iter=  0 NonCon=     1 RMS=1.10D-02 Max=8.03D-02 NDo=     1
 AX will form     1 AO Fock derivatives at one time.
 LinEq1:  Iter=  1 NonCon=     1 RMS=2.90D-03 Max=1.41D-02 NDo=     1
 LinEq1:  Iter=  2 NonCon=     1 RMS=1.16D-03 Max=2.04D-02 NDo=     1
 LinEq1:  Iter=  3 NonCon=     1 RMS=5.28D-04 Max=4.55D-03 NDo=     1
 LinEq1:  Iter=  4 NonCon=     1 RMS=1.55D-04 Max=1.11D-03 NDo=     1
 LinEq1:  Iter=  5 NonCon=     1 RMS=8.24D-05 Max=8.81D-04 NDo=     1
 LinEq1:  Iter=  6 NonCon=     1 RMS=3.14D-05 Max=4.27D-04 NDo=     1
 LinEq1:  Iter=  7 NonCon=     1 RMS=1.30D-05 Max=1.72D-04 NDo=     1
 LinEq1:  Iter=  8 NonCon=     1 RMS=5.11D-06 Max=5.60D-05 NDo=     1
 LinEq1:  Iter=  9 NonCon=     1 RMS=1.11D-06 Max=6.27D-06 NDo=     1
 LinEq1:  Iter= 10 NonCon=     1 RMS=5.69D-07 Max=5.09D-06 NDo=     1
 LinEq1:  Iter= 11 NonCon=     1 RMS=1.17D-07 Max=1.04D-06 NDo=     1
 LinEq1:  Iter= 12 NonCon=     1 RMS=2.09D-08 Max=1.39D-07 NDo=     1
 LinEq1:  Iter= 13 NonCon=     1 RMS=3.08D-09 Max=2.48D-08 NDo=     1
 LinEq1:  Iter= 14 NonCon=     1 RMS=4.45D-10 Max=2.75D-09 NDo=     1
 LinEq1:  Iter= 15 NonCon=     0 RMS=6.00D-11 Max=4.60D-10 NDo=     1
 Linear equations converged to 1.000D-10 1.000D-09 after    15 iterations.
 End of Minotr F.D. properties file   721 does not exist.
 End of Minotr F.D. properties file   722 does not exist.
 End of Minotr F.D. properties file   788 does not exist.
 Calling FoFJK, ICntrl=  10002127 FMM=F ISym2X=1 I1Cent= 0 IOpClX= 0 NMat=1 NMatS=1 NMatT=0.
 ***** Axes restored to original set *****
 -------------------------------------------------------------------
 Center     Atomic                   Forces (Hartrees/Bohr)
 Number     Number              X              Y              Z
 -------------------------------------------------------------------
      1        6           0.007837621    0.001822200    0.000000000
      2        7           0.004807159    0.009928275    0.000000000
      3        7          -0.013928454   -0.011508758    0.000000000
      4        7          -0.000481063    0.002043970    0.000000000
      5        7           0.002333647   -0.004086114    0.000000000
      6        1           0.000447327    0.000085821    0.000000000
      7        1          -0.001016236    0.001714606    0.000000000
 -------------------------------------------------------------------
 Cartesian Forces:  Max     0.013928454 RMS     0.005087861
 -----------------------------------------------------------------------------------------------
                       Internal Coordinate Forces (Hartree/Bohr or radian)
  Cent   Atom   N1       Length/X         N2         Alpha/Y        N3         Beta/Z          J
 -----------------------------------------------------------------------------------------------
         X 
         X        1   0.000000(     1)
      1  C        1   0.008320(     2)      2   0.000000(     9)
      2  N        1  -0.009046(     3)      2   0.000000(    10)      3  -0.022791(    16)     0
      3  N        1   0.017018(     4)      2   0.000000(    11)      3   0.018258(    17)     0
      4  N        1   0.000408(     5)      2   0.000000(    12)      3   0.004767(    18)     0
      5  N        1  -0.004210(     6)      2   0.000000(    13)      3   0.003352(    19)     0
      6  H        3   0.000453(     7)      4  -0.000094(    14)      5   0.000000(    20)     0
      7  H        4  -0.001992(     8)      5   0.000100(    15)      6   0.000000(    21)     0
 -----------------------------------------------------------------------------------------------
 Internal  Forces:  Max     0.022790529 RMS     0.008016208

 GradGradGradGradGradGradGradGradGradGradGradGradGradGradGradGradGradGrad
 Berny optimization.
 Search for a local minimum.
 Step number   4 out of a maximum of   22
 All quantities printed in internal units (Hartrees-Bohrs-Radians)
 Update second derivatives using D2CorN and points    3    4
 DE= -5.54D-04 DEPred=-2.02D-03 R= 2.75D-01
 Trust test= 2.75D-01 RLast= 5.74D-01 DXMaxT set to 5.82D-01
 The second derivative matrix:
                          rn1       rn2       rn3       rn4       rch
           rn1          0.65205
           rn2         -0.04073   0.56964
           rn3         -0.00140  -0.07123   0.45923
           rn4          0.01567  -0.04012   0.07591   0.60167
           rch         -0.00114  -0.00293  -0.00325  -0.00207   0.37514
           rnh         -0.00232  -0.01101  -0.01166  -0.00799  -0.00003
           an1          0.06415  -0.61564   0.14821  -0.05221   0.00653
           an2          0.74869  -0.16350  -0.59563   0.10487   0.00727
           an3         -0.06629   0.91167  -0.04684  -0.62469  -0.00637
           an4          0.02153  -0.11760   0.57863  -0.13151  -0.00495
           ach          0.04457   0.00436   0.00023   0.05117   0.00001
           anh         -0.09741   0.05237   0.00998   0.00369  -0.00011
                          rnh       an1       an2       an3       an4
           rnh          0.48693
           an1          0.01751   4.54452
           an2          0.01892  -2.66680   6.04699
           an3         -0.01862  -0.06336  -3.20508   4.50744
           an4         -0.01427  -0.14980  -0.08463  -1.13798   2.61052
           ach         -0.00009  -0.10844  -0.00225   0.00152   0.07632
           anh          0.00019   0.02532  -0.10563   0.01527   0.00556
                          ach       anh
           ach          0.32031
           anh         -0.00073   0.32126
 ITU=  0  1  1  0
     Eigenvalues ---    0.00646   0.15560   0.28116   0.31711   0.37504
     Eigenvalues ---    0.40443   0.48564   0.62291   1.21003   2.93539
     Eigenvalues ---    5.06707   9.63488
 RFO step:  Lambda=-3.68158159D-04 EMin= 6.46049562D-03
 Quartic linear search produced a step of -0.33199.
 Variable       Old X    -DE/DX   Delta X   Delta X   Delta X     New X
                                 (Linear)    (Quad)   (Total)
   rn1        2.74468  -0.00905  -0.09904   0.01852  -0.08052   2.66415
   rn2        2.97423   0.01702  -0.04750   0.03774  -0.00976   2.96447
   rn3        2.31398   0.00041   0.01713   0.01665   0.03378   2.34776
   rn4        1.59496  -0.00421   0.08338  -0.03346   0.04992   1.64487
   rch        2.03163   0.00045   0.00036   0.00042   0.00078   2.03241
   rnh        1.92009  -0.00199   0.00008  -0.00302  -0.00294   1.91715
   an1        1.13896  -0.02279   0.04447  -0.01303   0.03144   1.17040
   an2        2.10321   0.01826   0.07820  -0.01881   0.05939   2.16260
   an3        3.10579   0.00477   0.08474  -0.02607   0.05867   3.16446
   an4        4.65654   0.00335   0.04018  -0.01438   0.02580   4.68234
   ach        2.15121  -0.00009   0.00767  -0.00023   0.00745   2.15866
   anh        2.10574   0.00010  -0.00737  -0.00272  -0.01009   2.09565
         Item               Value     Threshold  Converged?
 Maximum Force            0.022791     0.000450     NO 
 RMS     Force            0.010329     0.000300     NO 
 Maximum Displacement     0.080525     0.001800     NO 
 RMS     Displacement     0.039794     0.001200     NO 
 Predicted change in Energy=-6.769651D-04
 GradGradGradGradGradGradGradGradGradGradGradGradGradGradGradGradGradGrad

 ---------------------------------------------------------------------------------------------------
                            Z-MATRIX (ANGSTROMS AND DEGREES)
   CD    Cent   Atom    N1       Length/X        N2       Alpha/Y        N3        Beta/Z          J
 ---------------------------------------------------------------------------------------------------
      1         X 
      2         X        1   1.000000(     1)
      3      1  C        1   1.000000(     2)      2   90.000(     9)
      4      2  N        1   1.409810(     3)      2   90.000(    10)      3   67.059(    16)      0
      5      3  N        1   1.568730(     4)      2   90.000(    11)      3  123.908(    17)      0
      6      4  N        1   1.242380(     5)      2   90.000(    12)      3  181.310(    18)      0
      7      5  N        1   0.870430(     6)      2   90.000(    13)      3  268.278(    19)      0
      8      6  H        3   1.075504(     7)      4  123.682(    14)      5  180.000(    20)      0
      9      7  H        4   1.014512(     8)      5  120.072(    15)      6  180.000(    21)      0
 ---------------------------------------------------------------------------------------------------
                         Z-Matrix orientation:                         
 ---------------------------------------------------------------------
 Center     Atomic      Atomic             Coordinates (Angstroms)
 Number     Number       Type             X           Y           Z
 ---------------------------------------------------------------------
      1         -1           0        0.000000    0.000000    0.000000
      2         -1           0        0.000000    0.000000    1.000000
      3          6           0        1.000000    0.000000    0.000000
      4          7           0        0.549521   -1.298303    0.000000
      5          7           0       -0.875123   -1.301949    0.000000
      6          7           0       -1.242055    0.028408    0.000000
      7          7           0       -0.026152    0.870037    0.000000
      8          1           0        2.041028    0.270130    0.000000
      9          1           0        1.060126   -2.174954    0.000000
 ---------------------------------------------------------------------
                    Distance matrix (angstroms):
                    1          2          3          4          5
     1  X    0.000000
     2  X    1.000000   0.000000
     3  C    1.000000   1.414214   0.000000
     4  N    1.409810   1.728457   1.374235   0.000000
     5  N    1.568730   1.860353   2.282796   1.424649   0.000000
     6  N    1.242380   1.594838   2.242235   2.229329   1.380032
     7  N    0.870430   1.325763   1.345345   2.243457   2.332011
     8  H    2.058826   2.288835   1.075504   2.164388   3.312910
     9  H    2.419564   2.618070   2.175785   1.014512   2.123047
                    6          7          8          9
     6  N    0.000000
     7  N    1.478770   0.000000
     8  H    3.291970   2.152468   0.000000
     9  H    3.186667   3.232951   2.634502   0.000000
 Stoichiometry    CH2N4
 Framework group  CS[SG(CH2N4)]
 Deg. of freedom    11
 Full point group                 CS      NOp   2
 Largest Abelian subgroup         CS      NOp   2
 Largest concise Abelian subgroup C1      NOp   1
                         Standard orientation:                         
 ---------------------------------------------------------------------
 Center     Atomic      Atomic             Coordinates (Angstroms)
 Number     Number       Type             X           Y           Z
 ---------------------------------------------------------------------
      1          6           0        1.093075    0.264499    0.000000
      2          7           0        0.000000    1.097391    0.000000
      3          7           0       -1.189208    0.312912    0.000000
      4          7           0       -0.759584   -0.998543    0.000000
      5          7           0        0.718897   -1.027764    0.000000
      6          1           0        2.109913    0.614854    0.000000
      7          1           0       -0.059096    2.110181    0.000000
 ---------------------------------------------------------------------
 Rotational constants (GHZ):      9.6268339      9.3617811      4.7462288
 Standard basis: 3-21G (6D, 7F)
 There are    39 symmetry adapted cartesian basis functions of A'  symmetry.
 There are    10 symmetry adapted cartesian basis functions of A"  symmetry.
 There are    39 symmetry adapted basis functions of A'  symmetry.
 There are    10 symmetry adapted basis functions of A"  symmetry.
    49 basis functions,    81 primitive gaussians,    49 cartesian basis functions
    18 alpha electrons       18 beta electrons
       nuclear repulsion energy       159.1663810270 Hartrees.
 NAtoms=    7 NActive=    7 NUniq=    7 SFac= 1.00D+00 NAtFMM=   60 NAOKFM=F Big=F
 Integral buffers will be    131072 words long.
 Raffenetti 1 integral format.
 Two-electron integral symmetry is turned on.
 One-electron integrals computed using PRISM.
 NBasis=    49 RedAO= T EigKep=  2.18D-02  NBF=    39    10
 NBsUse=    49 1.00D-06 EigRej= -1.00D+00 NBFU=    39    10
 Initial guess from the checkpoint file:  "/tmp/rdj3/g09-15973/Gau-21990.chk"
 B after Tr=     0.000000    0.000000    0.000000
         Rot=    0.999995    0.000000    0.000000   -0.003187 Ang=  -0.37 deg.
 Initial guess orbital symmetries:
       Occupied  (A') (A') (A') (A') (A') (A') (A') (A') (A') (A')
                 (A') (A") (A') (A') (A') (A') (A") (A")
       Virtual   (A') (A') (A') (A') (A') (A') (A') (A') (A') (A')
                 (A') (A') (A') (A') (A') (A') (A') (A') (A') (A')
                 (A') (A') (A') (A') (A") (A") (A") (A") (A") (A")
                 (A")
 ExpMin= 1.83D-01 ExpMax= 2.43D+02 ExpMxC= 2.43D+02 IAcc=1 IRadAn=         1 AccDes= 0.00D+00
 Harris functional with IExCor=  205 and IRadAn=       1 diagonalized for initial guess.
 HarFok:  IExCor=  205 AccDes= 0.00D+00 IRadAn=         1 IDoV= 1 UseB2=F ITyADJ=14
 ICtDFT=  3500011 ScaDFX=  1.000000  1.000000  1.000000  1.000000
 FoFCou: FMM=F IPFlag=           0 FMFlag=      100000 FMFlg1=           0
         NFxFlg=           0 DoJE=T BraDBF=F KetDBF=T FulRan=T
         wScrn=  0.000000 ICntrl=     500 IOpCl=  0 I1Cent=   200000004 NGrid=           0
         NMat0=    1 NMatS0=      1 NMatT0=    0 NMatD0=    1 NMtDS0=    0 NMtDT0=    0
 Petite list used in FoFCou.
 Keep R1 ints in memory in symmetry-blocked form, NReq=1592106.
 Requested convergence on RMS density matrix=1.00D-08 within 128 cycles.
 Requested convergence on MAX density matrix=1.00D-06.
 Requested convergence on             energy=1.00D-06.
 No special actions if energy rises.
 SCF Done:  E(RHF) =  -255.251469175     A.U. after   12 cycles
            NFock= 12  Conv=0.88D-08     -V/T= 2.0059
 Range of M.O.s used for correlation:     1    49
 NBasis=    49 NAE=    18 NBE=    18 NFC=     0 NFV=     0
 NROrb=     49 NOA=    18 NOB=    18 NVA=    31 NVB=    31
 Fully direct method using O(ONN) memory.
 JobTyp=1 Pass  1:  I=   1 to  18 NPSUse=  8 ParTrn=T ParDer=T DoDerP=T.
 Spin components of T(2) and E(2):
     alpha-alpha T2 =       0.3148258967D-01 E2=     -0.7746345024D-01
     alpha-beta  T2 =       0.1701859710D+00 E2=     -0.4228830066D+00
     beta-beta   T2 =       0.3148258967D-01 E2=     -0.7746345024D-01
 ANorm=    0.1110473390D+01
 E2 =    -0.5778099071D+00 EUMP2 =    -0.25582927908187D+03
          IDoAtm=1111111
          Differentiating once with respect to electric field.
                with respect to dipole field.
          Differentiating once with respect to nuclear coordinates.
 Keep R1 ints in memory in symmetry-blocked form, NReq=1570680.
          There are     1 degrees of freedom in the 1st order CPHF.  IDoFFX=0 NUNeed=     1.
 LinEq1:  Iter=  0 NonCon=     1 RMS=1.12D-02 Max=8.13D-02 NDo=     1
 AX will form     1 AO Fock derivatives at one time.
 LinEq1:  Iter=  1 NonCon=     1 RMS=2.98D-03 Max=1.41D-02 NDo=     1
 LinEq1:  Iter=  2 NonCon=     1 RMS=1.24D-03 Max=2.18D-02 NDo=     1
 LinEq1:  Iter=  3 NonCon=     1 RMS=5.74D-04 Max=4.98D-03 NDo=     1
 LinEq1:  Iter=  4 NonCon=     1 RMS=1.72D-04 Max=1.34D-03 NDo=     1
[...]
                     A"                     A"                     A"
 Frequencies --    615.1901               669.0887               682.7988
 Red. masses --      3.0695                 3.4863                 1.6965
 Frc consts  --      0.6844                 0.9196                 0.4660
 IR Inten    --     77.9640                 3.4540                70.3856
  Atom  AN      X      Y      Z        X      Y      Z        X      Y      Z
     1   6     0.00   0.00  -0.14     0.00   0.00   0.23     0.00   0.00   0.03
     2   7     0.00   0.00   0.31     0.00   0.00  -0.05     0.00   0.00  -0.02
     3   7     0.00   0.00  -0.20     0.00   0.00  -0.06     0.00   0.00   0.16
     4   7     0.00   0.00   0.08     0.00   0.00   0.22     0.00   0.00  -0.15
     5   7     0.00   0.00   0.02     0.00   0.00  -0.30     0.00   0.00   0.05
     6   1     0.00   0.00  -0.43     0.00   0.00   0.60     0.00   0.00   0.12
     7   1     0.00   0.00  -0.81     0.00   0.00  -0.67     0.00   0.00  -0.97
                      4                      5                      6
                     A'                     A'                     A"
 Frequencies --    738.2849               811.4025               885.5262
 Red. masses --     11.0854                 9.1320                 1.3568
 Frc consts  --      3.5600                 3.5423                 0.6269
 IR Inten    --     18.0514                 2.6899                24.2216
  Atom  AN      X      Y      Z        X      Y      Z        X      Y      Z
     1   6    -0.03   0.05   0.00    -0.04  -0.04   0.00     0.00   0.00   0.17
     2   7     0.09   0.04   0.00    -0.08  -0.06   0.00     0.00   0.00  -0.03
     3   7    -0.05   0.13   0.00    -0.24   0.56   0.00     0.00   0.00   0.00
     4   7     0.55  -0.31   0.00     0.03  -0.37   0.00     0.00   0.00  -0.02
     5   7    -0.58   0.12   0.00     0.31  -0.13   0.00     0.00   0.00  -0.03
     6   1     0.12  -0.42   0.00    -0.17   0.38   0.00     0.00   0.00  -0.98
     7   1     0.19   0.05   0.00     0.45  -0.02   0.00     0.00   0.00  -0.04
                      7                      8                      9
                     A'                     A'                     A'
 Frequencies --    910.3708               977.5837               987.5454
 Red. masses --      5.6994                 8.8850                 7.3295
 Frc consts  --      2.7830                 5.0028                 4.2115
 IR Inten    --     11.0627                 1.5007                 3.3525
  Atom  AN      X      Y      Z        X      Y      Z        X      Y      Z
     1   6    -0.02   0.01   0.00     0.40   0.18   0.00    -0.13   0.09   0.00
     2   7     0.27   0.35   0.00     0.15  -0.30   0.00    -0.03   0.25   0.00
     3   7    -0.29  -0.20   0.00    -0.09   0.00   0.00     0.46   0.05   0.00
     4   7    -0.09  -0.16   0.00    -0.32  -0.24   0.00    -0.23  -0.36   0.00
     5   7     0.08   0.00   0.00    -0.09   0.39   0.00    -0.04  -0.03   0.00
     6   1     0.14  -0.43   0.00     0.45   0.10   0.00    -0.05  -0.15   0.00
     7   1     0.53   0.40   0.00    -0.20  -0.33   0.00    -0.66   0.23   0.00
                     10                     11                     12
                     A'                     A'                     A'
 Frequencies --   1123.4268              1196.3130              1373.5171
 Red. masses --      2.2557                 2.1929                 2.5419
 Frc consts  --      1.6773                 1.8491                 2.8254
 IR Inten    --      6.4273                17.2353                 7.1334
  Atom  AN      X      Y      Z        X      Y      Z        X      Y      Z
     1   6     0.24  -0.06   0.00    -0.10  -0.17   0.00    -0.12   0.27   0.00
     2   7    -0.12   0.11   0.00    -0.07  -0.02   0.00     0.10  -0.11   0.00
     3   7    -0.08   0.03   0.00     0.03   0.03   0.00    -0.04   0.03   0.00
     4   7     0.03   0.02   0.00     0.02   0.00   0.00     0.01   0.04   0.00
     5   7    -0.01  -0.09   0.00     0.09   0.21   0.00     0.04  -0.12   0.00
     6   1     0.37  -0.37   0.00     0.14  -0.94   0.00     0.23  -0.80   0.00
     7   1    -0.78   0.09   0.00     0.05  -0.02   0.00    -0.38  -0.16   0.00
                     13                     14                     15
                     A'                     A'                     A'
 Frequencies --   1412.7800              3337.4277              3592.3387
 Red. masses --      1.6645                 1.0983                 1.0848
 Frc consts  --      1.9574                 7.2075                 8.2481
 IR Inten    --     53.4691                 1.4056               118.6664
  Atom  AN      X      Y      Z        X      Y      Z        X      Y      Z
     1   6    -0.09  -0.11   0.00     0.09   0.03   0.00     0.01   0.00   0.00
     2   7     0.16  -0.01   0.00     0.00   0.00   0.00    -0.01   0.08   0.00
     3   7    -0.05   0.02   0.00     0.00   0.00   0.00     0.00   0.00   0.00
     4   7     0.03   0.01   0.00     0.00   0.00   0.00     0.00   0.00   0.00
     5   7     0.02   0.06   0.00     0.00   0.00   0.00     0.00   0.00   0.00
     6   1    -0.26   0.32   0.00    -0.94  -0.32   0.00    -0.03  -0.01   0.00
     7   1    -0.88  -0.07   0.00     0.01   0.04   0.00     0.06  -0.99   0.00

 -------------------
 - Thermochemistry -
 -------------------
 Temperature   298.150 Kelvin.  Pressure   1.00000 Atm.
 Atom     1 has atomic number  6 and mass  12.00000
 Atom     2 has atomic number  7 and mass  14.00307
 Atom     3 has atomic number  7 and mass  14.00307
 Atom     4 has atomic number  7 and mass  14.00307
 Atom     5 has atomic number  7 and mass  14.00307
 Atom     6 has atomic number  1 and mass   1.00783
 Atom     7 has atomic number  1 and mass   1.00783
 Molecular mass:    70.02795 amu.
 Principal axes and moments of inertia in atomic units:
                           1         2         3
     Eigenvalues --   187.74261 192.37270 380.11531
           X            0.89801   0.43997   0.00000
           Y           -0.43997   0.89801   0.00000
           Z            0.00000   0.00000   1.00000
 This molecule is an asymmetric top.
 Rotational symmetry number  1.
 Rotational temperatures (Kelvin)      0.46134     0.45024     0.22786
 Rotational constants (GHZ):           9.61285     9.38148     4.74788
 Zero-point vibrational energy     115520.9 (Joules/Mol)
                                   27.61017 (Kcal/Mol)
 Warning -- explicit consideration of   1 degrees of freedom as
           vibrations may cause significant error
 Vibrational temperatures:    885.12   962.67   982.39  1062.23  1167.43
          (Kelvin)           1274.07  1309.82  1406.52  1420.86  1616.36
                             1721.23  1976.18  2032.67  4801.81  5168.57
 
 Zero-point correction=                           0.044000 (Hartree/Particle)
 Thermal correction to Energy=                    0.047646
 Thermal correction to Enthalpy=                  0.048590
 Thermal correction to Gibbs Free Energy=         0.017723
 Sum of electronic and zero-point Energies=           -255.785381
 Sum of electronic and thermal Energies=              -255.781735
 Sum of electronic and thermal Enthalpies=            -255.780790
 Sum of electronic and thermal Free Energies=         -255.811658
 
                     E (Thermal)             CV                S
                      KCal/Mol        Cal/Mol-Kelvin    Cal/Mol-Kelvin
 Total                   29.898             12.588             64.966
 Electronic               0.000              0.000              0.000
 Translational            0.889              2.981             38.656
 Rotational               0.889              2.981             24.133
 Vibrational             28.121              6.626              2.177
 Vibration     1          0.975              1.000              0.424
                       Q            Log10(Q)             Ln(Q)
 Total Bot       0.704991D-08         -8.151816        -18.770250
 Total V=0       0.122055D+13         12.086554         27.830320
 Vib (Bot)       0.729734D-20        -20.136836        -46.366778
 Vib (Bot)    1  0.238922D+00         -0.621744         -1.431618
 Vib (V=0)       0.126338D+01          0.101535          0.233792
 Vib (V=0)    1  0.105415D+01          0.022903          0.052736
 Electronic      0.100000D+01          0.000000          0.000000
 Translational   0.230336D+08          7.362362         16.952466
 Rotational      0.419428D+05          4.622657         10.644062
 ***** Axes restored to original set *****
 -------------------------------------------------------------------
 Center     Atomic                   Forces (Hartrees/Bohr)
 Number     Number              X              Y              Z
 -------------------------------------------------------------------
      1        6          -0.000076067    0.000004743    0.000000000
      2        7           0.000033331    0.000020639    0.000000000
      3        7          -0.000027916    0.000053589    0.000000000
      4        7          -0.000016124   -0.000063172    0.000000000
      5        7           0.000083218   -0.000017643    0.000000000
      6        1           0.000000091   -0.000000690    0.000000000
      7        1           0.000003468    0.000002534    0.000000000
 -------------------------------------------------------------------
 Cartesian Forces:  Max     0.000083218 RMS     0.000032735
 -----------------------------------------------------------------------------------------------
                       Internal Coordinate Forces (Hartree/Bohr or radian)
  Cent   Atom   N1       Length/X         N2         Alpha/Y        N3         Beta/Z          J
 -----------------------------------------------------------------------------------------------
         X 
         X        1   0.000000(     1)
      1  C        1  -0.000075(     2)      2   0.000000(     9)
      2  N        1  -0.000008(     3)      2   0.000000(    10)      3  -0.000122(    16)     0
      3  N        1  -0.000031(     4)      2   0.000000(    11)      3   0.000149(    17)     0
      4  N        1   0.000021(     5)      2   0.000000(    12)      3  -0.000144(    18)     0
      5  N        1  -0.000025(     6)      2   0.000000(    13)      3   0.000124(    19)     0
      6  H        3   0.000000(     7)      4  -0.000001(    14)      5   0.000000(    20)     0
      7  H        4   0.000000(     8)      5   0.000008(    15)      6   0.000000(    21)     0
 -----------------------------------------------------------------------------------------------
 Internal  Forces:  Max     0.000149223 RMS     0.000062145

 GradGradGradGradGradGradGradGradGradGradGradGradGradGradGradGradGradGrad
 Berny optimization.
 Search for a local minimum.
 Step number   1 out of a maximum of    2
 All quantities printed in internal units (Hartrees-Bohrs-Radians)
 Second derivative matrix not updated -- analytic derivatives used.
 The second derivative matrix:
                          rn1       rn2       rn3       rn4       rch
           rn1          0.50932
           rn2         -0.07758   0.36980
           rn3          0.04218  -0.08345   0.36660
           rn4          0.09179   0.07361  -0.05377   0.42079
           rch         -0.00234  -0.00348  -0.00040  -0.00491   0.39035
           rnh          0.00412  -0.01062  -0.00157  -0.00202   0.00084
           an1          0.15756  -0.24138  -0.15958   0.07418   0.01297
           an2          0.15250   0.17385  -0.16076  -0.08733   0.00514
           an3          0.19556   0.09754   0.14853  -0.14849  -0.00341
           an4         -0.08037   0.08646   0.12984  -0.17244  -0.00913
           ach          0.04655   0.01427  -0.01361   0.02149   0.00296
           anh         -0.05765   0.02111   0.02225  -0.01753  -0.00170
                          rnh       an1       an2       an3       an4
           rnh          0.45712
           an1         -0.00465   2.67921
           an2          0.00238  -1.22757   2.32580
           an3         -0.00356  -0.23747  -0.75414   1.16227
           an4         -0.00035  -0.14334  -0.09368  -0.14066   0.74048
           ach          0.00154   0.00650  -0.01597  -0.01064   0.08555
           anh         -0.00272  -0.02921  -0.01558   0.01095  -0.00508
                          ach       anh
           ach          0.22837
           anh          0.00031   0.21254
 ITU=  0
     Eigenvalues ---   -0.00001   0.15209   0.21173   0.24983   0.38959
     Eigenvalues ---    0.45259   0.47476   0.48127   0.66513   0.99545
     Eigenvalues ---    1.97896   3.81126
 Eigenvalue     1 is  -5.07D-06 should be greater than     0.000000 Eigenvector:
                          rn4       an3       rn1       rn2       an2
   1                    0.47195   0.45317  -0.42682  -0.41526   0.32543
                          an4       an1       rn3       ach       anh
   1                    0.28044   0.17654  -0.03957  -0.00004   0.00002
 Angle between quadratic step and forces=  83.47 degrees.
 Linear search not attempted -- first point.
 Variable       Old X    -DE/DX   Delta X   Delta X   Delta X     New X
                                 (Linear)    (Quad)   (Total)
   rn1        2.77510  -0.00001   0.00000  -0.00059  -0.00059   2.77452
   rn2        3.06730  -0.00003   0.00000  -0.00077  -0.00077   3.06654
   rn3        2.33523   0.00002   0.00000  -0.00009  -0.00009   2.33515
   rn4        1.52773  -0.00003   0.00000   0.00072   0.00072   1.52844
   rch        2.03249   0.00000   0.00000   0.00000   0.00000   2.03250
   rnh        1.91684   0.00000   0.00000   0.00000   0.00000   1.91684
   an1        1.12065  -0.00012   0.00000   0.00021   0.00021   1.12086
   an2        2.07425   0.00015   0.00000   0.00051   0.00051   2.07476
   an3        3.05818  -0.00014   0.00000   0.00059   0.00059   3.05877
   an4        4.61721   0.00012   0.00000   0.00060   0.00060   4.61781
   ach        2.15783   0.00000   0.00000  -0.00008  -0.00008   2.15774
   anh        2.09417   0.00001   0.00000   0.00007   0.00007   2.09425
         Item               Value     Threshold  Converged?
 Maximum Force            0.000149     0.000450     YES
 RMS     Force            0.000079     0.000300     YES
 Maximum Displacement     0.000765     0.001800     YES
 RMS     Displacement     0.000454     0.001200     YES
 Predicted change in Energy=-2.455900D-08
 Optimization completed.
    -- Stationary point found.
                       ----------------------------
                       !   Optimized Parameters   !
                       ! (Angstroms and Degrees)  !
 ----------------------                            ----------------------
 !      Name          Value   Derivative information (Atomic Units)     !
 ------------------------------------------------------------------------
 !       rn1         1.4685   -DE/DX =    0.0                           !
 !       rn2         1.6231   -DE/DX =    0.0                           !
 !       rn3         1.2358   -DE/DX =    0.0                           !
 !       rn4         0.8084   -DE/DX =    0.0                           !
 !       rch         1.0755   -DE/DX =    0.0                           !
 !       rnh         1.0143   -DE/DX =    0.0                           !
 !       an1        64.2086   -DE/DX =   -0.0001                        !
 !       an2       118.8457   -DE/DX =    0.0001                        !
 !       an3       175.2209   -DE/DX =   -0.0001                        !
 !       an4       264.5465   -DE/DX =    0.0001                        !
 !       ach       123.6343   -DE/DX =    0.0                           !
 !       anh       119.9874   -DE/DX =    0.0                           !
 ------------------------------------------------------------------------
 GradGradGradGradGradGradGradGradGradGradGradGradGradGradGradGradGradGrad

 1\1\GINC-N354\Freq\RMP2-Full\3-21G\C1H2N4\RDJ3\26-Nov-2013\1\\#N Geom=
 AllCheck Guess=TCheck SCRF=Check GenChk RMP2-Full/3-21G Freq\\1H-tetra
 zole CH2N4 casno=288948 state=1 config=1 method=2 basis=2\\0,1\X\X,1,1
 .\C,1,1.,2,90.\N,1,rn1,2,90.,3,an1,0\N,1,rn2,2,90.,3,an2,0\N,1,rn3,2,9
 0.,3,an3,0\N,1,rn4,2,90.,3,an4,0\H,3,rch,4,ach,5,180.,0\H,4,rnh,5,anh,
 6,180.,0\\rn1=1.46852042\rn2=1.6231463\rn3=1.23575186\rn4=0.80843763\r
 ch=1.07554918\rnh=1.01434934\an1=64.20856282\an2=118.84571154\an3=175.
 22088501\an4=264.54650714\ach=123.63426615\anh=119.98735906\\Version=E
 M64L-G09RevD.01\State=1-A'\HF=-255.2504643\MP2=-255.8293803\RMSD=5.689
 e-10\RMSF=3.273e-05\ZeroPoint=0.0439996\Thermal=0.0476456\Dipole=1.940
 7545,-0.9934606,0.\DipoleDeriv=0.1545528,0.0660861,0.,-0.1103118,0.450
 3359,0.,0.,0.,0.0447328,-0.4939984,0.0090507,0.,0.2465034,-0.4356301,0
 .,0.,0.,-0.2435502,0.3016263,0.0611485,0.,-0.1485234,-0.1446657,0.,0.,
 0.,-0.0548005,0.1923974,-0.0872658,0.,0.2140842,-0.075024,0.,0.,0.,-0.
 1669228,-0.4540896,-0.0009875,0.,-0.1577308,-0.2126279,0.,0.,0.,-0.174
 7216,0.0588832,-0.018661,0.,0.006539,0.1176401,0.,0.,0.,0.1940294,0.24
 06282,-0.029371,0.,-0.0505604,0.2999718,0.,0.,0.,0.4012329\Polar=36.83
 79755,-0.0781206,32.6333034,0.,0.,11.2224219\Quadrupole=1.2785069,-0.9
 210435,-0.3574634,-1.4936311,0.,0.\PG=CS [SG(C1H2N4)]\NImag=0\\0.85632
 215,0.09915434,0.55241941,0.,0.,0.14437203,-0.12233371,-0.04810012,0.,
 0.53866367,-0.05127991,-0.26712161,0.,-0.18228805,0.84772675,0.,0.,-0.
 06389084,0.,0.,0.09426283,-0.07152011,-0.06579854,0.,-0.15086429,-0.05
 822064,0.,0.32410679,-0.01833434,-0.03332082,0.,0.00548273,-0.09729866
 ,0.,0.07848301,0.30698518,0.,0.,0.01926140,0.,0.,-0.06008562,0.,0.,0.0
 9409129,-0.11505683,0.01347178,0.,-0.07263672,0.03562390,0.,-0.0912861
 0,-0.04871476,0.,0.37609559,-0.03791466,0.01101170,0.,0.06424380,-0.06
 153604,0.,0.06456655,-0.09001757,0.,-0.04995210,0.20363090,0.,0.,0.015
 68381,0.,0.,0.02055700,0.,0.,-0.07786913,0.,0.,0.09938603,-0.21666709,
 0.11308823,0.,-0.01330209,0.07727068,0.,-0.00870196,-0.05212514,0.,-0.
 08663725,-0.04056453,0.,0.33956384,0.08390689,-0.17751410,0.,0.0149275
 5,-0.07515628,0.,-0.01099801,-0.09006701,0.,0.05088005,-0.06302518,0.,
 -0.12057425,0.39850663,0.,0.,-0.07534283,0.,0.,0.02180209,0.,0.,0.0289
 5831,0.,0.,-0.07415528,0.,0.,0.09612481,-0.34596590,-0.10059306,0.,0.0
 0472937,0.00496410,0.,0.00060472,0.00537526,0.,-0.00166753,-0.00082188
 ,0.,-0.01352350,-0.00932135,0.,0.35622994,-0.09711130,-0.08323973,0.,-
 0.03362830,-0.00800741,0.,-0.00100841,-0.00593808,0.,0.00667444,-0.002
 03915,0.,0.02335125,0.01075571,0.,0.10134122,0.08939975,0.,0.,-0.03259
 637,0.,0.,-0.00143287,0.,0.,0.00541670,0.,0.,0.00874769,0.,0.,-0.00373
 026,0.,0.,0.02428072,0.01522148,-0.01122263,0.,-0.18425624,0.17392991,
 0.,-0.00233905,0.02983324,0.,-0.00881116,0.00044280,0.,-0.00073195,-0.
 00882088,0.,-0.00040710,0.00038108,0.,0.18132402,0.02157897,-0.0022348
 5,0.,0.17936239,-0.33860674,0.,-0.00702397,0.00965697,0.,-0.00798332,0
 .00197535,0.,-0.00044624,-0.00349978,0.,-0.00094431,-0.00093109,0.,-0.
 18454353,0.33364013,0.,0.,-0.00748720,0.,0.,-0.01121260,0.,0.,-0.00977
 296,0.,0.,0.00764987,0.,0.,0.00634314,0.,0.,-0.00068562,0.,0.,0.015165
 37\\0.00007607,-0.00000474,0.,-0.00003333,-0.00002064,0.,0.00002792,-0
 .00005359,0.,0.00001612,0.00006317,0.,-0.00008322,0.00001764,0.,-0.000
 00009,0.00000069,0.,-0.00000347,-0.00000253,0.\\\@


 THERE IS AN OLD, OLD RECIPE IN MAINE FOR STEWING COOT. PLACE THE
 BIRD IN A KETTLE OF WATER WITH A RED BUILDING BRICK FREE OF MORTAR AND
 BLEMISHES. PARBOIL THE COOT AND BRICK TOGETHER FOR THREE HOURS.
 POUR OFF THE WATER, REFILL THE KETTLE, AND AGAIN PARBOIL FOR THREE HOURS.
 ONCE AGAIN POUR OFF THE WATER, FOR THE LAST TIME ADD FRESH WATER,
 AND LET THE COOT AND BRICK SIMMER TOGETHER OVERNIGHT. IN THE MORNING,
 THROW AWAY THE COOT AND EAT THE BRICK.
 Job cpu time:       0 days  0 hours  1 minutes  0.3 seconds.
 File lengths (MBytes):  RWF=     73 Int=      0 D2E=      0 Chk=      1 Scr=      1
 Normal termination of Gaussian 09 at Tue Nov 26 03:59:16 2013.
