 Entering Gaussian System, Link 0=g09
 Initial command:
 /usr/local/gaussian/g09.d01.em64t.legacy.linda/g09/l1.exe "/tmp/rdj3/g09-15973/Gau-31779.inp" -scrdir="/tmp/rdj3/g09-15973/"
 Entering Link 1 = /usr/local/gaussian/g09.d01.em64t.legacy.linda/g09/l1.exe PID=     31780.
  
 Copyright (c) 1988,1990,1992,1993,1995,1998,2003,2009,2013,
            Gaussian, Inc.  All Rights Reserved.
  
 This is part of the Gaussian(R) 09 program.  It is based on
 the Gaussian(R) 03 system (copyright 2003, Gaussian, Inc.),
 the Gaussian(R) 98 system (copyright 1998, Gaussian, Inc.),
 the Gaussian(R) 94 system (copyright 1995, Gaussian, Inc.),
 the Gaussian 92(TM) system (copyright 1992, Gaussian, Inc.),
 the Gaussian 90(TM) system (copyright 1990, Gaussian, Inc.),
 the Gaussian 88(TM) system (copyright 1988, Gaussian, Inc.),
 the Gaussian 86(TM) system (copyright 1986, Carnegie Mellon
 University), and the Gaussian 82(TM) system (copyright 1983,
 Carnegie Mellon University). Gaussian is a federally registered
 trademark of Gaussian, Inc.
  
 This software contains proprietary and confidential information,
 including trade secrets, belonging to Gaussian, Inc.
  
 This software is provided under written license and may be
 used, copied, transmitted, or stored only in accord with that
 written license.
  
 The following legend is applicable only to US Government
 contracts under FAR:
  
                    RESTRICTED RIGHTS LEGEND
  
 Use, reproduction and disclosure by the US Government is
 subject to restrictions as set forth in subparagraphs (a)
 and (c) of the Commercial Computer Software - Restricted
 Rights clause in FAR 52.227-19.
  
 Gaussian, Inc.
 340 Quinnipiac St., Bldg. 40, Wallingford CT 06492
  
  
 ---------------------------------------------------------------
 Warning -- This program may not be used in any manner that
 competes with the business of Gaussian, Inc. or will provide
 assistance to any competitor of Gaussian, Inc.  The licensee
 of this program is prohibited from giving any competitor of
 Gaussian, Inc. access to this program.  By using this program,
 the user acknowledges that Gaussian, Inc. is engaged in the
 business of creating and licensing software in the field of
 computational chemistry and represents and warrants to the
 licensee that it is not a competitor of Gaussian, Inc. and that
 it will not use this program in any manner prohibited above.
 ---------------------------------------------------------------
  

 Cite this work as:
 Gaussian 09, Revision D.01,
 M. J. Frisch, G. W. Trucks, H. B. Schlegel, G. E. Scuseria, 
 M. A. Robb, J. R. Cheeseman, G. Scalmani, V. Barone, B. Mennucci, 
 G. A. Petersson, H. Nakatsuji, M. Caricato, X. Li, H. P. Hratchian, 
 A. F. Izmaylov, J. Bloino, G. Zheng, J. L. Sonnenberg, M. Hada, 
 M. Ehara, K. Toyota, R. Fukuda, J. Hasegawa, M. Ishida, T. Nakajima, 
 Y. Honda, O. Kitao, H. Nakai, T. Vreven, J. A. Montgomery, Jr., 
 J. E. Peralta, F. Ogliaro, M. Bearpark, J. J. Heyd, E. Brothers, 
 K. N. Kudin, V. N. Staroverov, T. Keith, R. Kobayashi, J. Normand, 
 K. Raghavachari, A. Rendell, J. C. Burant, S. S. Iyengar, J. Tomasi, 
 M. Cossi, N. Rega, J. M. Millam, M. Klene, J. E. Knox, J. B. Cross, 
 V. Bakken, C. Adamo, J. Jaramillo, R. Gomperts, R. E. Stratmann, 
 O. Yazyev, A. J. Austin, R. Cammi, C. Pomelli, J. W. Ochterski, 
 R. L. Martin, K. Morokuma, V. G. Zakrzewski, G. A. Voth, 
 P. Salvador, J. J. Dannenberg, S. Dapprich, A. D. Daniels, 
 O. Farkas, J. B. Foresman, J. V. Ortiz, J. Cioslowski, 
 and D. J. Fox, Gaussian, Inc., Wallingford CT, 2013.
 
 ******************************************
 Gaussian 09:  EM64L-G09RevD.01 24-Apr-2013
                26-Nov-2013 
 ******************************************
 %Nproc=8
 Will use up to    8 processors via shared memory.
 %mem=436000000
 -------------------------------------------
 #MP2=FUll/cc-pVTZ opt=z-matrix freq density
 -------------------------------------------
 1/10=7,18=40,38=1/1,3;
 2/12=2,17=6,18=5,29=3,40=1/2;
 3/5=16,6=1,11=9,16=1,25=1,30=1,71=1/1,2,3;
 4//1;
 5/5=2,38=5/2;
 8/6=4,10=90/1;
 9/15=2,16=-3/6;
 10/5=1/2;
 6/7=2,8=2,9=2,10=2,22=-1/1;
 7/12=2,29=1/1,2,3,16;
 1/10=7,18=40/3(2);
 2/29=3/2;
 99//99;
 2/29=3/2;
 3/5=16,6=1,11=9,16=1,25=1,30=1,71=1/1,2,3;
 4/5=5,16=3,69=1/1;
 5/5=2,38=5/2;
 8/6=4,10=90/1;
 9/15=2,16=-3/6;
 10/5=1/2;
 7/12=2/1,2,3,16;
 1/18=40/3(-8);
 2/29=3/2;
 6/7=2,8=2,9=2,10=2,22=-1/1;
 99//99;
 -----------------------------------------------------------------
 1H-tetrazole CH2N4 casno=288948 state=1 config=1 method=2 basis=6
 -----------------------------------------------------------------
 Symbolic Z-matrix:
 Charge =  0 Multiplicity = 1
 X
 X                    1     1. 
 C                    1     1.       2     90. 
 N                    1    rn1      2     90.      3    an1      0
 N                    1    rn2      2     90.      3    an2      0
 N                    1    rn3      2     90.      3    an3      0
 N                    1    rn4      2     90.      3    an4      0
 H                    3    rch      4    ach      5     180.     0
 H                    4    rnh      5    anh      6     180.     0
       Variables:
  rn1                   1.2426                   
  rn2                   1.333                    
  rn3                   1.1146                   
  rn4                   0.9264                   
  rch                   1.0678                   
  rnh                   0.9941                   
  an1                  71.8427                   
  an2                 133.7028                   
  an3                 194.4597                   
  an4                 276.0768                   
  ach                 125.0248                   
  anh                 120.7626                   
 

 GradGradGradGradGradGradGradGradGradGradGradGradGradGradGradGradGradGrad
 Berny optimization.
 Initialization pass.
                       ----------------------------
                       !    Initial Parameters    !
                       ! (Angstroms and Degrees)  !
 ----------------------                            ----------------------
 !      Name          Value   Derivative information (Atomic Units)     !
 ------------------------------------------------------------------------
 !       rn1         1.2426   estimate D2E/DX2                          !
 !       rn2         1.333    estimate D2E/DX2                          !
 !       rn3         1.1146   estimate D2E/DX2                          !
 !       rn4         0.9264   estimate D2E/DX2                          !
 !       rch         1.0678   estimate D2E/DX2                          !
 !       rnh         0.9941   estimate D2E/DX2                          !
 !       an1        71.8427   estimate D2E/DX2                          !
 !       an2       133.7028   estimate D2E/DX2                          !
 !       an3       194.4597   estimate D2E/DX2                          !
 !       an4       276.0768   estimate D2E/DX2                          !
 !       ach       125.0248   estimate D2E/DX2                          !
 !       anh       120.7626   estimate D2E/DX2                          !
 ------------------------------------------------------------------------
 Trust Radius=3.00D-01 FncErr=1.00D-07 GrdErr=1.00D-07
 Number of steps in this run=     22 maximum allowed number of steps=    100.
 GradGradGradGradGradGradGradGradGradGradGradGradGradGradGradGradGradGrad

 ---------------------------------------------------------------------------------------------------
                            Z-MATRIX (ANGSTROMS AND DEGREES)
   CD    Cent   Atom    N1       Length/X        N2       Alpha/Y        N3        Beta/Z          J
 ---------------------------------------------------------------------------------------------------
      1         X 
      2         X        1   1.000000(     1)
      3      1  C        1   1.000000(     2)      2   90.000(     9)
      4      2  N        1   1.242600(     3)      2   90.000(    10)      3   71.843(    16)      0
      5      3  N        1   1.333000(     4)      2   90.000(    11)      3  133.703(    17)      0
      6      4  N        1   1.114600(     5)      2   90.000(    12)      3  194.460(    18)      0
      7      5  N        1   0.926400(     6)      2   90.000(    13)      3  276.077(    19)      0
      8      6  H        3   1.067800(     7)      4  125.025(    14)      5  180.000(    20)      0
      9      7  H        4   0.994100(     8)      5  120.763(    15)      6  180.000(    21)      0
 ---------------------------------------------------------------------------------------------------
                         Z-Matrix orientation:                         
 ---------------------------------------------------------------------
 Center     Atomic      Atomic             Coordinates (Angstroms)
 Number     Number       Type             X           Y           Z
 ---------------------------------------------------------------------
      1         -1           0        0.000000    0.000000    0.000000
      2         -1           0        0.000000    0.000000    1.000000
      3          6           0        1.000000    0.000000    0.000000
      4          7           0        0.387228   -1.180724    0.000000
      5          7           0       -0.920993   -0.963670    0.000000
      6          7           0       -1.079293    0.278314    0.000000
      7          7           0        0.098070    0.921194    0.000000
      8          1           0        2.058429    0.141157    0.000000
      9          1           0        0.749017   -2.106652    0.000000
 ---------------------------------------------------------------------
                    Distance matrix (angstroms):
                    1          2          3          4          5
     1  X    0.000000
     2  X    1.000000   0.000000
     3  C    1.000000   1.414214   0.000000
     4  N    1.242600   1.595009   1.330263   0.000000
     5  N    1.333000   1.666400   2.149157   1.326105   0.000000
     6  N    1.114600   1.497442   2.097837   2.068690   1.252032
     7  N    0.926400   1.363164   1.289216   2.121715   2.142710
     8  H    2.063263   2.292827   1.067800   2.130794   3.177672
     9  H    2.235847   2.449288   2.121551   0.994100   2.023695
                    6          7          8          9
     6  N    0.000000
     7  N    1.341447   0.000000
     8  H    3.140719   2.109850   0.000000
     9  H    3.005127   3.097029   2.601385   0.000000
 Stoichiometry    CH2N4
 Framework group  CS[SG(CH2N4)]
 Deg. of freedom    11
 Full point group                 CS      NOp   2
 Largest Abelian subgroup         CS      NOp   2
 Largest concise Abelian subgroup C1      NOp   1
                         Standard orientation:                         
 ---------------------------------------------------------------------
 Center     Atomic      Atomic             Coordinates (Angstroms)
 Number     Number       Type             X           Y           Z
 ---------------------------------------------------------------------
      1          6           0        1.052733    0.225621    0.000000
      2          7           0        0.000000    1.038857    0.000000
      3          7           0       -1.095416    0.291448    0.000000
      4          7           0       -0.716382   -0.901832    0.000000
      5          7           0        0.622191   -0.989579    0.000000
      6          1           0        2.072287    0.542964    0.000000
      7          1           0       -0.061439    2.031056    0.000000
 ---------------------------------------------------------------------
 Rotational constants (GHZ):     10.9201517     10.7345054      5.4132664
 Standard basis: CC-pVTZ (5D, 7F)
 There are   142 symmetry adapted cartesian basis functions of A'  symmetry.
 There are    63 symmetry adapted cartesian basis functions of A"  symmetry.
 There are   120 symmetry adapted basis functions of A'  symmetry.
 There are    58 symmetry adapted basis functions of A"  symmetry.
   178 basis functions,   294 primitive gaussians,   205 cartesian basis functions
    18 alpha electrons       18 beta electrons
       nuclear repulsion energy       169.8308489506 Hartrees.
 NAtoms=    7 NActive=    7 NUniq=    7 SFac= 1.00D+00 NAtFMM=   60 NAOKFM=F Big=F
 Integral buffers will be    131072 words long.
 Raffenetti 1 integral format.
 Two-electron integral symmetry is turned on.
 One-electron integrals computed using PRISM.
 NBasis=   178 RedAO= T EigKep=  9.93D-04  NBF=   120    58
 NBsUse=   178 1.00D-06 EigRej= -1.00D+00 NBFU=   120    58
 ExpMin= 1.03D-01 ExpMax= 1.14D+04 ExpMxC= 3.89D+02 IAcc=1 IRadAn=         1 AccDes= 0.00D+00
 Harris functional with IExCor=  205 and IRadAn=       1 diagonalized for initial guess.
 HarFok:  IExCor=  205 AccDes= 0.00D+00 IRadAn=         1 IDoV= 1 UseB2=F ITyADJ=14
 ICtDFT=  3500011 ScaDFX=  1.000000  1.000000  1.000000  1.000000
 FoFCou: FMM=F IPFlag=           0 FMFlag=      100000 FMFlg1=           0
         NFxFlg=           0 DoJE=T BraDBF=F KetDBF=T FulRan=T
         wScrn=  0.000000 ICntrl=     500 IOpCl=  0 I1Cent=   200000004 NGrid=           0
         NMat0=    1 NMatS0=      1 NMatT0=    0 NMatD0=    1 NMtDS0=    0 NMtDT0=    0
 Petite list used in FoFCou.
 Initial guess orbital symmetries:
       Occupied  (A') (A') (A') (A') (A') (A') (A') (A') (A') (A')
                 (A') (A') (A") (A') (A") (A") (A') (A')
       Virtual   (A") (A") (A') (A') (A') (A') (A') (A') (A") (A')
                 (A') (A') (A') (A') (A') (A") (A') (A") (A') (A')
                 (A") (A') (A") (A') (A") (A') (A') (A') (A") (A')
                 (A") (A') (A') (A") (A') (A') (A") (A') (A') (A')
                 (A") (A") (A') (A") (A') (A') (A') (A") (A') (A')
                 (A') (A') (A') (A") (A") (A') (A") (A') (A') (A')
                 (A") (A') (A') (A') (A') (A') (A") (A") (A') (A")
                 (A') (A") (A") (A') (A") (A') (A") (A') (A') (A')
                 (A") (A') (A') (A") (A') (A') (A") (A') (A") (A")
                 (A") (A') (A') (A") (A') (A') (A') (A") (A") (A')
                 (A') (A') (A") (A') (A") (A') (A') (A') (A') (A')
                 (A') (A") (A') (A') (A") (A') (A") (A') (A") (A")
                 (A') (A") (A') (A") (A') (A") (A") (A') (A') (A')
                 (A") (A') (A") (A") (A') (A") (A') (A') (A') (A')
                 (A") (A') (A") (A') (A') (A") (A') (A') (A") (A')
                 (A') (A') (A') (A') (A') (A') (A') (A') (A') (A')
 The electronic state of the initial guess is 1-A'.
 Keep R1 ints in memory in symmetry-blocked form, NReq=191556701.
 Requested convergence on RMS density matrix=1.00D-08 within 128 cycles.
 Requested convergence on MAX density matrix=1.00D-06.
 Requested convergence on             energy=1.00D-06.
 No special actions if energy rises.
 SCF Done:  E(RHF) =  -256.848466948     A.U. after   14 cycles
            NFock= 14  Conv=0.51D-08     -V/T= 2.0006
 Range of M.O.s used for correlation:     1   178
 NBasis=   178 NAE=    18 NBE=    18 NFC=     0 NFV=     0
 NROrb=    178 NOA=    18 NOB=    18 NVA=   160 NVB=   160

 **** Warning!!: The largest alpha MO coefficient is  0.11231376D+02

 Fully direct method using O(ONN) memory.
 JobTyp=1 Pass  1:  I=   1 to   9 NPSUse=  8 ParTrn=T ParDer=T DoDerP=T.
 JobTyp=1 Pass  2:  I=  10 to  18 NPSUse=  8 ParTrn=T ParDer=T DoDerP=T.
 Spin components of T(2) and E(2):
     alpha-alpha T2 =       0.4056052444D-01 E2=     -0.1337722219D+00
     alpha-beta  T2 =       0.2064041797D+00 E2=     -0.7564480878D+00
     beta-beta   T2 =       0.4056052444D-01 E2=     -0.1337722219D+00
 ANorm=    0.1134691689D+01
 E2 =    -0.1023992532D+01 EUMP2 =    -0.25787245947917D+03
          IDoAtm=1111111
          Differentiating once with respect to electric field.
                with respect to dipole field.
          Differentiating once with respect to nuclear coordinates.
 Keep R1 ints in memory in symmetry-blocked form, NReq=191410639.
          There are     1 degrees of freedom in the 1st order CPHF.  IDoFFX=0 NUNeed=     1.
 LinEq1:  Iter=  0 NonCon=     1 RMS=4.56D-03 Max=7.13D-02 NDo=     1
 AX will form     1 AO Fock derivatives at one time.
 LinEq1:  Iter=  1 NonCon=     1 RMS=1.14D-03 Max=2.08D-02 NDo=     1
 LinEq1:  Iter=  2 NonCon=     1 RMS=4.32D-04 Max=1.13D-02 NDo=     1
 LinEq1:  Iter=  3 NonCon=     1 RMS=1.26D-04 Max=1.87D-03 NDo=     1
 LinEq1:  Iter=  4 NonCon=     1 RMS=4.89D-05 Max=1.04D-03 NDo=     1
 LinEq1:  Iter=  5 NonCon=     1 RMS=1.72D-05 Max=3.64D-04 NDo=     1
 LinEq1:  Iter=  6 NonCon=     1 RMS=4.99D-06 Max=1.15D-04 NDo=     1
 LinEq1:  Iter=  7 NonCon=     1 RMS=2.88D-06 Max=6.76D-05 NDo=     1
 LinEq1:  Iter=  8 NonCon=     1 RMS=8.71D-07 Max=1.83D-05 NDo=     1
 LinEq1:  Iter=  9 NonCon=     1 RMS=2.92D-07 Max=5.07D-06 NDo=     1
 LinEq1:  Iter= 10 NonCon=     1 RMS=1.18D-07 Max=1.46D-06 NDo=     1
 LinEq1:  Iter= 11 NonCon=     1 RMS=2.71D-08 Max=3.15D-07 NDo=     1
 LinEq1:  Iter= 12 NonCon=     1 RMS=6.00D-09 Max=8.62D-08 NDo=     1
 LinEq1:  Iter= 13 NonCon=     1 RMS=1.13D-09 Max=1.88D-08 NDo=     1
 LinEq1:  Iter= 14 NonCon=     1 RMS=4.11D-10 Max=6.28D-09 NDo=     1
 LinEq1:  Iter= 15 NonCon=     1 RMS=1.19D-10 Max=2.14D-09 NDo=     1
 LinEq1:  Iter= 16 NonCon=     0 RMS=2.10D-11 Max=3.16D-10 NDo=     1
 Linear equations converged to 1.000D-10 1.000D-09 after    16 iterations.
 End of Minotr F.D. properties file   721 does not exist.
 End of Minotr F.D. properties file   722 does not exist.
 End of Minotr F.D. properties file   788 does not exist.

 **********************************************************************

            Population analysis using the MP2 density.

 **********************************************************************

 Orbital symmetries:
       Occupied  (A') (A') (A') (A') (A') (A') (A') (A') (A') (A')
                 (A') (A") (A') (A') (A') (A') (A") (A")
       Virtual   (A') (A") (A') (A") (A') (A') (A') (A') (A") (A')
                 (A') (A') (A') (A') (A') (A") (A') (A") (A') (A')
                 (A") (A") (A') (A") (A') (A') (A') (A") (A') (A')
                 (A") (A') (A') (A") (A') (A') (A') (A") (A') (A')
                 (A") (A") (A') (A') (A") (A') (A') (A") (A') (A')
                 (A') (A') (A") (A') (A") (A') (A") (A') (A') (A')
                 (A") (A') (A') (A') (A') (A') (A") (A") (A') (A")
                 (A") (A') (A") (A') (A') (A") (A') (A") (A') (A')
                 (A") (A') (A') (A") (A') (A") (A') (A') (A") (A")
                 (A') (A") (A') (A") (A') (A') (A") (A") (A') (A')
                 (A') (A") (A') (A") (A') (A') (A') (A') (A') (A')
                 (A") (A') (A') (A') (A") (A') (A") (A') (A") (A')
                 (A") (A') (A") (A") (A') (A") (A') (A") (A') (A")
                 (A') (A') (A") (A") (A") (A') (A') (A') (A') (A")
                 (A') (A') (A") (A') (A") (A') (A') (A') (A") (A')
                 (A') (A') (A') (A') (A') (A') (A') (A') (A') (A')
 The electronic state is 1-A'.
 Alpha  occ. eigenvalues --  -15.67588 -15.65437 -15.63632 -15.59423 -11.32864
 Alpha  occ. eigenvalues --   -1.51766  -1.26418  -1.20733  -0.91273  -0.89513
 Alpha  occ. eigenvalues --   -0.80817  -0.68993  -0.68285  -0.57314  -0.47592
 Alpha  occ. eigenvalues --   -0.46529  -0.45889  -0.42452
 Alpha virt. eigenvalues --    0.11729   0.14193   0.15908   0.18973   0.27082
 Alpha virt. eigenvalues --    0.29297   0.36188   0.42114   0.42215   0.48125
 Alpha virt. eigenvalues --    0.51760   0.56071   0.56683   0.57784   0.59481
 Alpha virt. eigenvalues --    0.60966   0.63837   0.64038   0.68537   0.72007
 Alpha virt. eigenvalues --    0.73107   0.76529   0.77630   0.80250   0.80715
 Alpha virt. eigenvalues --    0.86062   0.88311   0.94910   0.96263   0.98914
 Alpha virt. eigenvalues --    1.00572   1.01506   1.10766   1.11035   1.17561
 Alpha virt. eigenvalues --    1.18871   1.21017   1.25126   1.34709   1.44433
 Alpha virt. eigenvalues --    1.46274   1.52646   1.55410   1.60317   1.62397
 Alpha virt. eigenvalues --    1.64533   1.69020   1.75288   1.77839   1.83032
 Alpha virt. eigenvalues --    1.87166   1.89979   1.92075   1.92162   1.99826
 Alpha virt. eigenvalues --    2.02808   2.17630   2.18766   2.19966   2.27045
 Alpha virt. eigenvalues --    2.39780   2.39870   2.56224   2.70233   2.76229
 Alpha virt. eigenvalues --    2.89032   2.99404   3.04890   3.08497   3.14816
 Alpha virt. eigenvalues --    3.18076   3.19475   3.21105   3.24229   3.29967
 Alpha virt. eigenvalues --    3.31975   3.39648   3.40592   3.46465   3.50979
 Alpha virt. eigenvalues --    3.51427   3.57060   3.60544   3.65350   3.70791
 Alpha virt. eigenvalues --    3.72194   3.75431   3.80806   3.81293   3.85789
 Alpha virt. eigenvalues --    3.89924   3.91306   3.95225   3.95624   3.98453
 Alpha virt. eigenvalues --    4.07371   4.09835   4.10602   4.11142   4.21712
 Alpha virt. eigenvalues --    4.26429   4.26832   4.29887   4.31133   4.36993
 Alpha virt. eigenvalues --    4.39418   4.43695   4.51575   4.59051   4.70575
 Alpha virt. eigenvalues --    4.73593   4.74501   4.83685   4.86905   4.90096
 Alpha virt. eigenvalues --    4.90713   5.00392   5.02148   5.07594   5.09481
 Alpha virt. eigenvalues --    5.11093   5.17009   5.18408   5.21730   5.26486
 Alpha virt. eigenvalues --    5.28008   5.29177   5.29672   5.37088   5.38940
 Alpha virt. eigenvalues --    5.39464   5.46690   5.56419   5.62476   5.69253
 Alpha virt. eigenvalues --    5.70237   5.73278   5.77691   5.84574   5.92760
 Alpha virt. eigenvalues --    5.94476   5.99143   6.11913   6.18913   6.21945
 Alpha virt. eigenvalues --    6.29105   6.34280   6.38228   6.38273   6.55232
 Alpha virt. eigenvalues --    6.62516   6.75940   7.16664   7.38254   7.50245
 Alpha virt. eigenvalues --    8.51668  11.52196  12.88010  14.01827  14.68757
          Condensed to atoms (all electrons):
               1          2          3          4          5          6
     1  C    5.045378   0.416167  -0.100397  -0.115291   0.532555   0.371987
     2  N    0.416167   6.206058   0.283538  -0.111919  -0.098633  -0.033140
     3  N   -0.100397   0.283538   6.635170   0.376660  -0.114924   0.003073
     4  N   -0.115291  -0.111919   0.376660   6.588369   0.335182   0.002127
     5  N    0.532555  -0.098633  -0.114924   0.335182   6.487237  -0.022369
     6  H    0.371987  -0.033140   0.003073   0.002127  -0.022369   0.494923
     7  H   -0.030130   0.353139  -0.023560   0.006662   0.007294  -0.001256
               7
     1  C   -0.030130
     2  N    0.353139
     3  N   -0.023560
     4  N    0.006662
     5  N    0.007294
     6  H   -0.001256
     7  H    0.469338
 Mulliken charges:
               1
     1  C   -0.120267
     2  N   -0.015211
     3  N   -0.059560
     4  N   -0.081790
     5  N   -0.126342
     6  H    0.184655
     7  H    0.218514
 Sum of Mulliken charges =   0.00000
 Mulliken charges with hydrogens summed into heavy atoms:
               1
     1  C    0.064388
     2  N    0.203304
     3  N   -0.059560
     4  N   -0.081790
     5  N   -0.126342
 Electronic spatial extent (au):  <R**2>=            244.8720
 Charge=              0.0000 electrons
 Dipole moment (field-independent basis, Debye):
    X=              2.4199    Y=              4.7546    Z=              0.0000  Tot=              5.3350
 Quadrupole moment (field-independent basis, Debye-Ang):
   XX=            -29.1955   YY=            -26.5440   ZZ=            -28.3123
   XY=              1.7187   XZ=              0.0000   YZ=              0.0000
 Traceless Quadrupole moment (field-independent basis, Debye-Ang):
   XX=             -1.1782   YY=              1.4733   ZZ=             -0.2951
   XY=              1.7187   XZ=              0.0000   YZ=              0.0000
 Octapole moment (field-independent basis, Debye-Ang**2):
  XXX=             11.4544  YYY=             22.1862  ZZZ=              0.0000  XYY=             -0.5975
  XXY=              4.4784  XXZ=              0.0000  XZZ=             -0.8247  YZZ=              0.5787
  YYZ=              0.0000  XYZ=              0.0000
 Hexadecapole moment (field-independent basis, Debye-Ang**3):
 XXXX=           -142.2151 YYYY=           -119.7317 ZZZZ=            -25.8656 XXXY=              6.5385
 XXXZ=              0.0000 YYYX=             -0.4477 YYYZ=              0.0000 ZZZX=              0.0000
 ZZZY=              0.0000 XXYY=            -53.3993 XXZZ=            -30.2287 YYZZ=            -28.4053
 XXYZ=              0.0000 YYXZ=              0.0000 ZZXY=             -0.1222
 N-N= 1.698308489506D+02 E-N=-9.423669193389D+02  KE= 2.578836300737D+02
 Symmetry A'   KE= 2.481877267027D+02
 Symmetry A"   KE= 9.695903370999D+00
 Calling FoFJK, ICntrl=  10002127 FMM=F ISym2X=1 I1Cent= 0 IOpClX= 0 NMat=1 NMatS=1 NMatT=0.
 ***** Axes restored to original set *****
 -------------------------------------------------------------------
 Center     Atomic                   Forces (Hartrees/Bohr)
 Number     Number              X              Y              Z
 -------------------------------------------------------------------
      1        6           0.023965667   -0.009805016    0.000000000
      2        7           0.005176833   -0.004534084    0.000000000
      3        7          -0.007488038   -0.052595051    0.000000000
      4        7          -0.020144231    0.045219211    0.000000000
      5        7          -0.005624079    0.030638334    0.000000000
      6        1           0.000986813   -0.000402536    0.000000000
      7        1           0.003127035   -0.008520858    0.000000000
 -------------------------------------------------------------------
 Cartesian Forces:  Max     0.052595051 RMS     0.018315467
 -----------------------------------------------------------------------------------------------
                       Internal Coordinate Forces (Hartree/Bohr or radian)
  Cent   Atom   N1       Length/X         N2         Alpha/Y        N3         Beta/Z          J
 -----------------------------------------------------------------------------------------------
         X 
         X        1   0.000000(     1)
      1  C        1   0.025330(     2)      2   0.000000(     9)
      2  N        1   0.014814(     3)      2   0.000000(    10)      3  -0.008123(    16)     0
      3  N        1   0.043080(     4)      2   0.000000(    11)      3  -0.077701(    17)     0
      4  N        1   0.030797(     5)      2   0.000000(    12)      3   0.081633(    18)     0
      5  N        1   0.029871(     6)      2   0.000000(    13)      3  -0.015468(    19)     0
      6  H        3   0.000925(     7)      4  -0.001068(    14)      5   0.000000(    20)     0
      7  H        4   0.009075(     8)      5  -0.000354(    15)      6   0.000000(    21)     0
 -----------------------------------------------------------------------------------------------
 Internal  Forces:  Max     0.081633078 RMS     0.028989969

 GradGradGradGradGradGradGradGradGradGradGradGradGradGradGradGradGradGrad
 Berny optimization.
 Search for a local minimum.
 Step number   1 out of a maximum of   22
 All quantities printed in internal units (Hartrees-Bohrs-Radians)
 Second derivative matrix not updated -- first step.
 The second derivative matrix:
                          rn1       rn2       rn3       rn4       rch
           rn1          0.65186
           rn2          0.01318   0.69869
           rn3          0.03472   0.07334   0.58262
           rn4          0.03688   0.02662   0.13967   0.63921
           rch          0.00000   0.00000   0.00000   0.00000   0.37510
           rnh          0.00000   0.00000   0.00000   0.00000   0.00000
           an1          0.02012  -0.75016   0.04258  -0.08486   0.00000
           an2          0.72119  -0.31234  -0.71865   0.05436   0.00000
           an3         -0.02914   1.04797   0.05412  -0.58583   0.00000
           an4          0.05328  -0.03228   0.65851  -0.10009   0.00000
           ach          0.04546   0.00000   0.00000   0.05066   0.00000
           anh         -0.10206   0.05276   0.00000   0.00000   0.00000
                          rnh       an1       an2       an3       an4
           rnh          0.48741
           an1          0.00000   4.53257
           an2          0.00000  -2.68051   6.02300
           an3          0.00000  -0.03573  -3.19618   4.47465
           an4          0.00000  -0.12258  -0.06592  -1.16042   2.58479
           ach          0.00000  -0.10460   0.00000   0.00000   0.07318
           anh          0.00000   0.03519  -0.09059   0.00000   0.00000
                          ach       anh
           ach          0.32000
           anh          0.00000   0.32000
 ITU=  0
     Eigenvalues ---    0.00000   0.13346   0.26445   0.33044   0.37510
     Eigenvalues ---    0.40158   0.48741   0.75609   1.20990   2.99509
     Eigenvalues ---    5.09563   9.64077
 RFO step:  Lambda=-6.02140427D-03 EMin=-6.95624114D-16
 Linear search not attempted -- first point.
 Variable       Old X    -DE/DX   Delta X   Delta X   Delta X     New X
                                 (Linear)    (Quad)   (Total)
   rn1        2.34817   0.01481   0.00000   0.01990   0.01990   2.36807
   rn2        2.51900   0.04308   0.00000   0.04732   0.04732   2.56633
   rn3        2.10629   0.03080   0.00000   0.04663   0.04663   2.15292
   rn4        1.75064   0.02987   0.00000   0.03943   0.03943   1.79008
   rch        2.01785   0.00092   0.00000   0.00243   0.00243   2.02028
   rnh        1.87858   0.00907   0.00000   0.01839   0.01839   1.89697
   an1        1.25389  -0.00812   0.00000   0.00484   0.00484   1.25873
   an2        2.33355  -0.07770   0.00000  -0.00165  -0.00165   2.33190
   an3        3.39396   0.08163   0.00000   0.00754   0.00754   3.40150
   an4        4.81845  -0.01547   0.00000  -0.01233  -0.01233   4.80612
   ach        2.18209  -0.00107   0.00000  -0.00786  -0.00786   2.17424
   anh        2.10770  -0.00035   0.00000  -0.00350  -0.00350   2.10421
         Item               Value     Threshold  Converged?
 Maximum Force            0.081633     0.000450     NO 
 RMS     Force            0.037647     0.000300     NO 
 Maximum Displacement     0.047323     0.001800     NO 
 RMS     Displacement     0.024183     0.001200     NO 
 Predicted change in Energy=-3.031833D-03
 GradGradGradGradGradGradGradGradGradGradGradGradGradGradGradGradGradGrad

 ---------------------------------------------------------------------------------------------------
                            Z-MATRIX (ANGSTROMS AND DEGREES)
   CD    Cent   Atom    N1       Length/X        N2       Alpha/Y        N3        Beta/Z          J
 ---------------------------------------------------------------------------------------------------
      1         X 
      2         X        1   1.000000(     1)
      3      1  C        1   1.000000(     2)      2   90.000(     9)
      4      2  N        1   1.253129(     3)      2   90.000(    10)      3   72.120(    16)      0
      5      3  N        1   1.358042(     4)      2   90.000(    11)      3  133.608(    17)      0
      6      4  N        1   1.139274(     5)      2   90.000(    12)      3  194.892(    18)      0
      7      5  N        1   0.947268(     6)      2   90.000(    13)      3  275.370(    19)      0
      8      6  H        3   1.069084(     7)      4  124.575(    14)      5  180.000(    20)      0
      9      7  H        4   1.003832(     8)      5  120.562(    15)      6  180.000(    21)      0
 ---------------------------------------------------------------------------------------------------
                         Z-Matrix orientation:                         
 ---------------------------------------------------------------------
 Center     Atomic      Atomic             Coordinates (Angstroms)
 Number     Number       Type             X           Y           Z
 ---------------------------------------------------------------------
      1         -1           0        0.000000    0.000000    0.000000
      2         -1           0        0.000000    0.000000    1.000000
      3          6           0        1.000000    0.000000    0.000000
      4          7           0        0.384742   -1.192605    0.000000
      5          7           0       -0.936670   -0.983325    0.000000
      6          7           0       -1.101010    0.292782    0.000000
      7          7           0        0.088655    0.943110    0.000000
      8          1           0        2.060453    0.135577    0.000000
      9          1           0        0.753670   -2.126184    0.000000
 ---------------------------------------------------------------------
                    Distance matrix (angstroms):
                    1          2          3          4          5
     1  X    0.000000
     2  X    1.000000   0.000000
     3  C    1.000000   1.414214   0.000000
     4  N    1.253129   1.603226   1.341957   0.000000
     5  N    1.358042   1.686499   2.172008   1.337882   0.000000
     6  N    1.139274   1.515897   2.121312   2.100913   1.286646
     7  N    0.947268   1.377431   1.311490   2.156141   2.182302
     8  H    2.064908   2.294307   1.069084   2.138240   3.199170
     9  H    2.255810   2.467525   2.140406   1.003832   2.040436
                    6          7          8          9
     6  N    0.000000
     7  N    1.355813   0.000000
     8  H    3.165369   2.130751   0.000000
     9  H    3.048153   3.140512   2.612134   0.000000
 Stoichiometry    CH2N4
 Framework group  CS[SG(CH2N4)]
 Deg. of freedom    11
 Full point group                 CS      NOp   2
 Largest Abelian subgroup         CS      NOp   2
 Largest concise Abelian subgroup C1      NOp   1
                         Standard orientation:                         
 ---------------------------------------------------------------------
 Center     Atomic      Atomic             Coordinates (Angstroms)
 Number     Number       Type             X           Y           Z
 ---------------------------------------------------------------------
      1          6           0        1.060901    0.230977    0.000000
      2          7           0        0.000000    1.052767    0.000000
      3          7           0       -1.109824    0.305626    0.000000
      4          7           0       -0.720549   -0.920719    0.000000
      5          7           0        0.632417   -1.008542    0.000000
      6          1           0        2.079583    0.555366    0.000000
      7          1           0       -0.059296    2.054846    0.000000
 ---------------------------------------------------------------------
 Rotational constants (GHZ):     10.6388718     10.4247998      5.2653740
 Standard basis: CC-pVTZ (5D, 7F)
 There are   142 symmetry adapted cartesian basis functions of A'  symmetry.
 There are    63 symmetry adapted cartesian basis functions of A"  symmetry.
 There are   120 symmetry adapted basis functions of A'  symmetry.
 There are    58 symmetry adapted basis functions of A"  symmetry.
   178 basis functions,   294 primitive gaussians,   205 cartesian basis functions
    18 alpha electrons       18 beta electrons
       nuclear repulsion energy       167.4824096871 Hartrees.
 NAtoms=    7 NActive=    7 NUniq=    7 SFac= 1.00D+00 NAtFMM=   60 NAOKFM=F Big=F
 Integral buffers will be    131072 words long.
 Raffenetti 1 integral format.
 Two-electron integral symmetry is turned on.
 One-electron integrals computed using PRISM.
 NBasis=   178 RedAO= T EigKep=  1.10D-03  NBF=   120    58
 NBsUse=   178 1.00D-06 EigRej= -1.00D+00 NBFU=   120    58
 Initial guess from the checkpoint file:  "/tmp/rdj3/g09-15973/Gau-31780.chk"
 B after Tr=     0.000000    0.000000    0.000000
         Rot=    1.000000    0.000000    0.000000   -0.000155 Ang=  -0.02 deg.
 Initial guess orbital symmetries:
       Occupied  (A') (A') (A') (A') (A') (A') (A') (A') (A') (A')
                 (A') (A") (A') (A') (A') (A') (A") (A")
       Virtual   (A') (A') (A') (A') (A') (A') (A') (A') (A') (A')
                 (A') (A') (A') (A') (A') (A') (A') (A') (A') (A')
                 (A') (A') (A') (A') (A') (A') (A') (A') (A') (A')
                 (A') (A') (A') (A') (A') (A') (A') (A') (A') (A')
                 (A') (A') (A') (A') (A') (A') (A') (A') (A') (A')
                 (A') (A') (A') (A') (A') (A') (A') (A') (A') (A')
                 (A') (A') (A') (A') (A') (A') (A') (A') (A') (A')
                 (A') (A') (A') (A') (A') (A') (A') (A') (A') (A')
                 (A') (A') (A') (A') (A') (A') (A') (A') (A') (A')
                 (A') (A') (A') (A') (A') (A') (A') (A') (A') (A')
                 (A') (A') (A') (A') (A') (A") (A") (A") (A") (A")
                 (A") (A") (A") (A") (A") (A") (A") (A") (A") (A")
                 (A") (A") (A") (A") (A") (A") (A") (A") (A") (A")
                 (A") (A") (A") (A") (A") (A") (A") (A") (A") (A")
                 (A") (A") (A") (A") (A") (A") (A") (A") (A") (A")
                 (A") (A") (A") (A") (A") (A") (A") (A") (A") (A")
 ExpMin= 1.03D-01 ExpMax= 1.14D+04 ExpMxC= 3.89D+02 IAcc=1 IRadAn=         1 AccDes= 0.00D+00
 Harris functional with IExCor=  205 and IRadAn=       1 diagonalized for initial guess.
 HarFok:  IExCor=  205 AccDes= 0.00D+00 IRadAn=         1 IDoV= 1 UseB2=F ITyADJ=14
 ICtDFT=  3500011 ScaDFX=  1.000000  1.000000  1.000000  1.000000
 FoFCou: FMM=F IPFlag=           0 FMFlag=      100000 FMFlg1=           0
         NFxFlg=           0 DoJE=T BraDBF=F KetDBF=T FulRan=T
         wScrn=  0.000000 ICntrl=     500 IOpCl=  0 I1Cent=   200000004 NGrid=           0
         NMat0=    1 NMatS0=      1 NMatT0=    0 NMatD0=    1 NMtDS0=    0 NMtDT0=    0
 Petite list used in FoFCou.
 Keep R1 ints in memory in symmetry-blocked form, NReq=191556701.
 Requested convergence on RMS density matrix=1.00D-08 within 128 cycles.
 Requested convergence on MAX density matrix=1.00D-06.
 Requested convergence on             energy=1.00D-06.
 No special actions if energy rises.
 SCF Done:  E(RHF) =  -256.844629310     A.U. after   12 cycles
            NFock= 12  Conv=0.84D-08     -V/T= 2.0019
 Range of M.O.s used for correlation:     1   178
 NBasis=   178 NAE=    18 NBE=    18 NFC=     0 NFV=     0
 NROrb=    178 NOA=    18 NOB=    18 NVA=   160 NVB=   160

 **** Warning!!: The largest alpha MO coefficient is  0.10786850D+02

 Fully direct method using O(ONN) memory.
 JobTyp=1 Pass  1:  I=   1 to   9 NPSUse=  8 ParTrn=T ParDer=T DoDerP=T.
 JobTyp=1 Pass  2:  I=  10 to  18 NPSUse=  8 ParTrn=T ParDer=T DoDerP=T.
 Spin components of T(2) and E(2):
     alpha-alpha T2 =       0.4182213662D-01 E2=     -0.1347583820D+00
     alpha-beta  T2 =       0.2128094047D+00 E2=     -0.7617849198D+00
     beta-beta   T2 =       0.4182213662D-01 E2=     -0.1347583820D+00
 ANorm=    0.1138619198D+01
 E2 =    -0.1031301684D+01 EUMP2 =    -0.25787593099366D+03
          IDoAtm=1111111
          Differentiating once with respect to electric field.
                with respect to dipole field.
          Differentiating once with respect to nuclear coordinates.
 Keep R1 ints in memory in symmetry-blocked form, NReq=191410639.
          There are     1 degrees of freedom in the 1st order CPHF.  IDoFFX=0 NUNeed=     1.
 LinEq1:  Iter=  0 NonCon=     1 RMS=4.70D-03 Max=6.94D-02 NDo=     1
 AX will form     1 AO Fock derivatives at one time.
 LinEq1:  Iter=  1 NonCon=     1 RMS=1.19D-03 Max=2.07D-02 NDo=     1
 LinEq1:  Iter=  2 NonCon=     1 RMS=4.56D-04 Max=1.27D-02 NDo=     1
 LinEq1:  Iter=  3 NonCon=     1 RMS=1.39D-04 Max=2.13D-03 NDo=     1
 LinEq1:  Iter=  4 NonCon=     1 RMS=5.67D-05 Max=1.38D-03 NDo=     1
 LinEq1:  Iter=  5 NonCon=     1 RMS=1.90D-05 Max=4.32D-04 NDo=     1
 LinEq1:  Iter=  6 NonCon=     1 RMS=5.01D-06 Max=1.04D-04 NDo=     1
 LinEq1:  Iter=  7 NonCon=     1 RMS=2.92D-06 Max=8.89D-05 NDo=     1
 LinEq1:  Iter=  8 NonCon=     1 RMS=9.74D-07 Max=1.59D-05 NDo=     1
 LinEq1:  Iter=  9 NonCon=     1 RMS=3.88D-07 Max=1.07D-05 NDo=     1
 LinEq1:  Iter= 10 NonCon=     1 RMS=1.48D-07 Max=1.50D-06 NDo=     1
 LinEq1:  Iter= 11 NonCon=     1 RMS=3.41D-08 Max=3.87D-07 NDo=     1
 LinEq1:  Iter= 12 NonCon=     1 RMS=8.56D-09 Max=1.43D-07 NDo=     1
 LinEq1:  Iter= 13 NonCon=     1 RMS=2.82D-09 Max=3.40D-08 NDo=     1
 LinEq1:  Iter= 14 NonCon=     1 RMS=8.76D-10 Max=1.43D-08 NDo=     1
 LinEq1:  Iter= 15 NonCon=     1 RMS=1.76D-10 Max=2.67D-09 NDo=     1
 LinEq1:  Iter= 16 NonCon=     0 RMS=2.99D-11 Max=4.04D-10 NDo=     1
 Linear equations converged to 1.000D-10 1.000D-09 after    16 iterations.
 End of Minotr F.D. properties file   721 does not exist.
 End of Minotr F.D. properties file   722 does not exist.
 End of Minotr F.D. properties file   788 does not exist.
 Calling FoFJK, ICntrl=  10002127 FMM=F ISym2X=1 I1Cent= 0 IOpClX= 0 NMat=1 NMatS=1 NMatT=0.
 ***** Axes restored to original set *****
 -------------------------------------------------------------------
 Center     Atomic                   Forces (Hartrees/Bohr)
 Number     Number              X              Y              Z
 -------------------------------------------------------------------
      1        6           0.004324245   -0.003928156    0.000000000
      2        7          -0.001065896    0.006073201    0.000000000
      3        7           0.000682229   -0.017420330    0.000000000
      4        7          -0.002322497    0.015030083    0.000000000
      5        7          -0.001786273    0.000483264    0.000000000
      6        1           0.000051094   -0.000036025    0.000000000
      7        1           0.000117098   -0.000202037    0.000000000
 -------------------------------------------------------------------
 Cartesian Forces:  Max     0.017420330 RMS     0.005393395
 -----------------------------------------------------------------------------------------------
                       Internal Coordinate Forces (Hartree/Bohr or radian)
  Cent   Atom   N1       Length/X         N2         Alpha/Y        N3         Beta/Z          J
 -----------------------------------------------------------------------------------------------
         X 
         X        1   0.000000(     1)
      1  C        1   0.004405(     2)      2   0.000000(     9)
      2  N        1  -0.005926(     3)      2   0.000000(    10)      3  -0.002102(    16)     0
      3  N        1   0.012164(     4)      2   0.000000(    11)      3  -0.032140(    17)     0
      4  N        1   0.006107(     5)      2   0.000000(    12)      3   0.029987(    18)     0
      5  N        1   0.000314(     6)      2   0.000000(    13)      3  -0.003264(    19)     0
      6  H        3   0.000046(     7)      4  -0.000085(    14)      5   0.000000(    20)     0
      7  H        4   0.000231(     8)      5   0.000066(    15)      6   0.000000(    21)     0
 -----------------------------------------------------------------------------------------------
 Internal  Forces:  Max     0.032140479 RMS     0.010205621

 GradGradGradGradGradGradGradGradGradGradGradGradGradGradGradGradGradGrad
 Berny optimization.
 Search for a local minimum.
 Step number   2 out of a maximum of   22
 All quantities printed in internal units (Hartrees-Bohrs-Radians)
 Update second derivatives using D2CorN and points    1    2
 DE= -3.47D-03 DEPred=-3.03D-03 R= 1.15D+00
 TightC=F SS=  1.41D+00  RLast= 8.38D-02 DXNew= 5.0454D-01 2.5131D-01
 Trust test= 1.15D+00 RLast= 8.38D-02 DXMaxT set to 3.00D-01
 The second derivative matrix:
                          rn1       rn2       rn3       rn4       rch
           rn1          0.66900
           rn2          0.01672   0.61858
           rn3          0.04654   0.01423   0.54391
           rn4          0.05376  -0.00702   0.12305   0.63878
           rch          0.00100  -0.00216  -0.00111  -0.00010   0.37508
           rnh          0.00775  -0.01597  -0.00803  -0.00044  -0.00006
           an1          0.02522  -0.74707   0.04765  -0.07889   0.00036
           an2          0.76603  -0.20260  -0.61122   0.14464   0.00556
           an3         -0.06834   0.94064  -0.04848  -0.66999  -0.00519
           an4          0.05249  -0.01108   0.67423  -0.09106   0.00058
           ach          0.04213   0.00678   0.00339   0.05080   0.00002
           anh         -0.10369   0.05542   0.00116  -0.00022  -0.00001
                          rnh       an1       an2       an3       an4
           rnh          0.48709
           an1          0.00275   4.53404
           an2          0.04212  -2.66968   6.01543
           an3         -0.03930  -0.04491  -3.17540   4.44249
           an4          0.00429  -0.12335  -0.09453  -1.13240   2.57918
           ach          0.00012  -0.10578  -0.01799   0.01678   0.07136
           anh         -0.00008   0.03463  -0.09859   0.00741  -0.00072
                          ach       anh
           ach          0.31996
           anh          0.00004   0.32004
 ITU=  1  0
     Eigenvalues ---    0.00000   0.11835   0.26412   0.32591   0.37506
     Eigenvalues ---    0.39241   0.48675   0.73554   1.20573   2.98762
     Eigenvalues ---    5.06395   9.58817
 RFO step:  Lambda=-3.52574147D-04 EMin=-4.41826128D-07
 Quartic linear search produced a step of  0.24209.
 Variable       Old X    -DE/DX   Delta X   Delta X   Delta X     New X
                                 (Linear)    (Quad)   (Total)
   rn1        2.36807  -0.00593   0.00482  -0.12873  -0.12392   2.24415
   rn2        2.56633   0.01216   0.01146  -0.06605  -0.05459   2.51174
   rn3        2.15292   0.00611   0.01129   0.04118   0.05247   2.20539
   rn4        1.79008   0.00031   0.00955   0.10137   0.11092   1.90100
   rch        2.02028   0.00005   0.00059  -0.00018   0.00041   2.02069
   rnh        1.89697   0.00023   0.00445  -0.00237   0.00208   1.89905
   an1        1.25873  -0.00210   0.00117   0.04903   0.05021   1.30894
   an2        2.33190  -0.03214  -0.00040   0.09395   0.09355   2.42545
   an3        3.40150   0.02999   0.00182   0.11199   0.11381   3.51531
   an4        4.80612  -0.00326  -0.00299   0.04972   0.04673   4.85285
   ach        2.17424  -0.00009  -0.00190   0.00637   0.00446   2.17870
   anh        2.10421   0.00007  -0.00085  -0.00887  -0.00971   2.09449
         Item               Value     Threshold  Converged?
 Maximum Force            0.032140     0.000450     NO 
 RMS     Force            0.013441     0.000300     NO 
 Maximum Displacement     0.123917     0.001800     NO 
 RMS     Displacement     0.070663     0.001200     NO 
 Predicted change in Energy=-2.622957D-04
 GradGradGradGradGradGradGradGradGradGradGradGradGradGradGradGradGradGrad

 ---------------------------------------------------------------------------------------------------
                            Z-MATRIX (ANGSTROMS AND DEGREES)
   CD    Cent   Atom    N1       Length/X        N2       Alpha/Y        N3        Beta/Z          J
 ---------------------------------------------------------------------------------------------------
      1         X 
      2         X        1   1.000000(     1)
      3      1  C        1   1.000000(     2)      2   90.000(     9)
      4      2  N        1   1.187555(     3)      2   90.000(    10)      3   74.997(    16)      0
      5      3  N        1   1.329153(     4)      2   90.000(    11)      3  138.968(    17)      0
      6      4  N        1   1.167040(     5)      2   90.000(    12)      3  201.413(    18)      0
      7      5  N        1   1.005965(     6)      2   90.000(    13)      3  278.048(    19)      0
      8      6  H        3   1.069301(     7)      4  124.830(    14)      5  180.000(    20)      0
      9      7  H        4   1.004933(     8)      5  120.006(    15)      6  180.000(    21)      0
 ---------------------------------------------------------------------------------------------------
                         Z-Matrix orientation:                         
 ---------------------------------------------------------------------
 Center     Atomic      Atomic             Coordinates (Angstroms)
 Number     Number       Type             X           Y           Z
 ---------------------------------------------------------------------
      1         -1           0        0.000000    0.000000    0.000000
      2         -1           0        0.000000    0.000000    1.000000
      3          6           0        1.000000    0.000000    0.000000
      4          7           0        0.307432   -1.147071    0.000000
      5          7           0       -1.002634   -0.872567    0.000000
      6          7           0       -1.086486    0.426065    0.000000
      7          7           0        0.140832    0.996058    0.000000
      8          1           0        2.067063    0.069154    0.000000
      9          1           0        0.620832   -2.101886    0.000000
 ---------------------------------------------------------------------
                    Distance matrix (angstroms):
                    1          2          3          4          5
     1  X    0.000000
     2  X    1.000000   0.000000
     3  C    1.000000   1.414214   0.000000
     4  N    1.187555   1.552510   1.339934   0.000000
     5  N    1.329153   1.663325   2.184472   1.338516   0.000000
     6  N    1.167040   1.536874   2.129543   2.101848   1.301337
     7  N    1.005965   1.418437   1.315409   2.149595   2.190725
     8  H    2.068219   2.297288   1.069301   2.139043   3.210900
     9  H    2.191656   2.409015   2.135812   1.004933   2.036385
                    6          7          8          9
     6  N    0.000000
     7  N    1.353219   0.000000
     8  H    3.173681   2.137642   0.000000
     9  H    3.050487   3.134909   2.608639   0.000000
 Stoichiometry    CH2N4
 Framework group  CS[SG(CH2N4)]
 Deg. of freedom    11
 Full point group                 CS      NOp   2
 Largest Abelian subgroup         CS      NOp   2
 Largest concise Abelian subgroup C1      NOp   1
                         Standard orientation:                         
 ---------------------------------------------------------------------
 Center     Atomic      Atomic             Coordinates (Angstroms)
 Number     Number       Type             X           Y           Z
 ---------------------------------------------------------------------
      1          6           0        1.065734    0.235603    0.000000
      2          7           0        0.000000    1.047781    0.000000
      3          7           0       -1.117439    0.310926    0.000000
      4          7           0       -0.718052   -0.927609    0.000000
      5          7           0        0.632863   -1.006541    0.000000
      6          1           0        2.083509    0.563535    0.000000
      7          1           0       -0.059524    2.050950    0.000000
 ---------------------------------------------------------------------
 Rotational constants (GHZ):     10.5925854     10.3890521      5.2449158
 Standard basis: CC-pVTZ (5D, 7F)
 There are   142 symmetry adapted cartesian basis functions of A'  symmetry.
 There are    63 symmetry adapted cartesian basis functions of A"  symmetry.
 There are   120 symmetry adapted basis functions of A'  symmetry.
 There are    58 symmetry adapted basis functions of A"  symmetry.
   178 basis functions,   294 primitive gaussians,   205 cartesian basis functions
    18 alpha electrons       18 beta electrons
       nuclear repulsion energy       167.1335392950 Hartrees.
 NAtoms=    7 NActive=    7 NUniq=    7 SFac= 1.00D+00 NAtFMM=   60 NAOKFM=F Big=F
 Integral buffers will be    131072 words long.
 Raffenetti 1 integral format.
 Two-electron integral symmetry is turned on.
 One-electron integrals computed using PRISM.
 NBasis=   178 RedAO= T EigKep=  1.12D-03  NBF=   120    58
 NBsUse=   178 1.00D-06 EigRej= -1.00D+00 NBFU=   120    58
 Initial guess from the checkpoint file:  "/tmp/rdj3/g09-15973/Gau-31780.chk"
 B after Tr=     0.000000    0.000000    0.000000
         Rot=    1.000000    0.000000    0.000000   -0.000725 Ang=  -0.08 deg.
 Initial guess orbital symmetries:
       Occupied  (A') (A') (A') (A') (A') (A') (A') (A') (A') (A')
                 (A') (A") (A') (A') (A') (A') (A") (A")
       Virtual   (A') (A') (A') (A') (A') (A') (A') (A') (A') (A')
                 (A') (A') (A') (A') (A') (A') (A') (A') (A') (A')
                 (A') (A') (A') (A') (A') (A') (A') (A') (A') (A')
                 (A') (A') (A') (A') (A') (A') (A') (A') (A') (A')
                 (A') (A') (A') (A') (A') (A') (A') (A') (A') (A')
                 (A') (A') (A') (A') (A') (A') (A') (A') (A') (A')
                 (A') (A') (A') (A') (A') (A') (A') (A') (A') (A')
                 (A') (A') (A') (A') (A') (A') (A') (A') (A') (A')
                 (A') (A') (A') (A') (A') (A') (A') (A') (A') (A')
                 (A') (A') (A') (A') (A') (A') (A') (A') (A') (A')
                 (A') (A') (A') (A') (A') (A") (A") (A") (A") (A")
                 (A") (A") (A") (A") (A") (A") (A") (A") (A") (A")
                 (A") (A") (A") (A") (A") (A") (A") (A") (A") (A")
                 (A") (A") (A") (A") (A") (A") (A") (A") (A") (A")
                 (A") (A") (A") (A") (A") (A") (A") (A") (A") (A")
                 (A") (A") (A") (A") (A") (A") (A") (A") (A") (A")
 ExpMin= 1.03D-01 ExpMax= 1.14D+04 ExpMxC= 3.89D+02 IAcc=1 IRadAn=         1 AccDes= 0.00D+00
 Harris functional with IExCor=  205 and IRadAn=       1 diagonalized for initial guess.
 HarFok:  IExCor=  205 AccDes= 0.00D+00 IRadAn=         1 IDoV= 1 UseB2=F ITyADJ=14
 ICtDFT=  3500011 ScaDFX=  1.000000  1.000000  1.000000  1.000000
 FoFCou: FMM=F IPFlag=           0 FMFlag=      100000 FMFlg1=           0
         NFxFlg=           0 DoJE=T BraDBF=F KetDBF=T FulRan=T
         wScrn=  0.000000 ICntrl=     500 IOpCl=  0 I1Cent=   200000004 NGrid=           0
         NMat0=    1 NMatS0=      1 NMatT0=    0 NMatD0=    1 NMtDS0=    0 NMtDT0=    0
 Petite list used in FoFCou.
 Keep R1 ints in memory in symmetry-blocked form, NReq=191556701.
 Requested convergence on RMS density matrix=1.00D-08 within 128 cycles.
 Requested convergence on MAX density matrix=1.00D-06.
 Requested convergence on             energy=1.00D-06.
 No special actions if energy rises.
 SCF Done:  E(RHF) =  -256.842922920     A.U. after   11 cycles
            NFock= 11  Conv=0.68D-08     -V/T= 2.0021
 Range of M.O.s used for correlation:     1   178
 NBasis=   178 NAE=    18 NBE=    18 NFC=     0 NFV=     0
 NROrb=    178 NOA=    18 NOB=    18 NVA=   160 NVB=   160

 **** Warning!!: The largest alpha MO coefficient is  0.10700070D+02

 Fully direct method using O(ONN) memory.
 JobTyp=1 Pass  1:  I=   1 to   9 NPSUse=  8 ParTrn=T ParDer=T DoDerP=T.
 JobTyp=1 Pass  2:  I=  10 to  18 NPSUse=  8 ParTrn=T ParDer=T DoDerP=T.
 Spin components of T(2) and E(2):
     alpha-alpha T2 =       0.4215943236D-01 E2=     -0.1351083329D+00
     alpha-beta  T2 =       0.2142743308D+00 E2=     -0.7631149583D+00
     beta-beta   T2 =       0.4215943236D-01 E2=     -0.1351083329D+00
 ANorm=    0.1139558334D+01
 E2 =    -0.1033331624D+01 EUMP2 =    -0.25787625454405D+03
          IDoAtm=1111111
          Differentiating once with respect to electric field.
                with respect to dipole field.
          Differentiating once with respect to nuclear coordinates.
 Keep R1 ints in memory in symmetry-blocked form, NReq=191410639.
          There are     1 degrees of freedom in the 1st order CPHF.  IDoFFX=0 NUNeed=     1.
 LinEq1:  Iter=  0 NonCon=     1 RMS=4.69D-03 Max=6.68D-02 NDo=     1
 AX will form     1 AO Fock derivatives at one time.
 LinEq1:  Iter=  1 NonCon=     1 RMS=1.19D-03 Max=2.01D-02 NDo=     1
 LinEq1:  Iter=  2 NonCon=     1 RMS=4.56D-04 Max=1.31D-02 NDo=     1
 LinEq1:  Iter=  3 NonCon=     1 RMS=1.43D-04 Max=2.23D-03 NDo=     1
 LinEq1:  Iter=  4 NonCon=     1 RMS=5.86D-05 Max=1.46D-03 NDo=     1
 LinEq1:  Iter=  5 NonCon=     1 RMS=1.96D-05 Max=4.30D-04 NDo=     1
 LinEq1:  Iter=  6 NonCon=     1 RMS=4.84D-06 Max=7.49D-05 NDo=     1
 LinEq1:  Iter=  7 NonCon=     1 RMS=2.58D-06 Max=8.13D-05 NDo=     1
 LinEq1:  Iter=  8 NonCon=     1 RMS=8.31D-07 Max=9.10D-06 NDo=     1
 LinEq1:  Iter=  9 NonCon=     1 RMS=3.05D-07 Max=1.06D-05 NDo=     1
 LinEq1:  Iter= 10 NonCon=     1 RMS=1.34D-07 Max=1.50D-06 NDo=     1
 LinEq1:  Iter= 11 NonCon=     1 RMS=3.54D-08 Max=4.47D-07 NDo=     1
 LinEq1:  Iter= 12 NonCon=     1 RMS=7.74D-09 Max=1.33D-07 NDo=     1
 LinEq1:  Iter= 13 NonCon=     1 RMS=1.27D-09 Max=1.58D-08 NDo=     1
 LinEq1:  Iter= 14 NonCon=     1 RMS=2.49D-10 Max=3.78D-09 NDo=     1
 LinEq1:  Iter= 15 NonCon=     0 RMS=4.41D-11 Max=5.96D-10 NDo=     1
 Linear equations converged to 1.000D-10 1.000D-09 after    15 iterations.
 End of Minotr F.D. properties file   721 does not exist.
 End of Minotr F.D. properties file   722 does not exist.
 End of Minotr F.D. properties file   788 does not exist.
 Calling FoFJK, ICntrl=  10002127 FMM=F ISym2X=1 I1Cent= 0 IOpClX= 0 NMat=1 NMatS=1 NMatT=0.
 ***** Axes restored to original set *****
 -------------------------------------------------------------------
 Center     Atomic                   Forces (Hartrees/Bohr)
 Number     Number              X              Y              Z
 -------------------------------------------------------------------
      1        6          -0.002066346   -0.001778148    0.000000000
      2        7          -0.001382795   -0.000791126    0.000000000
      3        7           0.004441454   -0.004023669    0.000000000
      4        7           0.000088817    0.005452943    0.000000000
      5        7          -0.000928596    0.000647747    0.000000000
      6        1          -0.000279485    0.000036121    0.000000000
      7        1           0.000126951    0.000456132    0.000000000
 -------------------------------------------------------------------
 Cartesian Forces:  Max     0.005452943 RMS     0.001917513
 -----------------------------------------------------------------------------------------------
                       Internal Coordinate Forces (Hartree/Bohr or radian)
  Cent   Atom   N1       Length/X         N2         Alpha/Y        N3         Beta/Z          J
 -----------------------------------------------------------------------------------------------
         X 
         X        1   0.000000(     1)
      1  C        1  -0.002383(     2)      2   0.000000(     9)
      2  N        1  -0.000147(     3)      2   0.000000(    10)      3   0.002650(    16)     0
      3  N        1  -0.000552(     4)      2   0.000000(    11)      3  -0.015246(    17)     0
      4  N        1   0.001908(     5)      2   0.000000(    12)      3   0.011267(    18)     0
      5  N        1   0.000511(     6)      2   0.000000(    13)      3  -0.001920(    19)     0
      6  H        3  -0.000277(     7)      4   0.000109(    14)      5   0.000000(    20)     0
      7  H        4  -0.000394(     8)      5   0.000499(    15)      6   0.000000(    21)     0
 -----------------------------------------------------------------------------------------------
 Internal  Forces:  Max     0.015246481 RMS     0.004256723

 GradGradGradGradGradGradGradGradGradGradGradGradGradGradGradGradGradGrad
 Berny optimization.
 Search for a local minimum.
 Step number   3 out of a maximum of   22
 All quantities printed in internal units (Hartrees-Bohrs-Radians)
 Update second derivatives using D2CorN and points    1    2    3
 DE= -3.24D-04 DEPred=-2.62D-04 R= 1.23D+00
 TightC=F SS=  1.41D+00  RLast= 2.45D-01 DXNew= 5.0454D-01 7.3436D-01
 Trust test= 1.23D+00 RLast= 2.45D-01 DXMaxT set to 5.05D-01
 The second derivative matrix:
                          rn1       rn2       rn3       rn4       rch
           rn1          0.66476
           rn2          0.01917   0.61845
           rn3          0.05262   0.01288   0.53961
           rn4          0.05738  -0.00969   0.12046   0.64139
           rch          0.00069  -0.00229  -0.00082   0.00048   0.37510
           rnh          0.00761  -0.01639  -0.00736   0.00132   0.00003
           an1          0.02918  -0.74728   0.04471  -0.08125   0.00054
           an2          0.73832  -0.20803  -0.58761   0.18594   0.00662
           an3         -0.04213   0.94057  -0.07291  -0.70181  -0.00533
           an4          0.04979  -0.01235   0.67570  -0.08679   0.00078
           ach          0.04223   0.00683   0.00301   0.05018   0.00000
           anh         -0.10326   0.05582   0.00084  -0.00136  -0.00007
                          rnh       an1       an2       an3       an4
           rnh          0.48756
           an1          0.00309   4.53175
           an2          0.04804  -2.65650   6.06701
           an3         -0.04243  -0.05958  -3.16200   4.38909
           an4          0.00501  -0.12269  -0.08169  -1.13659   2.58149
           ach         -0.00002  -0.10600  -0.01896   0.01703   0.07124
           anh         -0.00033   0.03448  -0.10283   0.00942  -0.00135
                          ach       anh
           ach          0.32000
           anh          0.00010   0.32022
 ITU=  1  1  0
     Eigenvalues ---   -0.00045   0.12049   0.26439   0.32613   0.37509
     Eigenvalues ---    0.39342   0.48704   0.73624   1.20527   2.98689
     Eigenvalues ---    5.06091   9.58102
 RFO step:  Lambda=-1.01207147D-03 EMin=-4.54052784D-04
 Quartic linear search produced a step of  0.25978.
 Maximum step size (   0.505) exceeded in Quadratic search.
    -- Step size scaled by   0.504
 Variable       Old X    -DE/DX   Delta X   Delta X   Delta X     New X
                                 (Linear)    (Quad)   (Total)
   rn1        2.24415  -0.00015  -0.03219  -0.21327  -0.24546   1.99869
   rn2        2.51174  -0.00055  -0.01418  -0.19304  -0.20722   2.30452
   rn3        2.20539   0.00191   0.01363   0.05153   0.06517   2.27055
   rn4        1.90100   0.00051   0.02881   0.24322   0.27203   2.17303
   rch        2.02069  -0.00028   0.00011  -0.00158  -0.00148   2.01921
   rnh        1.89905  -0.00039   0.00054  -0.00217  -0.00163   1.89741
   an1        1.30894   0.00265   0.01304   0.08530   0.09834   1.40728
   an2        2.42545  -0.01525   0.02430   0.17991   0.20421   2.62966
   an3        3.51531   0.01127   0.02957   0.23975   0.26932   3.78463
   an4        4.85285  -0.00192   0.01214   0.11298   0.12512   4.97797
   ach        2.17870   0.00011   0.00116  -0.00509  -0.00393   2.17477
   anh        2.09449   0.00050  -0.00252   0.00872   0.00620   2.10069
         Item               Value     Threshold  Converged?
 Maximum Force            0.015246     0.000450     NO 
 RMS     Force            0.005589     0.000300     NO 
 Maximum Displacement     0.272034     0.001800     NO 
 RMS     Displacement     0.163570     0.001200     NO 
 Predicted change in Energy=-4.178970D-04
 GradGradGradGradGradGradGradGradGradGradGradGradGradGradGradGradGradGrad

 ---------------------------------------------------------------------------------------------------
                            Z-MATRIX (ANGSTROMS AND DEGREES)
   CD    Cent   Atom    N1       Length/X        N2       Alpha/Y        N3        Beta/Z          J
 ---------------------------------------------------------------------------------------------------
      1         X 
      2         X        1   1.000000(     1)
      3      1  C        1   1.000000(     2)      2   90.000(     9)
      4      2  N        1   1.057662(     3)      2   90.000(    10)      3   80.631(    16)      0
      5      3  N        1   1.219498(     4)      2   90.000(    11)      3  150.668(    17)      0
      6      4  N        1   1.201524(     5)      2   90.000(    12)      3  216.843(    18)      0
      7      5  N        1   1.149918(     6)      2   90.000(    13)      3  285.217(    19)      0
      8      6  H        3   1.068520(     7)      4  124.605(    14)      5  180.000(    20)      0
      9      7  H        4   1.004069(     8)      5  120.361(    15)      6  180.000(    21)      0
 ---------------------------------------------------------------------------------------------------
                         Z-Matrix orientation:                         
 ---------------------------------------------------------------------
 Center     Atomic      Atomic             Coordinates (Angstroms)
 Number     Number       Type             X           Y           Z
 ---------------------------------------------------------------------
      1         -1           0        0.000000    0.000000    0.000000
      2         -1           0        0.000000    0.000000    1.000000
      3          6           0        1.000000    0.000000    0.000000
      4          7           0        0.172179   -1.043553    0.000000
      5          7           0       -1.063157   -0.597388    0.000000
      6          7           0       -0.961553    0.720470    0.000000
      7          7           0        0.301817    1.109603    0.000000
      8          1           0        2.066148   -0.071161    0.000000
      9          1           0        0.355202   -2.030800    0.000000
 ---------------------------------------------------------------------
                    Distance matrix (angstroms):
                    1          2          3          4          5
     1  X    0.000000
     2  X    1.000000   0.000000
     3  C    1.000000   1.414214   0.000000
     4  N    1.057662   1.455558   1.332025   0.000000
     5  N    1.219498   1.577078   2.147904   1.313437   0.000000
     6  N    1.201524   1.563221   2.089681   2.096932   1.321769
     7  N    1.149918   1.523914   1.310984   2.157055   2.185629
     8  H    2.067373   2.296526   1.068520   2.129006   3.173242
     9  H    2.061630   2.291357   2.130707   1.004069   2.016535
                    6          7          8          9
     6  N    0.000000
     7  N    1.321941   0.000000
     8  H    3.129481   2.122986   0.000000
     9  H    3.050136   3.140857   2.601445   0.000000
 Stoichiometry    CH2N4
 Framework group  CS[SG(CH2N4)]
 Deg. of freedom    11
 Full point group                 CS      NOp   2
 Largest Abelian subgroup         CS      NOp   2
 Largest concise Abelian subgroup C1      NOp   1
                         Standard orientation:                         
 ---------------------------------------------------------------------
 Center     Atomic      Atomic             Coordinates (Angstroms)
 Number     Number       Type             X           Y           Z
 ---------------------------------------------------------------------
      1          6           0        1.044312    0.222830    0.000000
      2          7           0        0.000000    1.049694    0.000000
      3          7           0       -1.100758    0.333139    0.000000
      4          7           0       -0.700803   -0.926666    0.000000
      5          7           0        0.618053   -1.016921    0.000000
      6          1           0        2.066016    0.535649    0.000000
      7          1           0       -0.047331    2.052646    0.000000
 ---------------------------------------------------------------------
 Rotational constants (GHZ):     10.9779859     10.3102027      5.3168103
 Standard basis: CC-pVTZ (5D, 7F)
 There are   142 symmetry adapted cartesian basis functions of A'  symmetry.
 There are    63 symmetry adapted cartesian basis functions of A"  symmetry.
 There are   120 symmetry adapted basis functions of A'  symmetry.
 There are    58 symmetry adapted basis functions of A"  symmetry.
   178 basis functions,   294 primitive gaussians,   205 cartesian basis functions
    18 alpha electrons       18 beta electrons
       nuclear repulsion energy       168.2669816130 Hartrees.
 NAtoms=    7 NActive=    7 NUniq=    7 SFac= 1.00D+00 NAtFMM=   60 NAOKFM=F Big=F
 Integral buffers will be    131072 words long.
 Raffenetti 1 integral format.
 Two-electron integral symmetry is turned on.
 One-electron integrals computed using PRISM.
 NBasis=   178 RedAO= T EigKep=  1.07D-03  NBF=   120    58
 NBsUse=   178 1.00D-06 EigRej= -1.00D+00 NBFU=   120    58
 Initial guess from the checkpoint file:  "/tmp/rdj3/g09-15973/Gau-31780.chk"
 B after Tr=     0.000000    0.000000    0.000000
         Rot=    0.999993    0.000000    0.000000    0.003613 Ang=   0.41 deg.
 Initial guess orbital symmetries:
       Occupied  (A') (A') (A') (A') (A') (A') (A') (A') (A') (A')
                 (A') (A") (A') (A') (A') (A') (A") (A")
       Virtual   (A') (A') (A') (A') (A') (A') (A') (A') (A') (A')
                 (A') (A') (A') (A') (A') (A') (A') (A') (A') (A')
                 (A') (A') (A') (A') (A') (A') (A') (A') (A') (A')
                 (A') (A') (A') (A') (A') (A') (A') (A') (A') (A')
                 (A') (A') (A') (A') (A') (A') (A') (A') (A') (A')
                 (A') (A') (A') (A') (A') (A') (A') (A') (A') (A')
                 (A') (A') (A') (A') (A') (A') (A') (A') (A') (A')
                 (A') (A') (A') (A') (A') (A') (A') (A') (A') (A')
                 (A') (A') (A') (A') (A') (A') (A') (A') (A') (A')
                 (A') (A') (A') (A') (A') (A') (A') (A') (A') (A')
                 (A') (A') (A') (A') (A') (A") (A") (A") (A") (A")
                 (A") (A") (A") (A") (A") (A") (A") (A") (A") (A")
                 (A") (A") (A") (A") (A") (A") (A") (A") (A") (A")
                 (A") (A") (A") (A") (A") (A") (A") (A") (A") (A")
                 (A") (A") (A") (A") (A") (A") (A") (A") (A") (A")
                 (A") (A") (A") (A") (A") (A") (A") (A") (A") (A")
 ExpMin= 1.03D-01 ExpMax= 1.14D+04 ExpMxC= 3.89D+02 IAcc=1 IRadAn=         1 AccDes= 0.00D+00
 Harris functional with IExCor=  205 and IRadAn=       1 diagonalized for initial guess.
 HarFok:  IExCor=  205 AccDes= 0.00D+00 IRadAn=         1 IDoV= 1 UseB2=F ITyADJ=14
 ICtDFT=  3500011 ScaDFX=  1.000000  1.000000  1.000000  1.000000
 FoFCou: FMM=F IPFlag=           0 FMFlag=      100000 FMFlg1=           0
         NFxFlg=           0 DoJE=T BraDBF=F KetDBF=T FulRan=T
         wScrn=  0.000000 ICntrl=     500 IOpCl=  0 I1Cent=   200000004 NGrid=           0
         NMat0=    1 NMatS0=      1 NMatT0=    0 NMatD0=    1 NMtDS0=    0 NMtDT0=    0
 Petite list used in FoFCou.
 Keep R1 ints in memory in symmetry-blocked form, NReq=191556701.
 Requested convergence on RMS density matrix=1.00D-08 within 128 cycles.
 Requested convergence on MAX density matrix=1.00D-06.
 Requested convergence on             energy=1.00D-06.
 No special actions if energy rises.
 SCF Done:  E(RHF) =  -256.841842249     A.U. after   13 cycles
            NFock= 13  Conv=0.61D-08     -V/T= 2.0016
 Range of M.O.s used for correlation:     1   178
 NBasis=   178 NAE=    18 NBE=    18 NFC=     0 NFV=     0
 NROrb=    178 NOA=    18 NOB=    18 NVA=   160 NVB=   160

 **** Warning!!: The largest alpha MO coefficient is  0.10725399D+02

 Fully direct method using O(ONN) memory.
 JobTyp=1 Pass  1:  I=   1 to   9 NPSUse=  8 ParTrn=T ParDer=T DoDerP=T.
 JobTyp=1 Pass  2:  I=  10 to  18 NPSUse=  8 ParTrn=T ParDer=T DoDerP=T.
 Spin components of T(2) and E(2):
     alpha-alpha T2 =       0.4199298281D-01 E2=     -0.1352991417D+00
     alpha-beta  T2 =       0.2127769981D+00 E2=     -0.7623526016D+00
     beta-beta   T2 =       0.4199298281D-01 E2=     -0.1352991417D+00
 ANorm=    0.1138755006D+01
 E2 =    -0.1032950885D+01 EUMP2 =    -0.25787479313367D+03
          IDoAtm=1111111
          Differentiating once with respect to electric field.
                with respect to dipole field.
          Differentiating once with respect to nuclear coordinates.
 Keep R1 ints in memory in symmetry-blocked form, NReq=191410639.
          There are     1 degrees of freedom in the 1st order CPHF.  IDoFFX=0 NUNeed=     1.
 LinEq1:  Iter=  0 NonCon=     1 RMS=4.50D-03 Max=5.08D-02 NDo=     1
 AX will form     1 AO Fock derivatives at one time.
 LinEq1:  Iter=  1 NonCon=     1 RMS=1.13D-03 Max=1.69D-02 NDo=     1
 LinEq1:  Iter=  2 NonCon=     1 RMS=4.13D-04 Max=1.22D-02 NDo=     1
 LinEq1:  Iter=  3 NonCon=     1 RMS=1.35D-04 Max=2.45D-03 NDo=     1
 LinEq1:  Iter=  4 NonCon=     1 RMS=5.49D-05 Max=1.49D-03 NDo=     1
 LinEq1:  Iter=  5 NonCon=     1 RMS=1.91D-05 Max=4.45D-04 NDo=     1
 LinEq1:  Iter=  6 NonCon=     1 RMS=4.83D-06 Max=7.30D-05 NDo=     1
 LinEq1:  Iter=  7 NonCon=     1 RMS=2.84D-06 Max=8.74D-05 NDo=     1
 LinEq1:  Iter=  8 NonCon=     1 RMS=8.80D-07 Max=1.39D-05 NDo=     1
 LinEq1:  Iter=  9 NonCon=     1 RMS=3.93D-07 Max=1.36D-05 NDo=     1
 LinEq1:  Iter= 10 NonCon=     1 RMS=1.52D-07 Max=1.71D-06 NDo=     1
 LinEq1:  Iter= 11 NonCon=     1 RMS=3.30D-08 Max=4.11D-07 NDo=     1
 LinEq1:  Iter= 12 NonCon=     1 RMS=7.24D-09 Max=1.08D-07 NDo=     1
 LinEq1:  Iter= 13 NonCon=     1 RMS=1.95D-09 Max=2.98D-08 NDo=     1
 LinEq1:  Iter= 14 NonCon=     1 RMS=6.85D-10 Max=8.27D-09 NDo=     1
 LinEq1:  Iter= 15 NonCon=     1 RMS=1.56D-10 Max=1.92D-09 NDo=     1
 LinEq1:  Iter= 16 NonCon=     0 RMS=3.07D-11 Max=3.59D-10 NDo=     1
 Linear equations converged to 1.000D-10 1.000D-09 after    16 iterations.
 End of Minotr F.D. properties file   721 does not exist.
 End of Minotr F.D. properties file   722 does not exist.
 End of Minotr F.D. properties file   788 does not exist.
 Calling FoFJK, ICntrl=  10002127 FMM=F ISym2X=1 I1Cent= 0 IOpClX= 0 NMat=1 NMatS=1 NMatT=0.
 ***** Axes restored to original set *****
 -------------------------------------------------------------------
 Center     Atomic                   Forces (Hartrees/Bohr)
 Number     Number              X              Y              Z
 -------------------------------------------------------------------
      1        6           0.024997320   -0.001306387    0.000000000
      2        7           0.008169316   -0.001158447    0.000000000
      3        7          -0.018657450    0.010193174    0.000000000
      4        7          -0.027066098   -0.006979467    0.000000000
      5        7           0.010641672    0.000162426    0.000000000
      6        1           0.000748686   -0.000927915    0.000000000
      7        1           0.001166554    0.000016616    0.000000000
 -------------------------------------------------------------------
 Cartesian Forces:  Max     0.027066098 RMS     0.009865753
 -----------------------------------------------------------------------------------------------
                       Internal Coordinate Forces (Hartree/Bohr or radian)
  Cent   Atom   N1       Length/X         N2         Alpha/Y        N3         Beta/Z          J
 -----------------------------------------------------------------------------------------------
         X 
         X        1   0.000000(     1)
      1  C        1   0.026297(     2)      2   0.000000(     9)
      2  N        1   0.001359(     3)      2   0.000000(    10)      3  -0.017954(    16)     0
      3  N        1   0.011938(     4)      2   0.000000(    11)      3   0.040217(    17)     0
      4  N        1   0.017475(     5)      2   0.000000(    12)      3  -0.049532(    18)     0
      5  N        1   0.002950(     6)      2   0.000000(    13)      3   0.022221(    19)     0
      6  H        3   0.000809(     7)      4  -0.001769(    14)      5   0.000000(    20)     0
      7  H        4   0.000196(     8)      5   0.002182(    15)      6   0.000000(    21)     0
 -----------------------------------------------------------------------------------------------
 Internal  Forces:  Max     0.049532423 RMS     0.016967092

 GradGradGradGradGradGradGradGradGradGradGradGradGradGradGradGradGradGrad
 Berny optimization.
 Search for a local minimum.
 Step number   4 out of a maximum of   22
 All quantities printed in internal units (Hartrees-Bohrs-Radians)
 Update second derivatives using D2CorN and points    1    2    4    3
 DE=  1.46D-03 DEPred=-4.18D-04 R=-3.50D+00
 Trust test=-3.50D+00 RLast= 5.67D-01 DXMaxT set to 2.52D-01
 The second derivative matrix:
                          rn1       rn2       rn3       rn4       rch
           rn1          0.66582
           rn2          0.02590   0.62628
           rn3          0.06079   0.01634   0.53568
           rn4          0.05922  -0.01478   0.11342   0.64069
           rch          0.00108  -0.00193  -0.00079   0.00021   0.37511
           rnh          0.00821  -0.01612  -0.00693   0.00184   0.00008
           an1          0.02224  -0.75568   0.04388  -0.07328   0.00038
           an2          0.75252  -0.19370  -0.59012   0.17425   0.00678
           an3         -0.06029   0.91355  -0.08156  -0.68687  -0.00606
           an4          0.05767  -0.00739   0.67053  -0.09639   0.00067
           ach          0.04137   0.00626   0.00309   0.05071  -0.00001
           anh         -0.10259   0.05629   0.00036  -0.00247  -0.00010
                          rnh       an1       an2       an3       an4
           rnh          0.48785
           an1          0.00313   4.53749
           an2          0.05030  -2.65482   6.04511
           an3         -0.04443  -0.04556  -3.16183   4.42579
           an4          0.00508  -0.12224  -0.09724  -1.13531   2.57276
           ach         -0.00013  -0.10594  -0.01862   0.01787   0.07175
           anh         -0.00043   0.03436  -0.10511   0.00992  -0.00206
                          ach       anh
           ach          0.32002
           anh          0.00016   0.32025
 ITU= -1  1  1  0
     Eigenvalues ---    0.01346   0.12324   0.26446   0.32650   0.37510
     Eigenvalues ---    0.39401   0.48726   0.73805   1.20513   2.98671
     Eigenvalues ---    5.05973   9.57918
 RFO step:  Lambda=-8.39254402D-05 EMin= 1.34634485D-02
 Quartic linear search produced a step of -0.79260.
 Variable       Old X    -DE/DX   Delta X   Delta X   Delta X     New X
                                 (Linear)    (Quad)   (Total)
   rn1        1.99869   0.00136   0.19455  -0.01508   0.17948   2.17817
   rn2        2.30452   0.01194   0.16424  -0.00069   0.16355   2.46807
   rn3        2.27055   0.01748  -0.05165   0.02101  -0.03064   2.23991
   rn4        2.17303   0.00295  -0.21561   0.00853  -0.20709   1.96595
   rch        2.01921   0.00081   0.00117  -0.00012   0.00105   2.02026
   rnh        1.89741   0.00020   0.00129  -0.00036   0.00093   1.89835
   an1        1.40728  -0.01795  -0.07794   0.00617  -0.07178   1.33550
   an2        2.62966   0.04022  -0.16186   0.01097  -0.15089   2.47877
   an3        3.78463  -0.04953  -0.21346   0.00975  -0.20371   3.58092
   an4        4.97797   0.02222  -0.09917   0.00147  -0.09770   4.88027
   ach        2.17477  -0.00177   0.00311   0.00131   0.00442   2.17920
   anh        2.10069   0.00218  -0.00491   0.00067  -0.00424   2.09645
         Item               Value     Threshold  Converged?
 Maximum Force            0.049532     0.000450     NO 
 RMS     Force            0.021123     0.000300     NO 
 Maximum Displacement     0.207085     0.001800     NO 
 RMS     Displacement     0.123080     0.001200     NO 
 Predicted change in Energy=-9.986807D-04
 GradGradGradGradGradGradGradGradGradGradGradGradGradGradGradGradGradGrad

 ---------------------------------------------------------------------------------------------------
                            Z-MATRIX (ANGSTROMS AND DEGREES)
   CD    Cent   Atom    N1       Length/X        N2       Alpha/Y        N3        Beta/Z          J
 ---------------------------------------------------------------------------------------------------
      1         X 
      2         X        1   1.000000(     1)
      3      1  C        1   1.000000(     2)      2   90.000(     9)
      4      2  N        1   1.152637(     3)      2   90.000(    10)      3   76.519(    16)      0
      5      3  N        1   1.306044(     4)      2   90.000(    11)      3  142.023(    17)      0
      6      4  N        1   1.185309(     5)      2   90.000(    12)      3  205.172(    18)      0
      7      5  N        1   1.040334(     6)      2   90.000(    13)      3  279.619(    19)      0
      8      6  H        3   1.069078(     7)      4  124.859(    14)      5  180.000(    20)      0
[...]
 Calling FoFJK, ICntrl=  10100127 FMM=F ISym2X=1 I1Cent= 0 IOpClX= 0 NMat=1 NMatS=1 NMatT=0.
 Full mass-weighted force constant matrix:
 Low frequencies ---   -6.0961   -0.0012   -0.0007   -0.0004    1.2640    6.3565
 Low frequencies ---  650.0686  710.2542  750.8132
 Diagonal vibrational polarizability:
        1.1500859       0.8827073       6.0504187
 Harmonic frequencies (cm**-1), IR intensities (KM/Mole), Raman scattering
 activities (A**4/AMU), depolarization ratios for plane and unpolarized
 incident light, reduced masses (AMU), force constants (mDyne/A),
 and normal coordinates:
                      1                      2                      3
                     A"                     A"                     A"
 Frequencies --    650.0686               710.2542               750.8132
 Red. masses --      2.3877                 1.7969                 4.4932
 Frc consts  --      0.5945                 0.5341                 1.4924
 IR Inten    --     56.7873                16.0954                18.5651
  Atom  AN      X      Y      Z        X      Y      Z        X      Y      Z
     1   6     0.00   0.00  -0.13     0.00   0.00   0.16     0.00   0.00  -0.04
     2   7     0.00   0.00   0.27     0.00   0.00  -0.04     0.00   0.00  -0.07
     3   7     0.00   0.00  -0.14     0.00   0.00   0.04     0.00   0.00   0.31
     4   7     0.00   0.00   0.02     0.00   0.00   0.07     0.00   0.00  -0.35
     5   7     0.00   0.00   0.05     0.00   0.00  -0.18     0.00   0.00   0.21
     6   1     0.00   0.00  -0.40     0.00   0.00   0.43     0.00   0.00  -0.05
     7   1     0.00   0.00  -0.86     0.00   0.00  -0.87     0.00   0.00  -0.85
                      4                      5                      6
                     A"                     A'                     A'
 Frequencies --    872.7926               973.0130              1014.5659
 Red. masses --      1.3665                 4.5595                 5.9561
 Frc consts  --      0.6133                 2.5434                 3.6122
 IR Inten    --     19.5090                 2.6892                 3.9493
  Atom  AN      X      Y      Z        X      Y      Z        X      Y      Z
     1   6     0.00   0.00   0.17     0.15   0.11   0.00    -0.32  -0.07   0.00
     2   7     0.00   0.00  -0.03     0.10   0.02   0.00     0.00   0.43   0.00
     3   7     0.00   0.00   0.00     0.13  -0.17   0.00     0.19  -0.08   0.00
     4   7     0.00   0.00  -0.01    -0.04  -0.15   0.00     0.13  -0.10   0.00
     5   7     0.00   0.00  -0.03    -0.32   0.25   0.00    -0.03  -0.19   0.00
     6   1     0.00   0.00  -0.98     0.37  -0.58   0.00    -0.17  -0.61   0.00
     7   1     0.00   0.00  -0.02    -0.49  -0.01   0.00    -0.10   0.44   0.00
                      7                      8                      9
                     A'                     A'                     A'
 Frequencies --   1093.2809              1121.1862              1157.2214
 Red. masses --      3.9340                 3.8439                 2.3663
 Frc consts  --      2.7705                 2.8469                 1.8670
 IR Inten    --     30.4406                11.7130                13.1798
  Atom  AN      X      Y      Z        X      Y      Z        X      Y      Z
     1   6    -0.06  -0.01   0.00    -0.10   0.02   0.00     0.07  -0.11   0.00
     2   7     0.04  -0.05   0.00    -0.13  -0.17   0.00    -0.12  -0.02   0.00
     3   7    -0.22   0.08   0.00     0.29   0.14   0.00    -0.04  -0.05   0.00
     4   7     0.35  -0.05   0.00     0.15   0.03   0.00     0.12   0.24   0.00
     5   7    -0.18   0.06   0.00    -0.18  -0.05   0.00     0.01  -0.02   0.00
     6   1     0.01  -0.26   0.00    -0.32   0.66   0.00     0.24  -0.66   0.00
     7   1     0.84  -0.01   0.00    -0.45  -0.21   0.00    -0.62  -0.05   0.00
                     10                     11                     12
                     A'                     A'                     A'
 Frequencies --   1203.1635              1275.8329              1482.5944
 Red. masses --      4.3998                 2.9450                 2.4755
 Frc consts  --      3.7526                 2.8244                 3.2060
 IR Inten    --      2.4319                 1.6294                21.2184
  Atom  AN      X      Y      Z        X      Y      Z        X      Y      Z
     1   6     0.18  -0.01   0.00     0.19   0.06   0.00    -0.17  -0.06   0.00
     2   7    -0.13   0.06   0.00     0.08   0.13   0.00     0.25  -0.05   0.00
     3   7    -0.07   0.34   0.00    -0.13  -0.08   0.00    -0.10   0.05   0.00
     4   7     0.02  -0.29   0.00     0.06   0.04   0.00     0.04  -0.02   0.00
     5   7     0.05  -0.07   0.00    -0.14  -0.21   0.00     0.05   0.07   0.00
     6   1     0.33  -0.41   0.00    -0.02   0.82   0.00    -0.26   0.09   0.00
     7   1    -0.68   0.05   0.00    -0.40   0.12   0.00    -0.89  -0.12   0.00
                     13                     14                     15
                     A'                     A'                     A'
 Frequencies --   1503.1838              3347.1643              3689.8412
 Red. masses --      4.5541                 1.1005                 1.0844
 Frc consts  --      6.0629                 7.2644                 8.6990
 IR Inten    --      7.3023                 2.9546               114.4075
  Atom  AN      X      Y      Z        X      Y      Z        X      Y      Z
     1   6    -0.11   0.45   0.00     0.09   0.03   0.00     0.00   0.00   0.00
     2   7     0.09  -0.15   0.00     0.00   0.00   0.00    -0.01   0.08   0.00
     3   7    -0.01   0.02   0.00     0.00   0.00   0.00     0.00   0.00   0.00
     4   7    -0.02   0.04   0.00     0.00   0.00   0.00     0.00   0.00   0.00
     5   7     0.01  -0.24   0.00     0.00   0.00   0.00     0.00   0.00   0.00
     6   1     0.28  -0.76   0.00    -0.95  -0.30   0.00    -0.02   0.00   0.00
     7   1    -0.07  -0.18   0.00     0.00   0.02   0.00     0.06  -1.00   0.00

 -------------------
 - Thermochemistry -
 -------------------
 Temperature   298.150 Kelvin.  Pressure   1.00000 Atm.
 Atom     1 has atomic number  6 and mass  12.00000
 Atom     2 has atomic number  7 and mass  14.00307
 Atom     3 has atomic number  7 and mass  14.00307
 Atom     4 has atomic number  7 and mass  14.00307
 Atom     5 has atomic number  7 and mass  14.00307
 Atom     6 has atomic number  1 and mass   1.00783
 Atom     7 has atomic number  1 and mass   1.00783
 Molecular mass:    70.02795 amu.
 Principal axes and moments of inertia in atomic units:
                           1         2         3
     Eigenvalues --   170.12738 173.86102 343.98840
           X           -0.64058   0.76790   0.00000
           Y            0.76790   0.64058   0.00000
           Z            0.00000   0.00000   1.00000
 This molecule is an asymmetric top.
 Rotational symmetry number  1.
 Rotational temperatures (Kelvin)      0.50911     0.49818     0.25179
 Rotational constants (GHZ):          10.60818    10.38037     5.24652
 Zero-point vibrational energy     124680.6 (Joules/Mol)
                                   29.79939 (Kcal/Mol)
 Vibrational temperatures:    935.30  1021.90  1080.25  1255.75  1399.95
          (Kelvin)           1459.73  1572.99  1613.13  1664.98  1731.08
                             1835.64  2133.12  2162.74  4815.82  5308.85
 
 Zero-point correction=                           0.047488 (Hartree/Particle)
 Thermal correction to Energy=                    0.050901
 Thermal correction to Enthalpy=                  0.051845
 Thermal correction to Gibbs Free Energy=         0.021426
 Sum of electronic and zero-point Energies=           -257.828823
 Sum of electronic and thermal Energies=              -257.825410
 Sum of electronic and thermal Enthalpies=            -257.824466
 Sum of electronic and thermal Free Energies=         -257.854885
 
                     E (Thermal)             CV                S
                      KCal/Mol        Cal/Mol-Kelvin    Cal/Mol-Kelvin
 Total                   31.941             11.041             64.022
 Electronic               0.000              0.000              0.000
 Translational            0.889              2.981             38.656
 Rotational               0.889              2.981             23.835
 Vibrational             30.163              5.080              1.530
                       Q            Log10(Q)             Ln(Q)
 Total Bot       0.139530D-09         -9.855333        -22.692744
 Total V=0       0.972175D+12         11.987744         27.602802
 Vib (Bot)       0.167764D-21        -21.775302        -50.139486
 Vib (V=0)       0.116890D+01          0.067776          0.156059
 Electronic      0.100000D+01          0.000000          0.000000
 Translational   0.230336D+08          7.362362         16.952466
 Rotational      0.361083D+05          4.557607         10.494277
 ***** Axes restored to original set *****
 -------------------------------------------------------------------
 Center     Atomic                   Forces (Hartrees/Bohr)
 Number     Number              X              Y              Z
 -------------------------------------------------------------------
      1        6          -0.000034705   -0.000028747    0.000000000
      2        7           0.000020794   -0.000027251    0.000000000
      3        7           0.000040012   -0.000023760    0.000000000
      4        7           0.000015788    0.000079261    0.000000000
      5        7          -0.000041549   -0.000000296    0.000000000
      6        1          -0.000003000    0.000000227    0.000000000
      7        1           0.000002659    0.000000565    0.000000000
 -------------------------------------------------------------------
 Cartesian Forces:  Max     0.000079261 RMS     0.000025491
 -----------------------------------------------------------------------------------------------
                       Internal Coordinate Forces (Hartree/Bohr or radian)
  Cent   Atom   N1       Length/X         N2         Alpha/Y        N3         Beta/Z          J
 -----------------------------------------------------------------------------------------------
         X 
         X        1   0.000000(     1)
      1  C        1  -0.000038(     2)      2   0.000000(     9)
      2  N        1   0.000029(     3)      2   0.000000(    10)      3  -0.000039(    16)     0
      3  N        1  -0.000017(     4)      2   0.000000(    11)      3  -0.000107(    17)     0
      4  N        1   0.000023(     5)      2   0.000000(    12)      3   0.000174(    18)     0
      5  N        1  -0.000008(     6)      2   0.000000(    13)      3  -0.000082(    19)     0
      6  H        3  -0.000003(     7)      4   0.000000(    14)      5   0.000000(    20)     0
      7  H        4   0.000000(     8)      5   0.000005(    15)      6   0.000000(    21)     0
 -----------------------------------------------------------------------------------------------
 Internal  Forces:  Max     0.000174434 RMS     0.000050408

 GradGradGradGradGradGradGradGradGradGradGradGradGradGradGradGradGradGrad
 Berny optimization.
 Search for a local minimum.
 Step number   1 out of a maximum of    2
 All quantities printed in internal units (Hartrees-Bohrs-Radians)
 Second derivative matrix not updated -- analytic derivatives used.
 The second derivative matrix:
                          rn1       rn2       rn3       rn4       rch
           rn1          0.59090
           rn2         -0.03372   0.54808
           rn3          0.08559  -0.03625   0.55221
           rn4          0.09669   0.07784  -0.02609   0.55084
           rch         -0.00349  -0.00154   0.00023  -0.00377   0.39244
           rnh          0.00970  -0.00834  -0.00042  -0.00067   0.00017
           an1          0.10841  -0.41068  -0.17145   0.09783   0.00940
           an2          0.28984   0.02713  -0.36370  -0.12837   0.00340
           an3          0.19137   0.34073   0.07885  -0.26520  -0.00139
           an4         -0.11582   0.15171   0.33281  -0.17369  -0.01474
           ach          0.03732   0.01294  -0.01536   0.02806   0.00226
           anh         -0.04963   0.02213   0.02451  -0.01968  -0.00061
                          rnh       an1       an2       an3       an4
           rnh          0.48288
           an1         -0.00819   2.32605
           an2          0.01488  -1.04012   2.54843
           an3         -0.00378  -0.18569  -1.14837   2.11000
           an4         -0.00087  -0.18185  -0.22956  -0.60915   1.90562
           ach         -0.00016   0.00108  -0.01968  -0.00302   0.09892
           anh         -0.00015  -0.04496  -0.00663   0.00006  -0.00641
                          ach       anh
           ach          0.21725
           anh          0.00106   0.20826
 ITU=  0
     Eigenvalues ---   -0.00001   0.15781   0.20951   0.26667   0.39247
     Eigenvalues ---    0.48232   0.60688   0.68516   0.83752   2.24573
     Eigenvalues ---    2.65606   3.89285
 Eigenvalue     1 is  -1.48D-05 should be greater than     0.000000 Eigenvector:
                          rn4       rn1       an3       an2       rn2
   1                    0.46558  -0.46353   0.43714   0.40948  -0.27637
                          rn3       an4       an1       ach       anh
   1                    0.22207   0.20598   0.20369   0.00002  -0.00001
 Angle between quadratic step and forces=  52.69 degrees.
 Linear search not attempted -- first point.
 Variable       Old X    -DE/DX   Delta X   Delta X   Delta X     New X
                                 (Linear)    (Quad)   (Total)
   rn1        2.13138   0.00003   0.00000   0.00005   0.00005   2.13143
   rn2        2.43369  -0.00002   0.00000  -0.00011  -0.00011   2.43358
   rn3        2.25268   0.00002   0.00000  -0.00002  -0.00002   2.25266
   rn4        2.01908  -0.00001   0.00000   0.00002   0.00002   2.01910
   rch        2.02012   0.00000   0.00000  -0.00001  -0.00001   2.02012
   rnh        1.89826   0.00000   0.00000   0.00000   0.00000   1.89826
   an1        1.35638  -0.00004   0.00000  -0.00005  -0.00005   1.35633
   an2        2.51964  -0.00011   0.00000  -0.00004  -0.00004   2.51960
   an3        3.62862   0.00017   0.00000   0.00007   0.00007   3.62869
   an4        4.90524  -0.00008   0.00000  -0.00002  -0.00002   4.90523
   ach        2.17837   0.00000   0.00000   0.00000   0.00000   2.17837
   anh        2.09753   0.00001   0.00000   0.00004   0.00004   2.09757
         Item               Value     Threshold  Converged?
 Maximum Force            0.000174     0.000450     YES
 RMS     Force            0.000066     0.000300     YES
 Maximum Displacement     0.000110     0.001800     YES
 RMS     Displacement     0.000047     0.001200     YES
 Predicted change in Energy=-1.126873D-08
 Optimization completed.
    -- Stationary point found.
                       ----------------------------
                       !   Optimized Parameters   !
                       ! (Angstroms and Degrees)  !
 ----------------------                            ----------------------
 !      Name          Value   Derivative information (Atomic Units)     !
 ------------------------------------------------------------------------
 !       rn1         1.1279   -DE/DX =    0.0                           !
 !       rn2         1.2879   -DE/DX =    0.0                           !
 !       rn3         1.1921   -DE/DX =    0.0                           !
 !       rn4         1.0685   -DE/DX =    0.0                           !
 !       rch         1.069    -DE/DX =    0.0                           !
 !       rnh         1.0045   -DE/DX =    0.0                           !
 !       an1        77.7149   -DE/DX =    0.0                           !
 !       an2       144.3649   -DE/DX =   -0.0001                        !
 !       an3       207.9046   -DE/DX =    0.0002                        !
 !       an4       281.0496   -DE/DX =   -0.0001                        !
 !       ach       124.8116   -DE/DX =    0.0                           !
 !       anh       120.1795   -DE/DX =    0.0                           !
 ------------------------------------------------------------------------
 GradGradGradGradGradGradGradGradGradGradGradGradGradGradGradGradGradGrad

 1\1\GINC-N354\Freq\RMP2-Full\CC-pVTZ\C1H2N4\RDJ3\26-Nov-2013\1\\#N Geo
 m=AllCheck Guess=TCheck SCRF=Check GenChk RMP2-Full/CC-pVTZ Freq\\1H-t
 etrazole CH2N4 casno=288948 state=1 config=1 method=2 basis=6\\0,1\X\X
 ,1,1.\C,1,1.,2,90.\N,1,rn1,2,90.,3,an1,0\N,1,rn2,2,90.,3,an2,0\N,1,rn3
 ,2,90.,3,an3,0\N,1,rn4,2,90.,3,an4,0\H,3,rch,4,ach,5,180.,0\H,4,rnh,5,
 anh,6,180.,0\\rn1=1.12787727\rn2=1.28785185\rn3=1.19206487\rn4=1.06845
 331\rch=1.06900293\rnh=1.0045157\an1=77.71491877\an2=144.36488437\an3=
 207.90455548\an4=281.04961046\ach=124.81156629\anh=120.17949353\\Versi
 on=EM64L-G09RevD.01\State=1-A'\HF=-256.8424183\MP2=-257.8763111\RMSD=1
 .558e-09\RMSF=2.549e-05\ZeroPoint=0.0474883\Thermal=0.0509007\Dipole=1
 .514203,-1.4965634,0.\DipoleDeriv=0.1351097,0.1181005,0.,0.0253153,0.4
 506768,0.,0.,0.,0.0459682,-0.2048114,0.1647311,0.,0.1993886,-0.4123934
 ,0.,0.,0.,-0.0827885,0.0739736,-0.267037,0.,-0.3478383,-0.1321454,0.,0
 .,0.,-0.1036171,0.0537658,0.0733955,0.,0.2027559,-0.0388442,0.,0.,0.,-
 0.1656604,-0.3309811,-0.0741466,0.,-0.0815889,-0.2903963,0.,0.,0.,-0.1
 946825,0.0717274,0.0175824,0.,0.0129565,0.1074323,0.,0.,0.,0.1799161,0
 .2012161,-0.0326258,0.,-0.0109891,0.3156702,0.,0.,0.,0.3208641\Polar=4
 1.5785139,-0.470956,39.0105643,0.,0.,20.6611478\Quadrupole=0.0701575,0
 .2508461,-0.3210037,-1.6805479,0.,0.\PG=CS [SG(C1H2N4)]\NImag=0\\0.958
 09454,-0.00731404,0.64186940,0.,0.,0.14494199,-0.19547061,-0.11825920,
 0.,0.60795826,-0.12116133,-0.27566457,0.,-0.05586711,1.03809578,0.,0.,
 -0.06766994,0.,0.,0.10641079,-0.09827496,-0.06245837,0.,-0.27731892,-0
 .01259844,0.,0.51748350,0.00991012,-0.01241001,0.,0.04048096,-0.109807
 88,0.,0.05268737,0.47866231,0.,0.,0.02231871,0.,0.,-0.07279265,0.,0.,0
 .11762718,-0.11519799,0.06677526,0.,-0.05022942,0.03750191,0.,-0.10565
 985,-0.04052448,0.,0.49335159,-0.01188215,0.01006637,0.,0.09078088,-0.
 10666755,0.,0.05494874,-0.27089151,0.,-0.07611226,0.47465187,0.,0.,0.0
 2021816,0.,0.,0.02586103,0.,0.,-0.09781573,0.,0.,0.12610782,-0.1865635
 6,0.14161944,0.,0.01086219,0.05888607,0.,-0.04017766,-0.09977572,0.,-0
 .21062196,-0.06273070,0.,0.43813837,0.11863974,-0.30130926,0.,-0.02367
 890,-0.10156197,0.,-0.02740013,-0.07807910,0.,0.00848475,-0.10619149,0
 .,-0.06403576,0.58014739,0.,0.,-0.08128356,0.,0.,0.02269271,0.,0.,0.03
 598159,0.,0.,-0.09225786,0.,0.,0.11273823,-0.37870366,-0.00467454,0.,-
 0.00533444,0.00343643,0.,0.00038632,0.00182843,0.,-0.00051650,-0.00042
 283,0.,-0.00798944,-0.00233804,0.,0.39242345,-0.00105373,-0.05714418,0
 .,-0.03163281,0.00569397,0.,-0.00281960,-0.00677800,0.,0.00640562,-0.0
 0414628,0.,0.02643548,0.00897623,0.,0.00241905,0.05325161,0.,0.,-0.030
 67621,0.,0.,-0.00270507,0.,0.,0.00667475,0.,0.,0.00892278,0.,0.,-0.004
 97534,0.,0.,0.02380536,0.01611624,-0.01568854,0.,-0.09046707,0.0898024
 5,0.,0.00356157,0.03539331,0.,-0.01112587,0.00541832,0.,-0.00364794,-0
 .00967166,0.,-0.00026574,0.00024599,0.,0.08582881,0.01286139,-0.005407
 76,0.,0.09817616,-0.45008778,0.,-0.00235957,-0.00069581,0.,-0.00253081
 ,0.00317859,0.,-0.00039880,-0.00198181,0.,-0.00024850,0.00014664,0.,-0
 .10549987,0.45484793,0.,0.,-0.00784917,0.,0.,-0.01179688,0.,0.,-0.0119
 9386,0.,0.,0.00896380,0.,0.,0.00710421,0.,0.,-0.00104628,0.,0.,0.01661
 818\\0.00003470,0.00002875,0.,-0.00002079,0.00002725,0.,-0.00004001,0.
 00002376,0.,-0.00001579,-0.00007926,0.,0.00004155,0.00000030,0.,0.0000
 0300,-0.00000023,0.,-0.00000266,-0.00000057,0.\\\@


 Experience is what you get when you don't get what you want.
 -- Dan Stanford
 Job cpu time:       0 days  1 hours 35 minutes  6.5 seconds.
 File lengths (MBytes):  RWF=   4590 Int=      0 D2E=      0 Chk=      4 Scr=      1
 Normal termination of Gaussian 09 at Tue Nov 26 04:37:10 2013.
