 Entering Gaussian System, Link 0=g09
 Initial command:
 /usr/local/gaussian/g09.d01.em64t.legacy.linda/g09/l1.exe "/tmp/rdj3/g09-26531/Gau-30513.inp" -scrdir="/tmp/rdj3/g09-26531/"
 Entering Link 1 = /usr/local/gaussian/g09.d01.em64t.legacy.linda/g09/l1.exe PID=     30514.
  
 Copyright (c) 1988,1990,1992,1993,1995,1998,2003,2009,2013,
            Gaussian, Inc.  All Rights Reserved.
  
 This is part of the Gaussian(R) 09 program.  It is based on
 the Gaussian(R) 03 system (copyright 2003, Gaussian, Inc.),
 the Gaussian(R) 98 system (copyright 1998, Gaussian, Inc.),
 the Gaussian(R) 94 system (copyright 1995, Gaussian, Inc.),
 the Gaussian 92(TM) system (copyright 1992, Gaussian, Inc.),
 the Gaussian 90(TM) system (copyright 1990, Gaussian, Inc.),
 the Gaussian 88(TM) system (copyright 1988, Gaussian, Inc.),
 the Gaussian 86(TM) system (copyright 1986, Carnegie Mellon
 University), and the Gaussian 82(TM) system (copyright 1983,
 Carnegie Mellon University). Gaussian is a federally registered
 trademark of Gaussian, Inc.
  
 This software contains proprietary and confidential information,
 including trade secrets, belonging to Gaussian, Inc.
  
 This software is provided under written license and may be
 used, copied, transmitted, or stored only in accord with that
 written license.
  
 The following legend is applicable only to US Government
 contracts under FAR:
  
                    RESTRICTED RIGHTS LEGEND
  
 Use, reproduction and disclosure by the US Government is
 subject to restrictions as set forth in subparagraphs (a)
 and (c) of the Commercial Computer Software - Restricted
 Rights clause in FAR 52.227-19.
  
 Gaussian, Inc.
 340 Quinnipiac St., Bldg. 40, Wallingford CT 06492
  
  
 ---------------------------------------------------------------
 Warning -- This program may not be used in any manner that
 competes with the business of Gaussian, Inc. or will provide
 assistance to any competitor of Gaussian, Inc.  The licensee
 of this program is prohibited from giving any competitor of
 Gaussian, Inc. access to this program.  By using this program,
 the user acknowledges that Gaussian, Inc. is engaged in the
 business of creating and licensing software in the field of
 computational chemistry and represents and warrants to the
 licensee that it is not a competitor of Gaussian, Inc. and that
 it will not use this program in any manner prohibited above.
 ---------------------------------------------------------------
  

 Cite this work as:
 Gaussian 09, Revision D.01,
 M. J. Frisch, G. W. Trucks, H. B. Schlegel, G. E. Scuseria, 
 M. A. Robb, J. R. Cheeseman, G. Scalmani, V. Barone, B. Mennucci, 
 G. A. Petersson, H. Nakatsuji, M. Caricato, X. Li, H. P. Hratchian, 
 A. F. Izmaylov, J. Bloino, G. Zheng, J. L. Sonnenberg, M. Hada, 
 M. Ehara, K. Toyota, R. Fukuda, J. Hasegawa, M. Ishida, T. Nakajima, 
 Y. Honda, O. Kitao, H. Nakai, T. Vreven, J. A. Montgomery, Jr., 
 J. E. Peralta, F. Ogliaro, M. Bearpark, J. J. Heyd, E. Brothers, 
 K. N. Kudin, V. N. Staroverov, T. Keith, R. Kobayashi, J. Normand, 
 K. Raghavachari, A. Rendell, J. C. Burant, S. S. Iyengar, J. Tomasi, 
 M. Cossi, N. Rega, J. M. Millam, M. Klene, J. E. Knox, J. B. Cross, 
 V. Bakken, C. Adamo, J. Jaramillo, R. Gomperts, R. E. Stratmann, 
 O. Yazyev, A. J. Austin, R. Cammi, C. Pomelli, J. W. Ochterski, 
 R. L. Martin, K. Morokuma, V. G. Zakrzewski, G. A. Voth, 
 P. Salvador, J. J. Dannenberg, S. Dapprich, A. D. Daniels, 
 O. Farkas, J. B. Foresman, J. V. Ortiz, J. Cioslowski, 
 and D. J. Fox, Gaussian, Inc., Wallingford CT, 2013.
 
 ******************************************
 Gaussian 09:  EM64L-G09RevD.01 24-Apr-2013
                25-Nov-2013 
 ******************************************
 %Nproc=8
 Will use up to    8 processors via shared memory.
 %mem=436000000
 ---------------------------------------
 #MP2/CEP-121G opt=z-matrix freq density
 ---------------------------------------
 1/10=7,18=40,38=1/1,3;
 2/12=2,17=6,18=5,29=3,40=1/2;
 3/5=9,6=2,11=9,16=1,25=1,30=1,71=1/1,2,3;
 4//1;
 5/5=2,38=5/2;
 8/6=4,10=1/1;
 9/15=2,16=-3/6;
 10/5=1/2;
 6/7=2,8=2,9=2,10=2,22=-1/1;
 7/12=2,29=1/1,2,3,16;
 1/10=7,18=40/3(2);
 2/29=3/2;
 99//99;
 2/29=3/2;
 3/5=9,6=2,11=9,16=1,25=1,30=1,71=1/1,2,3;
 4/5=5,16=3,69=1/1;
 5/5=2,38=5/2;
 8/6=4,10=1/1;
 9/15=2,16=-3/6;
 10/5=1/2;
 7/12=2/1,2,3,16;
 1/18=40/3(-8);
 2/29=3/2;
 6/7=2,8=2,9=2,10=2,22=-1/1;
 99//99;
 ------------------------------------------------------------------
 1H-tetrazole CH2N4 casno=288948 state=1 config=1 method=3 basis=13
 ------------------------------------------------------------------
 Symbolic Z-matrix:
 Charge =  0 Multiplicity = 1
 X
 X                    1     1. 
 C                    1     1.       2     90. 
 N                    1    rn1      2     90.      3    an1      0
 N                    1    rn2      2     90.      3    an2      0
 N                    1    rn3      2     90.      3    an3      0
 N                    1    rn4      2     90.      3    an4      0
 H                    3    rch      4    ach      5     180.     0
 H                    4    rnh      5    anh      6     180.     0
       Variables:
  rn1                   1.2426                   
  rn2                   1.333                    
  rn3                   1.1146                   
  rn4                   0.9264                   
  rch                   1.0678                   
  rnh                   0.9941                   
  an1                  71.8427                   
  an2                 133.7028                   
  an3                 194.4597                   
  an4                 276.0768                   
  ach                 125.0248                   
  anh                 120.7626                   
 

 GradGradGradGradGradGradGradGradGradGradGradGradGradGradGradGradGradGrad
 Berny optimization.
 Initialization pass.
                       ----------------------------
                       !    Initial Parameters    !
                       ! (Angstroms and Degrees)  !
 ----------------------                            ----------------------
 !      Name          Value   Derivative information (Atomic Units)     !
 ------------------------------------------------------------------------
 !       rn1         1.2426   estimate D2E/DX2                          !
 !       rn2         1.333    estimate D2E/DX2                          !
 !       rn3         1.1146   estimate D2E/DX2                          !
 !       rn4         0.9264   estimate D2E/DX2                          !
 !       rch         1.0678   estimate D2E/DX2                          !
 !       rnh         0.9941   estimate D2E/DX2                          !
 !       an1        71.8427   estimate D2E/DX2                          !
 !       an2       133.7028   estimate D2E/DX2                          !
 !       an3       194.4597   estimate D2E/DX2                          !
 !       an4       276.0768   estimate D2E/DX2                          !
 !       ach       125.0248   estimate D2E/DX2                          !
 !       anh       120.7626   estimate D2E/DX2                          !
 ------------------------------------------------------------------------
 Trust Radius=3.00D-01 FncErr=1.00D-07 GrdErr=1.00D-07
 Number of steps in this run=     22 maximum allowed number of steps=    100.
 GradGradGradGradGradGradGradGradGradGradGradGradGradGradGradGradGradGrad

 ---------------------------------------------------------------------------------------------------
                            Z-MATRIX (ANGSTROMS AND DEGREES)
   CD    Cent   Atom    N1       Length/X        N2       Alpha/Y        N3        Beta/Z          J
 ---------------------------------------------------------------------------------------------------
      1         X 
      2         X        1   1.000000(     1)
      3      1  C        1   1.000000(     2)      2   90.000(     9)
      4      2  N        1   1.242600(     3)      2   90.000(    10)      3   71.843(    16)      0
      5      3  N        1   1.333000(     4)      2   90.000(    11)      3  133.703(    17)      0
      6      4  N        1   1.114600(     5)      2   90.000(    12)      3  194.460(    18)      0
      7      5  N        1   0.926400(     6)      2   90.000(    13)      3  276.077(    19)      0
      8      6  H        3   1.067800(     7)      4  125.025(    14)      5  180.000(    20)      0
      9      7  H        4   0.994100(     8)      5  120.763(    15)      6  180.000(    21)      0
 ---------------------------------------------------------------------------------------------------
                         Z-Matrix orientation:                         
 ---------------------------------------------------------------------
 Center     Atomic      Atomic             Coordinates (Angstroms)
 Number     Number       Type             X           Y           Z
 ---------------------------------------------------------------------
      1         -1           0        0.000000    0.000000    0.000000
      2         -1           0        0.000000    0.000000    1.000000
      3          6           0        1.000000    0.000000    0.000000
      4          7           0        0.387228   -1.180724    0.000000
      5          7           0       -0.920993   -0.963670    0.000000
      6          7           0       -1.079293    0.278314    0.000000
      7          7           0        0.098070    0.921194    0.000000
      8          1           0        2.058429    0.141157    0.000000
      9          1           0        0.749017   -2.106652    0.000000
 ---------------------------------------------------------------------
                    Distance matrix (angstroms):
                    1          2          3          4          5
     1  X    0.000000
     2  X    1.000000   0.000000
     3  C    1.000000   1.414214   0.000000
     4  N    1.242600   1.595009   1.330263   0.000000
     5  N    1.333000   1.666400   2.149157   1.326105   0.000000
     6  N    1.114600   1.497442   2.097837   2.068690   1.252032
     7  N    0.926400   1.363164   1.289216   2.121715   2.142710
     8  H    2.063263   2.292827   1.067800   2.130794   3.177672
     9  H    2.235847   2.449288   2.121551   0.994100   2.023695
                    6          7          8          9
     6  N    0.000000
     7  N    1.341447   0.000000
     8  H    3.140719   2.109850   0.000000
     9  H    3.005127   3.097029   2.601385   0.000000
 Stoichiometry    CH2N4
 Framework group  CS[SG(CH2N4)]
 Deg. of freedom    11
 Full point group                 CS      NOp   2
 Largest Abelian subgroup         CS      NOp   2
 Largest concise Abelian subgroup C1      NOp   1
                         Standard orientation:                         
 ---------------------------------------------------------------------
 Center     Atomic      Atomic             Coordinates (Angstroms)
 Number     Number       Type             X           Y           Z
 ---------------------------------------------------------------------
      1          6           0        1.052733    0.225621    0.000000
      2          7           0        0.000000    1.038857    0.000000
      3          7           0       -1.095416    0.291448    0.000000
      4          7           0       -0.716382   -0.901832    0.000000
      5          7           0        0.622191   -0.989579    0.000000
      6          1           0        2.072287    0.542964    0.000000
      7          1           0       -0.061439    2.031056    0.000000
 ---------------------------------------------------------------------
 Rotational constants (GHZ):     10.9201517     10.7345054      5.4132664
 Standard basis: CEP-121G (6D, 10F)
 There are    51 symmetry adapted cartesian basis functions of A'  symmetry.
 There are    15 symmetry adapted cartesian basis functions of A"  symmetry.
 There are    51 symmetry adapted basis functions of A'  symmetry.
 There are    15 symmetry adapted basis functions of A"  symmetry.
    66 basis functions,    90 primitive gaussians,    66 cartesian basis functions
    13 alpha electrons       13 beta electrons
       nuclear repulsion energy        88.4020031107 Hartrees.
 NAtoms=    7 NActive=    7 NUniq=    7 SFac= 1.00D+00 NAtFMM=   60 NAOKFM=F Big=F
 Integral buffers will be    131072 words long.
 Raffenetti 1 integral format.
 Two-electron integral symmetry is turned on.
 One-electron integrals computed using PRISM.
   1 Symmetry operations used in ECPInt.
 ECPInt:  NShTT=     231 NPrTT=     476 LenC2=     232 LenP2D=     460.
 LDataN:  DoStor=T MaxTD1= 2 Len=   12
 NBasis=    66 RedAO= T EigKep=  3.22D-03  NBF=    51    15
 NBsUse=    66 1.00D-06 EigRej= -1.00D+00 NBFU=    51    15
 ExpMin= 1.03D-01 ExpMax= 3.39D+01 ExpMxC= 3.39D+01 IAcc=1 IRadAn=         1 AccDes= 0.00D+00
 Harris functional with IExCor=  205 and IRadAn=       1 diagonalized for initial guess.
 HarFok:  IExCor=  205 AccDes= 0.00D+00 IRadAn=         1 IDoV= 1 UseB2=F ITyADJ=14
 ICtDFT=  3500011 ScaDFX=  1.000000  1.000000  1.000000  1.000000
 FoFCou: FMM=F IPFlag=           0 FMFlag=      100000 FMFlg1=           0
         NFxFlg=           0 DoJE=T BraDBF=F KetDBF=T FulRan=T
         wScrn=  0.000000 ICntrl=     500 IOpCl=  0 I1Cent=   200000004 NGrid=           0
         NMat0=    1 NMatS0=      1 NMatT0=    0 NMatD0=    1 NMtDS0=    0 NMtDT0=    0
 Petite list used in FoFCou.
 Initial guess orbital symmetries:
       Occupied  (A') (A') (A') (A') (A') (A') (A') (A") (A') (A")
                 (A') (A") (A')
       Virtual   (A") (A") (A') (A') (A') (A') (A') (A') (A") (A')
                 (A') (A') (A') (A') (A") (A') (A") (A') (A') (A')
                 (A") (A") (A') (A') (A') (A') (A') (A') (A') (A')
                 (A') (A') (A') (A") (A') (A') (A') (A") (A') (A")
                 (A') (A") (A') (A") (A') (A') (A') (A') (A') (A')
                 (A') (A') (A')
 The electronic state of the initial guess is 1-A'.
 Keep R1 ints in memory in symmetry-blocked form, NReq=3822556.
 Requested convergence on RMS density matrix=1.00D-08 within 128 cycles.
 Requested convergence on MAX density matrix=1.00D-06.
 Requested convergence on             energy=1.00D-06.
 No special actions if energy rises.
 SCF Done:  E(RHF) =  -45.1454105368     A.U. after   14 cycles
            NFock= 14  Conv=0.93D-08     -V/T= 2.2908
 Range of M.O.s used for correlation:     1    66
 NBasis=    66 NAE=    13 NBE=    13 NFC=     0 NFV=     0
 NROrb=     66 NOA=    13 NOB=    13 NVA=    53 NVB=    53
 Fully direct method using O(ONN) memory.
 JobTyp=1 Pass  1:  I=   1 to  13 NPSUse=  8 ParTrn=T ParDer=T DoDerP=T.
 Spin components of T(2) and E(2):
     alpha-alpha T2 =       0.2737630036D-01 E2=     -0.6745899650D-01
     alpha-beta  T2 =       0.1517069687D+00 E2=     -0.3802515796D+00
     beta-beta   T2 =       0.2737630036D-01 E2=     -0.6745899650D-01
 ANorm=    0.1098389534D+01
 E2 =    -0.5151695726D+00 EUMP2 =    -0.45660580109377D+02
          IDoAtm=1111111
          Differentiating once with respect to electric field.
                with respect to dipole field.
          Differentiating once with respect to nuclear coordinates.
 Keep R1 ints in memory in symmetry-blocked form, NReq=3790887.
          There are     1 degrees of freedom in the 1st order CPHF.  IDoFFX=0 NUNeed=     1.
 LinEq1:  Iter=  0 NonCon=     1 RMS=8.35D-03 Max=6.67D-02 NDo=     1
 AX will form     1 AO Fock derivatives at one time.
 LinEq1:  Iter=  1 NonCon=     1 RMS=1.53D-03 Max=1.22D-02 NDo=     1
 LinEq1:  Iter=  2 NonCon=     1 RMS=6.88D-04 Max=9.44D-03 NDo=     1
 LinEq1:  Iter=  3 NonCon=     1 RMS=1.78D-04 Max=1.06D-03 NDo=     1
 LinEq1:  Iter=  4 NonCon=     1 RMS=7.26D-05 Max=7.10D-04 NDo=     1
 LinEq1:  Iter=  5 NonCon=     1 RMS=2.07D-05 Max=2.67D-04 NDo=     1
 LinEq1:  Iter=  6 NonCon=     1 RMS=8.97D-06 Max=6.75D-05 NDo=     1
 LinEq1:  Iter=  7 NonCon=     1 RMS=2.78D-06 Max=2.92D-05 NDo=     1
 LinEq1:  Iter=  8 NonCon=     1 RMS=1.58D-06 Max=1.68D-05 NDo=     1
 LinEq1:  Iter=  9 NonCon=     1 RMS=3.60D-07 Max=3.08D-06 NDo=     1
 LinEq1:  Iter= 10 NonCon=     1 RMS=1.03D-07 Max=7.29D-07 NDo=     1
 LinEq1:  Iter= 11 NonCon=     1 RMS=4.15D-08 Max=2.65D-07 NDo=     1
 LinEq1:  Iter= 12 NonCon=     1 RMS=6.50D-09 Max=5.72D-08 NDo=     1
 LinEq1:  Iter= 13 NonCon=     1 RMS=8.48D-10 Max=8.56D-09 NDo=     1
 LinEq1:  Iter= 14 NonCon=     1 RMS=1.00D-10 Max=5.62D-10 NDo=     1
 LinEq1:  Iter= 15 NonCon=     0 RMS=1.40D-11 Max=1.04D-10 NDo=     1
 Linear equations converged to 1.000D-10 1.000D-09 after    15 iterations.
 End of Minotr F.D. properties file   721 does not exist.
 End of Minotr F.D. properties file   722 does not exist.
 End of Minotr F.D. properties file   788 does not exist.

 **********************************************************************

            Population analysis using the MP2 density.

 **********************************************************************

 Orbital symmetries:
       Occupied  (A') (A') (A') (A') (A') (A') (A") (A') (A') (A')
                 (A") (A') (A")
       Virtual   (A') (A") (A') (A") (A') (A') (A') (A') (A") (A')
                 (A') (A') (A') (A') (A") (A') (A") (A') (A') (A")
                 (A") (A') (A') (A') (A') (A') (A') (A') (A') (A')
                 (A') (A') (A') (A") (A') (A') (A') (A") (A') (A")
                 (A') (A") (A") (A') (A') (A') (A') (A') (A') (A')
                 (A') (A') (A')
 The electronic state is 1-A'.
 Alpha  occ. eigenvalues --   -1.58736  -1.30953  -1.25751  -0.93723  -0.91956
 Alpha  occ. eigenvalues --   -0.82999  -0.71152  -0.69732  -0.57726  -0.48071
 Alpha  occ. eigenvalues --   -0.47786  -0.46361  -0.44411
 Alpha virt. eigenvalues --    0.11407   0.12193   0.15871   0.17484   0.25994
 Alpha virt. eigenvalues --    0.27276   0.35247   0.42253   0.42829   0.50628
 Alpha virt. eigenvalues --    0.53482   0.58120   0.61419   0.62712   0.64542
 Alpha virt. eigenvalues --    0.66937   0.67980   0.71050   0.73604   0.78099
 Alpha virt. eigenvalues --    0.81829   0.83276   0.84796   0.86262   0.93868
 Alpha virt. eigenvalues --    0.94991   0.98286   1.05222   1.08883   1.19527
 Alpha virt. eigenvalues --    1.20631   2.56626   2.59916   5.72494   6.13282
 Alpha virt. eigenvalues --    6.27254   8.23159   8.27082   8.33597   8.37836
 Alpha virt. eigenvalues --    8.37962   8.58545   8.68361   8.68683   8.96861
 Alpha virt. eigenvalues --    9.01881   9.16220   9.44442  32.86468  48.26477
 Alpha virt. eigenvalues --   48.64433  49.14415  49.50442
          Condensed to atoms (all electrons):
               1          2          3          4          5          6
     1  C    3.797529   0.132434  -0.052959  -0.184902   0.318901   0.341774
     2  N    0.132434   5.121156  -0.114101   0.013419  -0.105121  -0.019454
     3  N   -0.052959  -0.114101   5.246800   0.019467  -0.083798   0.006018
     4  N   -0.184902   0.013419   0.019467   5.047873   0.185502   0.004650
     5  N    0.318901  -0.105121  -0.083798   0.185502   4.626869  -0.000430
     6  H    0.341774  -0.019454   0.006018   0.004650  -0.000430   0.457340
     7  H   -0.079822   0.238175  -0.038160   0.020125   0.012909   0.000187
               7
     1  C   -0.079822
     2  N    0.238175
     3  N   -0.038160
     4  N    0.020125
     5  N    0.012909
     6  H    0.000187
     7  H    0.472801
 Mulliken charges:
               1
     1  C   -0.272956
     2  N   -0.266509
     3  N    0.016733
     4  N   -0.106135
     5  N    0.045167
     6  H    0.209915
     7  H    0.373785
 Sum of Mulliken charges =   0.00000
 Mulliken charges with hydrogens summed into heavy atoms:
               1
     1  C   -0.063041
     2  N    0.107276
     3  N    0.016733
     4  N   -0.106135
     5  N    0.045167
 Electronic spatial extent (au):  <R**2>=            203.6334
 Charge=              0.0000 electrons
 Dipole moment (field-independent basis, Debye):
    X=              2.7842    Y=              5.4078    Z=              0.0000  Tot=              6.0824
 Quadrupole moment (field-independent basis, Debye-Ang):
   XX=            -31.1015   YY=            -28.4249   ZZ=            -28.7730
   XY=              1.9596   XZ=              0.0000   YZ=              0.0000
 Traceless Quadrupole moment (field-independent basis, Debye-Ang):
   XX=             -1.6684   YY=              1.0082   ZZ=              0.6602
   XY=              1.9596   XZ=              0.0000   YZ=              0.0000
 Octapole moment (field-independent basis, Debye-Ang**2):
  XXX=             13.1791  YYY=             24.8780  ZZZ=              0.0000  XYY=             -0.4943
  XXY=              5.3680  XXZ=              0.0000  XZZ=             -0.7936  YZZ=              0.6283
  YYZ=              0.0000  XYZ=              0.0000
 Hexadecapole moment (field-independent basis, Debye-Ang**3):
 XXXX=           -148.0695 YYYY=           -125.7855 ZZZZ=            -27.6143 XXXY=              7.1126
 XXXZ=              0.0000 YYYX=             -0.1851 YYYZ=              0.0000 ZZZX=              0.0000
 ZZZY=              0.0000 XXYY=            -56.0314 XXZZ=            -31.3294 YYZZ=            -29.7114
 XXYZ=              0.0000 YYXZ=              0.0000 ZZXY=             -0.0112
 N-N= 8.840200311073D+01 E-N=-2.809307710353D+02  KE= 3.561147747170D+01
 Symmetry A'   KE= 2.613871615274D+01
 Symmetry A"   KE= 9.472761318965D+00
   2 Symmetry operations used in ECPInt.
 ECPInt:  NShTT=     231 NPrTT=     476 LenC2=     232 LenP2D=     460.
 LDataN:  DoStor=T MaxTD1= 3 Len=   28
 Calling FoFJK, ICntrl=  10002127 FMM=F ISym2X=1 I1Cent= 0 IOpClX= 0 NMat=1 NMatS=1 NMatT=0.
 ***** Axes restored to original set *****
 -------------------------------------------------------------------
 Center     Atomic                   Forces (Hartrees/Bohr)
 Number     Number              X              Y              Z
 -------------------------------------------------------------------
      1        6           0.094342839   -0.011231345    0.000000000
      2        7           0.049216249   -0.052742439    0.000000000
      3        7          -0.069055587   -0.129371331    0.000000000
      4        7          -0.101869549    0.102667333    0.000000000
      5        7           0.012333010    0.103705082    0.000000000
      6        1           0.008881465    0.002016013    0.000000000
      7        1           0.006151574   -0.015043312    0.000000000
 -------------------------------------------------------------------
 Cartesian Forces:  Max     0.129371331 RMS     0.056865864
 -----------------------------------------------------------------------------------------------
                       Internal Coordinate Forces (Hartree/Bohr or radian)
  Cent   Atom   N1       Length/X         N2         Alpha/Y        N3         Beta/Z          J
 -----------------------------------------------------------------------------------------------
         X 
         X        1   0.000000(     1)
      1  C        1   0.102637(     2)      2   0.000000(     9)
      2  N        1   0.081968(     3)      2   0.000000(    10)      3  -0.075232(    16)     0
      3  N        1   0.141396(     4)      2   0.000000(    11)      3  -0.099677(    17)     0
      4  N        1   0.124279(     5)      2   0.000000(    12)      3   0.155820(    18)     0
      5  N        1   0.104428(     6)      2   0.000000(    13)      3   0.002250(    19)     0
      6  H        3   0.009070(     7)      4   0.001663(    14)      5   0.000000(    20)     0
      7  H        4   0.016250(     8)      5   0.000479(    15)      6   0.000000(    21)     0
 -----------------------------------------------------------------------------------------------
 Internal  Forces:  Max     0.155820018 RMS     0.070314256

 GradGradGradGradGradGradGradGradGradGradGradGradGradGradGradGradGradGrad
 Berny optimization.
 Search for a local minimum.
 Step number   1 out of a maximum of   22
 All quantities printed in internal units (Hartrees-Bohrs-Radians)
 Second derivative matrix not updated -- first step.
 The second derivative matrix:
                          rn1       rn2       rn3       rn4       rch
           rn1          0.65186
           rn2          0.01318   0.69869
           rn3          0.03472   0.07334   0.58262
           rn4          0.03688   0.02662   0.13967   0.63921
           rch          0.00000   0.00000   0.00000   0.00000   0.37510
           rnh          0.00000   0.00000   0.00000   0.00000   0.00000
           an1          0.02012  -0.75016   0.04258  -0.08486   0.00000
           an2          0.72119  -0.31234  -0.71865   0.05436   0.00000
           an3         -0.02914   1.04797   0.05412  -0.58583   0.00000
           an4          0.05328  -0.03228   0.65851  -0.10009   0.00000
           ach          0.04546   0.00000   0.00000   0.05066   0.00000
           anh         -0.10206   0.05276   0.00000   0.00000   0.00000
                          rnh       an1       an2       an3       an4
           rnh          0.48741
           an1          0.00000   4.53257
           an2          0.00000  -2.68051   6.02300
           an3          0.00000  -0.03573  -3.19618   4.47465
           an4          0.00000  -0.12258  -0.06592  -1.16042   2.58479
           ach          0.00000  -0.10460   0.00000   0.00000   0.07318
           anh          0.00000   0.03519  -0.09059   0.00000   0.00000
                          ach       anh
           ach          0.32000
           anh          0.00000   0.32000
 ITU=  0
     Eigenvalues ---    0.00000   0.13346   0.26445   0.33044   0.37510
     Eigenvalues ---    0.40158   0.48741   0.75609   1.20990   2.99509
     Eigenvalues ---    5.09563   9.64077
 RFO step:  Lambda=-6.59786463D-02 EMin=-6.95624114D-16
 Linear search not attempted -- first point.
 Maximum step size (   0.300) exceeded in Quadratic search.
    -- Step size scaled by   0.966
 Variable       Old X    -DE/DX   Delta X   Delta X   Delta X     New X
                                 (Linear)    (Quad)   (Total)
   rn1        2.34817   0.08197   0.00000   0.06631   0.06631   2.41449
   rn2        2.51900   0.14140   0.00000   0.16855   0.16855   2.68756
   rn3        2.10629   0.12428   0.00000   0.20611   0.20611   2.31240
   rn4        1.75064   0.10443   0.00000   0.10180   0.10180   1.85245
   rch        2.01785   0.00907   0.00000   0.01986   0.01986   2.03771
   rnh        1.87858   0.01625   0.00000   0.02836   0.02836   1.90694
   an1        1.25389  -0.07523   0.00000   0.02697   0.02697   1.28086
   an2        2.33355  -0.09968   0.00000   0.02833   0.02833   2.36188
   an3        3.39396   0.15582   0.00000   0.01611   0.01611   3.41007
   an4        4.81845   0.00225   0.00000  -0.03674  -0.03674   4.78171
   ach        2.18209   0.00166   0.00000  -0.00274  -0.00274   2.17936
   anh        2.10770   0.00048   0.00000  -0.00012  -0.00012   2.10759
         Item               Value     Threshold  Converged?
 Maximum Force            0.155820     0.000450     NO 
 RMS     Force            0.088172     0.000300     NO 
 Maximum Displacement     0.206111     0.001800     NO 
 RMS     Displacement     0.086603     0.001200     NO 
 Predicted change in Energy=-3.591992D-02
 GradGradGradGradGradGradGradGradGradGradGradGradGradGradGradGradGradGrad

 ---------------------------------------------------------------------------------------------------
                            Z-MATRIX (ANGSTROMS AND DEGREES)
   CD    Cent   Atom    N1       Length/X        N2       Alpha/Y        N3        Beta/Z          J
 ---------------------------------------------------------------------------------------------------
      1         X 
      2         X        1   1.000000(     1)
      3      1  C        1   1.000000(     2)      2   90.000(     9)
      4      2  N        1   1.277692(     3)      2   90.000(    10)      3   73.388(    16)      0
      5      3  N        1   1.422195(     4)      2   90.000(    11)      3  135.326(    17)      0
      6      4  N        1   1.223669(     5)      2   90.000(    12)      3  195.383(    18)      0
      7      5  N        1   0.980273(     6)      2   90.000(    13)      3  273.972(    19)      0
      8      6  H        3   1.078310(     7)      4  124.868(    14)      5  180.000(    20)      0
      9      7  H        4   1.009109(     8)      5  120.756(    15)      6  180.000(    21)      0
 ---------------------------------------------------------------------------------------------------
                         Z-Matrix orientation:                         
 ---------------------------------------------------------------------
 Center     Atomic      Atomic             Coordinates (Angstroms)
 Number     Number       Type             X           Y           Z
 ---------------------------------------------------------------------
      1         -1           0        0.000000    0.000000    0.000000
      2         -1           0        0.000000    0.000000    1.000000
      3          6           0        1.000000    0.000000    0.000000
      4          7           0        0.365276   -1.224365    0.000000
      5          7           0       -1.011348   -0.999907    0.000000
      6          7           0       -1.179831    0.324599    0.000000
      7          7           0        0.067899    0.977918    0.000000
      8          1           0        2.069170    0.140102    0.000000
      9          1           0        0.735040   -2.163288    0.000000
 ---------------------------------------------------------------------
                    Distance matrix (angstroms):
                    1          2          3          4          5
     1  X    0.000000
     2  X    1.000000   0.000000
     3  C    1.000000   1.414214   0.000000
     4  N    1.277692   1.622497   1.379110   0.000000
     5  N    1.422195   1.738574   2.246183   1.394803   0.000000
     6  N    1.223669   1.580306   2.203867   2.187841   1.335178
     7  N    0.980273   1.400334   1.350976   2.222271   2.253124
     8  H    2.073908   2.302410   1.078310   2.182894   3.284694
     9  H    2.284754   2.494013   2.179454   1.009109   2.098411
                    6          7          8          9
     6  N    0.000000
     7  N    1.408424   0.000000
     8  H    3.254236   2.169567   0.000000
     9  H    3.139477   3.211270   2.661861   0.000000
 Stoichiometry    CH2N4
 Framework group  CS[SG(CH2N4)]
 Deg. of freedom    11
 Full point group                 CS      NOp   2
 Largest Abelian subgroup         CS      NOp   2
 Largest concise Abelian subgroup C1      NOp   1
                         Standard orientation:                         
 ---------------------------------------------------------------------
 Center     Atomic      Atomic             Coordinates (Angstroms)
 Number     Number       Type             X           Y           Z
 ---------------------------------------------------------------------
      1          6           0        1.093672    0.251627    0.000000
      2          7           0        0.000000    1.091762    0.000000
      3          7           0       -1.151871    0.305208    0.000000
      4          7           0       -0.743331   -0.965932    0.000000
      5          7           0        0.663677   -1.029091    0.000000
      6          1           0        2.121500    0.577698    0.000000
      7          1           0       -0.062856    2.098912    0.000000
 ---------------------------------------------------------------------
 Rotational constants (GHZ):      9.8675753      9.8270440      4.9236340
 Standard basis: CEP-121G (6D, 10F)
 There are    51 symmetry adapted cartesian basis functions of A'  symmetry.
 There are    15 symmetry adapted cartesian basis functions of A"  symmetry.
 There are    51 symmetry adapted basis functions of A'  symmetry.
 There are    15 symmetry adapted basis functions of A"  symmetry.
    66 basis functions,    90 primitive gaussians,    66 cartesian basis functions
    13 alpha electrons       13 beta electrons
       nuclear repulsion energy        84.4128162488 Hartrees.
 NAtoms=    7 NActive=    7 NUniq=    7 SFac= 1.00D+00 NAtFMM=   60 NAOKFM=F Big=F
 Integral buffers will be    131072 words long.
 Raffenetti 1 integral format.
 Two-electron integral symmetry is turned on.
 One-electron integrals computed using PRISM.
   1 Symmetry operations used in ECPInt.
 ECPInt:  NShTT=     231 NPrTT=     476 LenC2=     232 LenP2D=     458.
 LDataN:  DoStor=T MaxTD1= 2 Len=   12
 NBasis=    66 RedAO= T EigKep=  4.58D-03  NBF=    51    15
 NBsUse=    66 1.00D-06 EigRej= -1.00D+00 NBFU=    51    15
 Initial guess from the checkpoint file:  "/tmp/rdj3/g09-26531/Gau-30514.chk"
 B after Tr=     0.000000    0.000000    0.000000
         Rot=    0.999992    0.000000    0.000000   -0.004013 Ang=  -0.46 deg.
 Initial guess orbital symmetries:
       Occupied  (A') (A') (A') (A') (A') (A') (A") (A') (A') (A')
                 (A") (A') (A")
       Virtual   (A') (A') (A') (A') (A') (A') (A') (A') (A') (A')
                 (A') (A') (A') (A') (A') (A') (A') (A') (A') (A')
                 (A') (A') (A') (A') (A') (A') (A') (A') (A') (A')
                 (A') (A') (A') (A') (A') (A') (A') (A') (A') (A')
                 (A') (A") (A") (A") (A") (A") (A") (A") (A") (A")
                 (A") (A") (A")
 ExpMin= 1.03D-01 ExpMax= 3.39D+01 ExpMxC= 3.39D+01 IAcc=1 IRadAn=         1 AccDes= 0.00D+00
 Harris functional with IExCor=  205 and IRadAn=       1 diagonalized for initial guess.
 HarFok:  IExCor=  205 AccDes= 0.00D+00 IRadAn=         1 IDoV= 1 UseB2=F ITyADJ=14
 ICtDFT=  3500011 ScaDFX=  1.000000  1.000000  1.000000  1.000000
 FoFCou: FMM=F IPFlag=           0 FMFlag=      100000 FMFlg1=           0
         NFxFlg=           0 DoJE=T BraDBF=F KetDBF=T FulRan=T
         wScrn=  0.000000 ICntrl=     500 IOpCl=  0 I1Cent=   200000004 NGrid=           0
         NMat0=    1 NMatS0=      1 NMatT0=    0 NMatD0=    1 NMtDS0=    0 NMtDT0=    0
 Petite list used in FoFCou.
 Keep R1 ints in memory in symmetry-blocked form, NReq=3822556.
 Requested convergence on RMS density matrix=1.00D-08 within 128 cycles.
 Requested convergence on MAX density matrix=1.00D-06.
 Requested convergence on             energy=1.00D-06.
 No special actions if energy rises.
 SCF Done:  E(RHF) =  -45.1458107317     A.U. after   16 cycles
            NFock= 16  Conv=0.23D-08     -V/T= 2.3322
 Range of M.O.s used for correlation:     1    66
 NBasis=    66 NAE=    13 NBE=    13 NFC=     0 NFV=     0
 NROrb=     66 NOA=    13 NOB=    13 NVA=    53 NVB=    53
 Fully direct method using O(ONN) memory.
 JobTyp=1 Pass  1:  I=   1 to  13 NPSUse=  8 ParTrn=T ParDer=T DoDerP=T.
 Spin components of T(2) and E(2):
     alpha-alpha T2 =       0.3181404082D-01 E2=     -0.7274276828D-01
     alpha-beta  T2 =       0.1743348938D+00 E2=     -0.4066247747D+00
     beta-beta   T2 =       0.3181404082D-01 E2=     -0.7274276828D-01
 ANorm=    0.1112637846D+01
 E2 =    -0.5521103113D+00 EUMP2 =    -0.45697921042962D+02
          IDoAtm=1111111
          Differentiating once with respect to electric field.
                with respect to dipole field.
          Differentiating once with respect to nuclear coordinates.
 Keep R1 ints in memory in symmetry-blocked form, NReq=3790887.
          There are     1 degrees of freedom in the 1st order CPHF.  IDoFFX=0 NUNeed=     1.
 LinEq1:  Iter=  0 NonCon=     1 RMS=9.59D-03 Max=7.88D-02 NDo=     1
 AX will form     1 AO Fock derivatives at one time.
 LinEq1:  Iter=  1 NonCon=     1 RMS=1.99D-03 Max=1.27D-02 NDo=     1
 LinEq1:  Iter=  2 NonCon=     1 RMS=9.95D-04 Max=1.58D-02 NDo=     1
 LinEq1:  Iter=  3 NonCon=     1 RMS=3.34D-04 Max=2.25D-03 NDo=     1
 LinEq1:  Iter=  4 NonCon=     1 RMS=1.30D-04 Max=1.19D-03 NDo=     1
 LinEq1:  Iter=  5 NonCon=     1 RMS=5.34D-05 Max=6.75D-04 NDo=     1
 LinEq1:  Iter=  6 NonCon=     1 RMS=2.23D-05 Max=3.06D-04 NDo=     1
 LinEq1:  Iter=  7 NonCon=     1 RMS=1.06D-05 Max=1.44D-04 NDo=     1
 LinEq1:  Iter=  8 NonCon=     1 RMS=4.52D-06 Max=5.80D-05 NDo=     1
 LinEq1:  Iter=  9 NonCon=     1 RMS=7.91D-07 Max=5.52D-06 NDo=     1
 LinEq1:  Iter= 10 NonCon=     1 RMS=1.65D-07 Max=1.13D-06 NDo=     1
 LinEq1:  Iter= 11 NonCon=     1 RMS=8.81D-08 Max=6.25D-07 NDo=     1
 LinEq1:  Iter= 12 NonCon=     1 RMS=1.78D-08 Max=1.48D-07 NDo=     1
 LinEq1:  Iter= 13 NonCon=     1 RMS=2.39D-09 Max=2.20D-08 NDo=     1
 LinEq1:  Iter= 14 NonCon=     1 RMS=3.07D-10 Max=2.18D-09 NDo=     1
 LinEq1:  Iter= 15 NonCon=     0 RMS=4.84D-11 Max=3.70D-10 NDo=     1
 Linear equations converged to 1.000D-10 1.000D-09 after    15 iterations.
 End of Minotr F.D. properties file   721 does not exist.
 End of Minotr F.D. properties file   722 does not exist.
 End of Minotr F.D. properties file   788 does not exist.
   2 Symmetry operations used in ECPInt.
 ECPInt:  NShTT=     231 NPrTT=     476 LenC2=     232 LenP2D=     458.
 LDataN:  DoStor=T MaxTD1= 3 Len=   28
 Calling FoFJK, ICntrl=  10002127 FMM=F ISym2X=1 I1Cent= 0 IOpClX= 0 NMat=1 NMatS=1 NMatT=0.
 ***** Axes restored to original set *****
 -------------------------------------------------------------------
 Center     Atomic                   Forces (Hartrees/Bohr)
 Number     Number              X              Y              Z
 -------------------------------------------------------------------
      1        6           0.019321661   -0.006054332    0.000000000
      2        7           0.009490453    0.005345572    0.000000000
      3        7          -0.020514847   -0.045614099    0.000000000
      4        7          -0.024070702    0.025696504    0.000000000
      5        7           0.012503067    0.023931821    0.000000000
      6        1           0.002648623    0.001068179    0.000000000
      7        1           0.000621745   -0.004373645    0.000000000
 -------------------------------------------------------------------
 Cartesian Forces:  Max     0.045614099 RMS     0.015471279
 -----------------------------------------------------------------------------------------------
                       Internal Coordinate Forces (Hartree/Bohr or radian)
  Cent   Atom   N1       Length/X         N2         Alpha/Y        N3         Beta/Z          J
 -----------------------------------------------------------------------------------------------
         X 
         X        1   0.000000(     1)
      1  C        1   0.021474(     2)      2   0.000000(     9)
      2  N        1   0.003015(     3)      2   0.000000(    10)      3  -0.024258(    16)     0
      3  N        1   0.046060(     4)      2   0.000000(    11)      3  -0.047240(    17)     0
      4  N        1   0.030025(     5)      2   0.000000(    12)      3   0.042527(    18)     0
      5  N        1   0.024740(     6)      2   0.000000(    13)      3   0.020035(    19)     0
      6  H        3   0.002765(     7)      4   0.001457(    14)      5   0.000000(    20)     0
      7  H        4   0.004297(     8)      5  -0.001953(    15)      6   0.000000(    21)     0
 -----------------------------------------------------------------------------------------------
 Internal  Forces:  Max     0.047240255 RMS     0.020893534

 GradGradGradGradGradGradGradGradGradGradGradGradGradGradGradGradGradGrad
 Berny optimization.
 Search for a local minimum.
 Step number   2 out of a maximum of   22
 All quantities printed in internal units (Hartrees-Bohrs-Radians)
 Update second derivatives using D2CorN and points    1    2
 DE= -3.73D-02 DEPred=-3.59D-02 R= 1.04D+00
 TightC=F SS=  1.41D+00  RLast= 3.00D-01 DXNew= 5.0454D-01 9.0000D-01
 Trust test= 1.04D+00 RLast= 3.00D-01 DXMaxT set to 5.05D-01
 The second derivative matrix:
                          rn1       rn2       rn3       rn4       rch
           rn1          0.65493
           rn2          0.00598   0.64229
           rn3          0.03499   0.02745   0.55472
           rn4          0.03391  -0.00395   0.11622   0.62286
           rch          0.00004  -0.00439  -0.00266  -0.00224   0.37484
           rnh         -0.00003  -0.00650  -0.00406  -0.00334  -0.00039
           an1          0.02939  -0.73270   0.06763  -0.07375   0.00242
           an2          0.73868  -0.27428  -0.66823   0.07793   0.00486
           an3         -0.04208   1.01143   0.01164  -0.60756  -0.00409
           an4          0.04419  -0.04709   0.63537  -0.10980  -0.00224
           ach          0.04482  -0.00102  -0.00162   0.04998  -0.00016
           anh         -0.10134   0.05461   0.00225   0.00112   0.00022
                          rnh       an1       an2       an3       an4
           rnh          0.48682
           an1          0.00342   4.53961
           an2          0.00691  -2.66997   6.03739
           an3         -0.00586  -0.03905  -3.19778   4.46818
           an4         -0.00314  -0.13073  -0.07877  -1.15505   2.59393
           ach         -0.00022  -0.10519  -0.00094   0.00041   0.07384
           anh          0.00031   0.03547  -0.09031   0.00020  -0.00039
                          ach       anh
           ach          0.32005
           anh         -0.00003   0.32000
 ITU=  1  0
     Eigenvalues ---    0.00000   0.13322   0.26837   0.33140   0.37463
     Eigenvalues ---    0.39185   0.48678   0.71787   1.20987   2.98196
     Eigenvalues ---    5.08458   9.63507
 RFO step:  Lambda=-3.18606383D-03 EMin=-7.63597317D-08
 Quartic linear search produced a step of  0.44130.
 Variable       Old X    -DE/DX   Delta X   Delta X   Delta X     New X
                                 (Linear)    (Quad)   (Total)
   rn1        2.41449   0.00301   0.02926  -0.04588  -0.01662   2.39787
   rn2        2.68756   0.04606   0.07438   0.09174   0.16613   2.85368
   rn3        2.31240   0.03002   0.09096   0.01747   0.10843   2.42083
   rn4        1.85245   0.02474   0.04493  -0.03760   0.00733   1.85977
   rch        2.03771   0.00276   0.00876   0.00450   0.01326   2.05097
   rnh        1.90694   0.00430   0.01252   0.00304   0.01556   1.92250
   an1        1.28086  -0.02426   0.01190   0.01213   0.02403   1.30489
   an2        2.36188  -0.04724   0.01250  -0.00419   0.00831   2.37019
   an3        3.41007   0.04253   0.00711  -0.03281  -0.02570   3.38437
   an4        4.78171   0.02003  -0.01621  -0.00849  -0.02470   4.75701
   ach        2.17936   0.00146  -0.00121   0.02206   0.02085   2.20021
   anh        2.10759  -0.00195  -0.00005  -0.04177  -0.04182   2.06577
         Item               Value     Threshold  Converged?
 Maximum Force            0.047240     0.000450     NO 
 RMS     Force            0.026935     0.000300     NO 
 Maximum Displacement     0.166125     0.001800     NO 
 RMS     Displacement     0.060692     0.001200     NO 
 Predicted change in Energy=-2.375963D-03
 GradGradGradGradGradGradGradGradGradGradGradGradGradGradGradGradGradGrad

 ---------------------------------------------------------------------------------------------------
                            Z-MATRIX (ANGSTROMS AND DEGREES)
   CD    Cent   Atom    N1       Length/X        N2       Alpha/Y        N3        Beta/Z          J
 ---------------------------------------------------------------------------------------------------
      1         X 
      2         X        1   1.000000(     1)
      3      1  C        1   1.000000(     2)      2   90.000(     9)
      4      2  N        1   1.268899(     3)      2   90.000(    10)      3   74.765(    16)      0
      5      3  N        1   1.510105(     4)      2   90.000(    11)      3  135.802(    17)      0
      6      4  N        1   1.281046(     5)      2   90.000(    12)      3  193.910(    18)      0
      7      5  N        1   0.984150(     6)      2   90.000(    13)      3  272.557(    19)      0
      8      6  H        3   1.085328(     7)      4  126.063(    14)      5  180.000(    20)      0
      9      7  H        4   1.017342(     8)      5  118.360(    15)      6  180.000(    21)      0
 ---------------------------------------------------------------------------------------------------
                         Z-Matrix orientation:                         
 ---------------------------------------------------------------------
 Center     Atomic      Atomic             Coordinates (Angstroms)
 Number     Number       Type             X           Y           Z
 ---------------------------------------------------------------------
      1         -1           0        0.000000    0.000000    0.000000
      2         -1           0        0.000000    0.000000    1.000000
      3          6           0        1.000000    0.000000    0.000000
      4          7           0        0.333443   -1.224304    0.000000
      5          7           0       -1.082648   -1.052753    0.000000
      6          7           0       -1.243478    0.307963    0.000000
      7          7           0        0.043900    0.983171    0.000000
      8          1           0        2.076050    0.141608    0.000000
      9          1           0        0.705518   -2.171165    0.000000
 ---------------------------------------------------------------------
                    Distance matrix (angstroms):
                    1          2          3          4          5
     1  X    0.000000
     2  X    1.000000   0.000000
     3  C    1.000000   1.414214   0.000000
     4  N    1.268899   1.615582   1.393994   0.000000
     5  N    1.510105   1.811192   2.333605   1.426444   0.000000
     6  N    1.281046   1.625140   2.264517   2.198755   1.370188
     7  N    0.984150   1.403051   1.371405   2.226383   2.326822
     8  H    2.080874   2.308687   1.085328   2.214135   3.376962
     9  H    2.282917   2.492330   2.191045   1.017342   2.109118
                    6          7          8          9
     6  N    0.000000
     7  N    1.453702   0.000000
     8  H    3.323694   2.199514   0.000000
     9  H    3.153515   3.222975   2.688360   0.000000
 Stoichiometry    CH2N4
 Framework group  CS[SG(CH2N4)]
 Deg. of freedom    11
 Full point group                 CS      NOp   2
 Largest Abelian subgroup         CS      NOp   2
 Largest concise Abelian subgroup C1      NOp   1
                         Standard orientation:                         
 ---------------------------------------------------------------------
 Center     Atomic      Atomic             Coordinates (Angstroms)
 Number     Number       Type             X           Y           Z
 ---------------------------------------------------------------------
      1          6           0        1.130612    0.267359    0.000000
      2          7           0        0.000000    1.082794    0.000000
      3          7           0       -1.202496    0.315495    0.000000
      4          7           0       -0.758821   -0.980871    0.000000
      5          7           0        0.693958   -1.032674    0.000000
      6          1           0        2.162015    0.605212    0.000000
      7          1           0       -0.074180    2.097428    0.000000
 ---------------------------------------------------------------------
 Rotational constants (GHZ):      9.7637373      9.1781131      4.7309362
 Standard basis: CEP-121G (6D, 10F)
 There are    51 symmetry adapted cartesian basis functions of A'  symmetry.
 There are    15 symmetry adapted cartesian basis functions of A"  symmetry.
 There are    51 symmetry adapted basis functions of A'  symmetry.
 There are    15 symmetry adapted basis functions of A"  symmetry.
    66 basis functions,    90 primitive gaussians,    66 cartesian basis functions
    13 alpha electrons       13 beta electrons
       nuclear repulsion energy        82.7990860158 Hartrees.
 NAtoms=    7 NActive=    7 NUniq=    7 SFac= 1.00D+00 NAtFMM=   60 NAOKFM=F Big=F
 Integral buffers will be    131072 words long.
 Raffenetti 1 integral format.
 Two-electron integral symmetry is turned on.
 One-electron integrals computed using PRISM.
   1 Symmetry operations used in ECPInt.
 ECPInt:  NShTT=     231 NPrTT=     476 LenC2=     232 LenP2D=     457.
 LDataN:  DoStor=T MaxTD1= 2 Len=   12
 NBasis=    66 RedAO= T EigKep=  5.41D-03  NBF=    51    15
 NBsUse=    66 1.00D-06 EigRej= -1.00D+00 NBFU=    51    15
 Initial guess from the checkpoint file:  "/tmp/rdj3/g09-26531/Gau-30514.chk"
 B after Tr=     0.000000    0.000000    0.000000
         Rot=    0.999996    0.000000    0.000000   -0.002681 Ang=  -0.31 deg.
 Initial guess orbital symmetries:
       Occupied  (A') (A') (A') (A') (A') (A') (A') (A") (A') (A')
                 (A') (A") (A")
       Virtual   (A') (A') (A') (A') (A') (A') (A') (A') (A') (A')
                 (A') (A') (A') (A') (A') (A') (A') (A') (A') (A')
                 (A') (A') (A') (A') (A') (A') (A') (A') (A') (A')
                 (A') (A') (A') (A') (A') (A') (A') (A') (A') (A')
                 (A') (A") (A") (A") (A") (A") (A") (A") (A") (A")
                 (A") (A") (A")
 ExpMin= 1.03D-01 ExpMax= 3.39D+01 ExpMxC= 3.39D+01 IAcc=1 IRadAn=         1 AccDes= 0.00D+00
 Harris functional with IExCor=  205 and IRadAn=       1 diagonalized for initial guess.
 HarFok:  IExCor=  205 AccDes= 0.00D+00 IRadAn=         1 IDoV= 1 UseB2=F ITyADJ=14
 ICtDFT=  3500011 ScaDFX=  1.000000  1.000000  1.000000  1.000000
 FoFCou: FMM=F IPFlag=           0 FMFlag=      100000 FMFlg1=           0
         NFxFlg=           0 DoJE=T BraDBF=F KetDBF=T FulRan=T
         wScrn=  0.000000 ICntrl=     500 IOpCl=  0 I1Cent=   200000004 NGrid=           0
         NMat0=    1 NMatS0=      1 NMatT0=    0 NMatD0=    1 NMtDS0=    0 NMtDT0=    0
 Petite list used in FoFCou.
 Keep R1 ints in memory in symmetry-blocked form, NReq=3822556.
 Requested convergence on RMS density matrix=1.00D-08 within 128 cycles.
 Requested convergence on MAX density matrix=1.00D-06.
 Requested convergence on             energy=1.00D-06.
 No special actions if energy rises.
 SCF Done:  E(RHF) =  -45.1310534097     A.U. after   15 cycles
            NFock= 15  Conv=0.97D-08     -V/T= 2.3491
 Range of M.O.s used for correlation:     1    66
 NBasis=    66 NAE=    13 NBE=    13 NFC=     0 NFV=     0
 NROrb=     66 NOA=    13 NOB=    13 NVA=    53 NVB=    53
 Fully direct method using O(ONN) memory.
 JobTyp=1 Pass  1:  I=   1 to  13 NPSUse=  8 ParTrn=T ParDer=T DoDerP=T.
 Spin components of T(2) and E(2):
     alpha-alpha T2 =       0.3408849585D-01 E2=     -0.7532764524D-01
     alpha-beta  T2 =       0.1857460898D+00 E2=     -0.4192528315D+00
     beta-beta   T2 =       0.3408849585D-01 E2=     -0.7532764524D-01
 ANorm=    0.1119787070D+01
 E2 =    -0.5699081220D+00 EUMP2 =    -0.45700961531670D+02
          IDoAtm=1111111
          Differentiating once with respect to electric field.
                with respect to dipole field.
          Differentiating once with respect to nuclear coordinates.
 Keep R1 ints in memory in symmetry-blocked form, NReq=3790887.
          There are     1 degrees of freedom in the 1st order CPHF.  IDoFFX=0 NUNeed=     1.
 LinEq1:  Iter=  0 NonCon=     1 RMS=1.02D-02 Max=9.16D-02 NDo=     1
 AX will form     1 AO Fock derivatives at one time.
 LinEq1:  Iter=  1 NonCon=     1 RMS=2.27D-03 Max=1.50D-02 NDo=     1
 LinEq1:  Iter=  2 NonCon=     1 RMS=1.24D-03 Max=2.12D-02 NDo=     1
 LinEq1:  Iter=  3 NonCon=     1 RMS=4.79D-04 Max=4.25D-03 NDo=     1
 LinEq1:  Iter=  4 NonCon=     1 RMS=1.86D-04 Max=1.51D-03 NDo=     1
 LinEq1:  Iter=  5 NonCon=     1 RMS=9.14D-05 Max=1.12D-03 NDo=     1
 LinEq1:  Iter=  6 NonCon=     1 RMS=3.94D-05 Max=6.55D-04 NDo=     1
 LinEq1:  Iter=  7 NonCon=     1 RMS=1.97D-05 Max=2.72D-04 NDo=     1
 LinEq1:  Iter=  8 NonCon=     1 RMS=6.70D-06 Max=7.03D-05 NDo=     1
 LinEq1:  Iter=  9 NonCon=     1 RMS=1.13D-06 Max=7.37D-06 NDo=     1
 LinEq1:  Iter= 10 NonCon=     1 RMS=1.83D-07 Max=1.39D-06 NDo=     1
 LinEq1:  Iter= 11 NonCon=     1 RMS=8.73D-08 Max=6.19D-07 NDo=     1
 LinEq1:  Iter= 12 NonCon=     1 RMS=2.85D-08 Max=2.41D-07 NDo=     1
 LinEq1:  Iter= 13 NonCon=     1 RMS=4.01D-09 Max=3.00D-08 NDo=     1
 LinEq1:  Iter= 14 NonCon=     1 RMS=5.25D-10 Max=3.62D-09 NDo=     1
 LinEq1:  Iter= 15 NonCon=     0 RMS=8.19D-11 Max=6.70D-10 NDo=     1
 Linear equations converged to 1.000D-10 1.000D-09 after    15 iterations.
 End of Minotr F.D. properties file   721 does not exist.
 End of Minotr F.D. properties file   722 does not exist.
 End of Minotr F.D. properties file   788 does not exist.
   2 Symmetry operations used in ECPInt.
 ECPInt:  NShTT=     231 NPrTT=     476 LenC2=     232 LenP2D=     457.
 LDataN:  DoStor=T MaxTD1= 3 Len=   28
 Calling FoFJK, ICntrl=  10002127 FMM=F ISym2X=1 I1Cent= 0 IOpClX= 0 NMat=1 NMatS=1 NMatT=0.
 ***** Axes restored to original set *****
 -------------------------------------------------------------------
 Center     Atomic                   Forces (Hartrees/Bohr)
 Number     Number              X              Y              Z
 -------------------------------------------------------------------
      1        6          -0.018067085   -0.006851603    0.000000000
      2        7           0.006602321   -0.010589486    0.000000000
      3        7           0.016387581   -0.005875648    0.000000000
      4        7          -0.004604696    0.017960738    0.000000000
      5        7           0.001062650    0.005063649    0.000000000
      6        1          -0.001880035   -0.000826159    0.000000000
      7        1           0.000499264    0.001118508    0.000000000
 -------------------------------------------------------------------
 Cartesian Forces:  Max     0.018067085 RMS     0.007585847
 -----------------------------------------------------------------------------------------------
                       Internal Coordinate Forces (Hartree/Bohr or radian)
  Cent   Atom   N1       Length/X         N2         Alpha/Y        N3         Beta/Z          J
 -----------------------------------------------------------------------------------------------
         X 
         X        1   0.000000(     1)
      1  C        1  -0.019555(     2)      2   0.000000(     9)
      2  N        1   0.010118(     3)      2   0.000000(    10)      3  -0.010252(    16)     0
      3  N        1  -0.007168(     4)      2   0.000000(    11)      3  -0.045739(    17)     0
      4  N        1   0.008787(     5)      2   0.000000(    12)      3   0.039525(    18)     0
      5  N        1   0.005106(     6)      2   0.000000(    13)      3   0.001554(    19)     0
      6  H        3  -0.001972(     7)      4  -0.001177(    14)      5   0.000000(    20)     0
      7  H        4  -0.000858(     8)      5   0.001680(    15)      6   0.000000(    21)     0
 -----------------------------------------------------------------------------------------------
 Internal  Forces:  Max     0.045739324 RMS     0.014491532

 GradGradGradGradGradGradGradGradGradGradGradGradGradGradGradGradGradGrad
 Berny optimization.
 Search for a local minimum.
 Step number   3 out of a maximum of   22
 All quantities printed in internal units (Hartrees-Bohrs-Radians)
 Update second derivatives using D2CorN and points    1    2    3
 DE= -3.04D-03 DEPred=-2.38D-03 R= 1.28D+00
 TightC=F SS=  1.41D+00  RLast= 2.10D-01 DXNew= 8.4853D-01 6.3073D-01
 Trust test= 1.28D+00 RLast= 2.10D-01 DXMaxT set to 6.31D-01
 The second derivative matrix:
                          rn1       rn2       rn3       rn4       rch
           rn1          0.65735
           rn2         -0.02247   0.60148
           rn3          0.01644  -0.03853   0.48181
           rn4          0.03106  -0.04046   0.08517   0.61295
           rch         -0.00229  -0.00472  -0.00571  -0.00483   0.37511
           rnh         -0.00279  -0.01119  -0.01097  -0.00713  -0.00042
           an1          0.02652  -0.70069   0.08867  -0.07166   0.00580
           an2          0.73785  -0.14883  -0.57283   0.09665   0.01617
           an3         -0.03888   0.90036  -0.06955  -0.62223  -0.01414
           an4          0.04693  -0.05772   0.63059  -0.10857  -0.00384
           ach          0.04163  -0.00050  -0.00522   0.04698   0.00018
           anh         -0.09499   0.05513   0.01059   0.00739  -0.00035
                          rnh       an1       an2       an3       an4
           rnh          0.48633
           an1          0.00706   4.55004
           an2          0.02072  -2.64828   6.05663
           an3         -0.01789  -0.05877  -3.21895   4.49135
           an4         -0.00454  -0.13872  -0.10101  -1.13600   2.59895
           ach         -0.00025  -0.10181   0.01123  -0.01074   0.07259
           anh          0.00050   0.02856  -0.11557   0.02312   0.00212
                          ach       anh
           ach          0.32058
           anh         -0.00092   0.32145
 ITU=  1  1  0
     Eigenvalues ---    0.00047   0.15684   0.27684   0.32471   0.37481
     Eigenvalues ---    0.40205   0.48554   0.65398   1.20947   2.96831
     Eigenvalues ---    5.07398   9.62704
 RFO step:  Lambda=-1.62518402D-03 EMin= 4.66130813D-04
 Quartic linear search produced a step of -0.22081.
 Variable       Old X    -DE/DX   Delta X   Delta X   Delta X     New X
                                 (Linear)    (Quad)   (Total)
   rn1        2.39787   0.01012   0.00367   0.06252   0.06619   2.46406
   rn2        2.85368  -0.00717  -0.03668  -0.00213  -0.03881   2.81487
   rn3        2.42083   0.00879  -0.02394  -0.00684  -0.03078   2.39005
   rn4        1.85977   0.00511  -0.00162  -0.00899  -0.01061   1.84917
   rch        2.05097  -0.00197  -0.00293  -0.00129  -0.00422   2.04675
   rnh        1.92250  -0.00086  -0.00344   0.00159  -0.00185   1.92065
   an1        1.30489  -0.01025  -0.00531  -0.02845  -0.03376   1.27114
   an2        2.37019  -0.04574  -0.00183  -0.04081  -0.04264   2.32755
   an3        3.38437   0.03952   0.00568  -0.02384  -0.01817   3.36620
   an4        4.75701   0.00155   0.00545  -0.01079  -0.00534   4.75168
   ach        2.20021  -0.00118  -0.00460  -0.01494  -0.01955   2.18066
   anh        2.06577   0.00168   0.00923   0.01218   0.02141   2.08718
         Item               Value     Threshold  Converged?
 Maximum Force            0.045739     0.000450     NO 
 RMS     Force            0.018321     0.000300     NO 
 Maximum Displacement     0.066190     0.001800     NO 
 RMS     Displacement     0.030449     0.001200     NO 
 Predicted change in Energy=-1.191903D-03
 GradGradGradGradGradGradGradGradGradGradGradGradGradGradGradGradGradGrad

 ---------------------------------------------------------------------------------------------------
                            Z-MATRIX (ANGSTROMS AND DEGREES)
   CD    Cent   Atom    N1       Length/X        N2       Alpha/Y        N3        Beta/Z          J
 ---------------------------------------------------------------------------------------------------
      1         X 
      2         X        1   1.000000(     1)
      3      1  C        1   1.000000(     2)      2   90.000(     9)
      4      2  N        1   1.303925(     3)      2   90.000(    10)      3   72.831(    16)      0
      5      3  N        1   1.489567(     4)      2   90.000(    11)      3  133.359(    17)      0
      6      4  N        1   1.264758(     5)      2   90.000(    12)      3  192.869(    18)      0
      7      5  N        1   0.978537(     6)      2   90.000(    13)      3  272.251(    19)      0
      8      6  H        3   1.083095(     7)      4  124.943(    14)      5  180.000(    20)      0
      9      7  H        4   1.016365(     8)      5  119.587(    15)      6  180.000(    21)      0
 ---------------------------------------------------------------------------------------------------
                         Z-Matrix orientation:                         
 ---------------------------------------------------------------------
 Center     Atomic      Atomic             Coordinates (Angstroms)
 Number     Number       Type             X           Y           Z
 ---------------------------------------------------------------------
      1         -1           0        0.000000    0.000000    0.000000
      2         -1           0        0.000000    0.000000    1.000000
      3          6           0        1.000000    0.000000    0.000000
      4          7           0        0.384912   -1.245818    0.000000
      5          7           0       -1.022683   -1.083018    0.000000
      6          7           0       -1.232989    0.281693    0.000000
      7          7           0        0.038434    0.977781    0.000000
      8          1           0        2.070730    0.163197    0.000000
      9          1           0        0.781863   -2.181461    0.000000
 ---------------------------------------------------------------------
                    Distance matrix (angstroms):
                    1          2          3          4          5
     1  X    0.000000
     2  X    1.000000   0.000000
     3  C    1.000000   1.414214   0.000000
     4  N    1.303925   1.643235   1.389387   0.000000
     5  N    1.489567   1.794104   2.294379   1.416979   0.000000
     6  N    1.264758   1.612331   2.250687   2.225061   1.380821
     7  N    0.978537   1.399119   1.371374   2.250432   2.317944
     8  H    2.077151   2.305332   1.083095   2.197113   3.335004
     9  H    2.317344   2.523902   2.192341   1.016365   2.112573
                    6          7          8          9
     6  N    0.000000
     7  N    1.449501   0.000000
     8  H    3.305843   2.189469   0.000000
     9  H    3.182257   3.245536   2.675556   0.000000
 Stoichiometry    CH2N4
 Framework group  CS[SG(CH2N4)]
 Deg. of freedom    11
 Full point group                 CS      NOp   2
 Largest Abelian subgroup         CS      NOp   2
 Largest concise Abelian subgroup C1      NOp   1
                         Standard orientation:                         
 ---------------------------------------------------------------------
 Center     Atomic      Atomic             Coordinates (Angstroms)
 Number     Number       Type             X           Y           Z
 ---------------------------------------------------------------------
      1          6           0        1.110281    0.264411    0.000000
      2          7           0        0.000000    1.099679    0.000000
      3          7           0       -1.183416    0.320349    0.000000
      4          7           0       -0.756520   -0.992825    0.000000
      5          7           0        0.692158   -1.041667    0.000000
      6          1           0        2.139762    0.600958    0.000000
      7          1           0       -0.067003    2.113833    0.000000
 ---------------------------------------------------------------------
 Rotational constants (GHZ):      9.5593918      9.3957523      4.7384328
 Standard basis: CEP-121G (6D, 10F)
 There are    51 symmetry adapted cartesian basis functions of A'  symmetry.
 There are    15 symmetry adapted cartesian basis functions of A"  symmetry.
 There are    51 symmetry adapted basis functions of A'  symmetry.
 There are    15 symmetry adapted basis functions of A"  symmetry.
    66 basis functions,    90 primitive gaussians,    66 cartesian basis functions
    13 alpha electrons       13 beta electrons
       nuclear repulsion energy        82.8523053076 Hartrees.
 NAtoms=    7 NActive=    7 NUniq=    7 SFac= 1.00D+00 NAtFMM=   60 NAOKFM=F Big=F
 Integral buffers will be    131072 words long.
 Raffenetti 1 integral format.
 Two-electron integral symmetry is turned on.
 One-electron integrals computed using PRISM.
   1 Symmetry operations used in ECPInt.
 ECPInt:  NShTT=     231 NPrTT=     476 LenC2=     232 LenP2D=     457.
 LDataN:  DoStor=T MaxTD1= 2 Len=   12
 NBasis=    66 RedAO= T EigKep=  5.34D-03  NBF=    51    15
 NBsUse=    66 1.00D-06 EigRej= -1.00D+00 NBFU=    51    15
 Initial guess from the checkpoint file:  "/tmp/rdj3/g09-26531/Gau-30514.chk"
 B after Tr=     0.000000    0.000000    0.000000
         Rot=    1.000000    0.000000    0.000000    0.000514 Ang=   0.06 deg.
 Initial guess orbital symmetries:
       Occupied  (A') (A') (A') (A') (A') (A') (A') (A") (A') (A')
                 (A') (A") (A")
       Virtual   (A') (A') (A') (A') (A') (A') (A') (A') (A') (A')
                 (A') (A') (A') (A') (A') (A') (A') (A') (A') (A')
                 (A') (A') (A') (A') (A') (A') (A') (A') (A') (A')
                 (A') (A') (A') (A') (A') (A') (A') (A') (A') (A')
                 (A') (A") (A") (A") (A") (A") (A") (A") (A") (A")
                 (A") (A") (A")
 ExpMin= 1.03D-01 ExpMax= 3.39D+01 ExpMxC= 3.39D+01 IAcc=1 IRadAn=         1 AccDes= 0.00D+00
 Harris functional with IExCor=  205 and IRadAn=       1 diagonalized for initial guess.
 HarFok:  IExCor=  205 AccDes= 0.00D+00 IRadAn=         1 IDoV= 1 UseB2=F ITyADJ=14
 ICtDFT=  3500011 ScaDFX=  1.000000  1.000000  1.000000  1.000000
 FoFCou: FMM=F IPFlag=           0 FMFlag=      100000 FMFlg1=           0
         NFxFlg=           0 DoJE=T BraDBF=F KetDBF=T FulRan=T
         wScrn=  0.000000 ICntrl=     500 IOpCl=  0 I1Cent=   200000004 NGrid=           0
         NMat0=    1 NMatS0=      1 NMatT0=    0 NMatD0=    1 NMtDS0=    0 NMtDT0=    0
 Petite list used in FoFCou.
 Keep R1 ints in memory in symmetry-blocked form, NReq=3822556.
 Requested convergence on RMS density matrix=1.00D-08 within 128 cycles.
 Requested convergence on MAX density matrix=1.00D-06.
 Requested convergence on             energy=1.00D-06.
 No special actions if energy rises.
 SCF Done:  E(RHF) =  -45.1319965732     A.U. after   14 cycles
            NFock= 14  Conv=0.41D-08     -V/T= 2.3485
 Range of M.O.s used for correlation:     1    66
 NBasis=    66 NAE=    13 NBE=    13 NFC=     0 NFV=     0
 NROrb=     66 NOA=    13 NOB=    13 NVA=    53 NVB=    53
 Fully direct method using O(ONN) memory.
 JobTyp=1 Pass  1:  I=   1 to  13 NPSUse=  8 ParTrn=T ParDer=T DoDerP=T.
 Spin components of T(2) and E(2):
     alpha-alpha T2 =       0.3412153137D-01 E2=     -0.7535705578D-01
     alpha-beta  T2 =       0.1858738508D+00 E2=     -0.4192995014D+00
     beta-beta   T2 =       0.3412153137D-01 E2=     -0.7535705578D-01
 ANorm=    0.1119873615D+01
 E2 =    -0.5700136129D+00 EUMP2 =    -0.45702010186129D+02
          IDoAtm=1111111
          Differentiating once with respect to electric field.
                with respect to dipole field.
          Differentiating once with respect to nuclear coordinates.
 Keep R1 ints in memory in symmetry-blocked form, NReq=3790887.
          There are     1 degrees of freedom in the 1st order CPHF.  IDoFFX=0 NUNeed=     1.
 LinEq1:  Iter=  0 NonCon=     1 RMS=1.01D-02 Max=8.22D-02 NDo=     1
 AX will form     1 AO Fock derivatives at one time.
 LinEq1:  Iter=  1 NonCon=     1 RMS=2.22D-03 Max=1.69D-02 NDo=     1
 LinEq1:  Iter=  2 NonCon=     1 RMS=1.20D-03 Max=2.09D-02 NDo=     1
 LinEq1:  Iter=  3 NonCon=     1 RMS=4.69D-04 Max=4.31D-03 NDo=     1
 LinEq1:  Iter=  4 NonCon=     1 RMS=1.81D-04 Max=1.39D-03 NDo=     1
 LinEq1:  Iter=  5 NonCon=     1 RMS=8.91D-05 Max=1.11D-03 NDo=     1
 LinEq1:  Iter=  6 NonCon=     1 RMS=3.91D-05 Max=6.70D-04 NDo=     1
 LinEq1:  Iter=  7 NonCon=     1 RMS=1.97D-05 Max=2.71D-04 NDo=     1
 LinEq1:  Iter=  8 NonCon=     1 RMS=6.69D-06 Max=7.08D-05 NDo=     1
 LinEq1:  Iter=  9 NonCon=     1 RMS=1.14D-06 Max=6.54D-06 NDo=     1
 LinEq1:  Iter= 10 NonCon=     1 RMS=2.93D-07 Max=2.53D-06 NDo=     1
 LinEq1:  Iter= 11 NonCon=     1 RMS=1.40D-07 Max=8.11D-07 NDo=     1
 LinEq1:  Iter= 12 NonCon=     1 RMS=2.97D-08 Max=2.70D-07 NDo=     1
 LinEq1:  Iter= 13 NonCon=     1 RMS=3.91D-09 Max=3.31D-08 NDo=     1
 LinEq1:  Iter= 14 NonCon=     1 RMS=5.36D-10 Max=3.82D-09 NDo=     1
 LinEq1:  Iter= 15 NonCon=     0 RMS=8.41D-11 Max=7.03D-10 NDo=     1
 Linear equations converged to 1.000D-10 1.000D-09 after    15 iterations.
 End of Minotr F.D. properties file   721 does not exist.
 End of Minotr F.D. properties file   722 does not exist.
 End of Minotr F.D. properties file   788 does not exist.
   2 Symmetry operations used in ECPInt.
 ECPInt:  NShTT=     231 NPrTT=     476 LenC2=     232 LenP2D=     457.
 LDataN:  DoStor=T MaxTD1= 3 Len=   28
 Calling FoFJK, ICntrl=  10002127 FMM=F ISym2X=1 I1Cent= 0 IOpClX= 0 NMat=1 NMatS=1 NMatT=0.
 ***** Axes restored to original set *****
 -------------------------------------------------------------------
 Center     Atomic                   Forces (Hartrees/Bohr)
 Number     Number              X              Y              Z
 -------------------------------------------------------------------
      1        6          -0.001682746   -0.001617248    0.000000000
      2        7           0.000301580    0.006026348    0.000000000
      3        7          -0.001503228   -0.010605176    0.000000000
      4        7          -0.000007483    0.005983754    0.000000000
      5        7           0.003276547   -0.000770228    0.000000000
      6        1          -0.000038780    0.000227599    0.000000000
      7        1          -0.000345890    0.000754951    0.000000000
 -------------------------------------------------------------------
 Cartesian Forces:  Max     0.010605176 RMS     0.003120300
 -----------------------------------------------------------------------------------------------
                       Internal Coordinate Forces (Hartree/Bohr or radian)
  Cent   Atom   N1       Length/X         N2         Alpha/Y        N3         Beta/Z          J
 -----------------------------------------------------------------------------------------------
         X 
         X        1   0.000000(     1)
      1  C        1  -0.001883(     2)      2   0.000000(     9)
      2  N        1  -0.006353(     3)      2   0.000000(    10)      3  -0.005133(    16)     0
      3  N        1   0.008729(     4)      2   0.000000(    11)      3  -0.017390(    17)     0
      4  N        1   0.001340(     5)      2   0.000000(    12)      3   0.013938(    18)     0
      5  N        1  -0.000641(     6)      2   0.000000(    13)      3   0.006110(    19)     0
      6  H        3  -0.000004(     7)      4   0.000472(    14)      5   0.000000(    20)     0
      7  H        4  -0.000830(     8)      5  -0.000045(    15)      6   0.000000(    21)     0
 -----------------------------------------------------------------------------------------------
 Internal  Forces:  Max     0.017390473 RMS     0.005705528

 GradGradGradGradGradGradGradGradGradGradGradGradGradGradGradGradGradGrad
 Berny optimization.
 Search for a local minimum.
 Step number   4 out of a maximum of   22
 All quantities printed in internal units (Hartrees-Bohrs-Radians)
 Update second derivatives using D2CorN and points    1    2    3    4
 DE= -1.05D-03 DEPred=-1.19D-03 R= 8.80D-01
 TightC=F SS=  1.41D+00  RLast= 1.05D-01 DXNew= 1.0608D+00 3.1643D-01
 Trust test= 8.80D-01 RLast= 1.05D-01 DXMaxT set to 6.31D-01
 The second derivative matrix:
                          rn1       rn2       rn3       rn4       rch
           rn1          0.71376
           rn2         -0.05915   0.58342
           rn3          0.01460  -0.05584   0.47345
           rn4          0.03434  -0.04511   0.08559   0.61499
           rch         -0.00248  -0.00421  -0.00584  -0.00526   0.37523
           rnh          0.00198  -0.01291  -0.01148  -0.00759  -0.00034
           an1          0.03751  -0.67357   0.09871  -0.07354   0.00663
           an2          0.79381  -0.07912  -0.54071   0.09017   0.01882
           an3         -0.10375   0.87194  -0.08688  -0.61508  -0.01665
           an4          0.01499  -0.05836   0.62663  -0.10792  -0.00442
           ach          0.03262   0.00686  -0.00629   0.04536   0.00022
           anh         -0.08823   0.04965   0.01395   0.01036  -0.00051
                          rnh       an1       an2       an3       an4
           rnh          0.48671
           an1          0.00774   4.53431
           an2          0.02564  -2.68766   5.96610
           an3         -0.02488  -0.04703  -3.21662   4.55051
           an4         -0.00719  -0.13468  -0.10629  -1.10919   2.61124
           ach         -0.00120  -0.10506   0.00027  -0.00099   0.07868
           anh          0.00122   0.03035  -0.11251   0.02229  -0.00189
                          ach       anh
           ach          0.32156
           anh         -0.00146   0.32185
 ITU=  1  1  1  0
     Eigenvalues ---   -0.00031   0.16327   0.28758   0.32755   0.37487
     Eigenvalues ---    0.40920   0.48643   0.66574   1.20864   2.95205
     Eigenvalues ---    5.06398   9.61412
 RFO step:  Lambda=-1.14649092D-03 EMin=-3.08175433D-04
 Quartic linear search produced a step of -0.07050.
 Maximum step size (   0.631) exceeded in Quadratic search.
    -- Step size scaled by   0.631
 Variable       Old X    -DE/DX   Delta X   Delta X   Delta X     New X
                                 (Linear)    (Quad)   (Total)
   rn1        2.46406  -0.00635  -0.00467   0.27796   0.27330   2.73736
   rn2        2.81487   0.00873   0.00274   0.24628   0.24902   3.06389
   rn3        2.39005   0.00134   0.00217  -0.07395  -0.07178   2.31827
   rn4        1.84917  -0.00064   0.00075  -0.27475  -0.27401   1.57516
   rch        2.04675   0.00000   0.00030  -0.00003   0.00027   2.04702
   rnh        1.92065  -0.00083   0.00013  -0.00298  -0.00285   1.91780
   an1        1.27114  -0.00513   0.00238  -0.12592  -0.12354   1.14760
   an2        2.32755  -0.01739   0.00301  -0.25267  -0.24967   2.07788
   an3        3.36620   0.01394   0.00128  -0.28804  -0.28676   3.07944
   an4        4.75168   0.00611   0.00038  -0.12720  -0.12683   4.62485
   ach        2.18066   0.00047   0.00138  -0.00616  -0.00478   2.17588
   anh        2.08718  -0.00005  -0.00151  -0.00683  -0.00834   2.07884
         Item               Value     Threshold  Converged?
 Maximum Force            0.017390     0.000450     NO 
 RMS     Force            0.007528     0.000300     NO 
 Maximum Displacement     0.286763     0.001800     NO 
 RMS     Displacement     0.180958     0.001200     NO 
 Predicted change in Energy=-7.371514D-04
 GradGradGradGradGradGradGradGradGradGradGradGradGradGradGradGradGradGrad

 ---------------------------------------------------------------------------------------------------
                            Z-MATRIX (ANGSTROMS AND DEGREES)
   CD    Cent   Atom    N1       Length/X        N2       Alpha/Y        N3        Beta/Z          J
 ---------------------------------------------------------------------------------------------------
      1         X 
      2         X        1   1.000000(     1)
      3      1  C        1   1.000000(     2)      2   90.000(     9)
      4      2  N        1   1.448547(     3)      2   90.000(    10)      3   65.753(    16)      0
      5      3  N        1   1.621343(     4)      2   90.000(    11)      3  119.054(    17)      0
      6      4  N        1   1.226774(     5)      2   90.000(    12)      3  176.439(    18)      0
      7      5  N        1   0.833538(     6)      2   90.000(    13)      3  264.984(    19)      0
      8      6  H        3   1.083237(     7)      4  124.669(    14)      5  180.000(    20)      0
      9      7  H        4   1.014856(     8)      5  119.109(    15)      6  180.000(    21)      0
 ---------------------------------------------------------------------------------------------------
                         Z-Matrix orientation:                         
 ---------------------------------------------------------------------
 Center     Atomic      Atomic             Coordinates (Angstroms)
 Number     Number       Type             X           Y           Z
 ---------------------------------------------------------------------
      1         -1           0        0.000000    0.000000    0.000000
      2         -1           0        0.000000    0.000000    1.000000
      3          6           0        1.000000    0.000000    0.000000
      4          7           0        0.594886   -1.320757    0.000000
      5          7           0       -0.787378   -1.417317    0.000000
      6          7           0       -1.224405   -0.076200    0.000000
      7          7           0       -0.072876    0.830347    0.000000
      8          1           0        2.032436    0.327837    0.000000
      9          1           0        1.149174   -2.170874    0.000000
 ---------------------------------------------------------------------
                    Distance matrix (angstroms):
                    1          2          3          4          5
     1  X    0.000000
     2  X    1.000000   0.000000
     3  C    1.000000   1.414214   0.000000
     4  N    1.448547   1.760196   1.381491   0.000000
     5  N    1.621343   1.904928   2.281120   1.385632   0.000000
     6  N    1.226774   1.582711   2.225709   2.204255   1.410527
     7  N    0.833538   1.301840   1.356664   2.252366   2.358496
     8  H    2.058707   2.288727   1.083237   2.187330   3.316159
     9  H    2.456276   2.652036   2.175993   1.014856   2.077998
                    6          7          8          9
     6  N    0.000000
     7  N    1.465553   0.000000
     8  H    3.281807   2.164452   0.000000
     9  H    3.165680   3.240483   2.650228   0.000000
 Stoichiometry    CH2N4
 Framework group  CS[SG(CH2N4)]
 Deg. of freedom    11
 Full point group                 CS      NOp   2
 Largest Abelian subgroup         CS      NOp   2
 Largest concise Abelian subgroup C1      NOp   1
                         Standard orientation:                         
 ---------------------------------------------------------------------
 Center     Atomic      Atomic             Coordinates (Angstroms)
 Number     Number       Type             X           Y           Z
 ---------------------------------------------------------------------
      1          6           0        1.096217    0.244349    0.000000
      2          7           0        0.000000    1.085077    0.000000
      3          7           0       -1.181877    0.361791    0.000000
      4          7           0       -0.759773   -0.984097    0.000000
      5          7           0        0.704092   -1.054410    0.000000
      6          1           0        2.127337    0.576304    0.000000
      7          1           0       -0.041736    2.099075    0.000000
 ---------------------------------------------------------------------
 Rotational constants (GHZ):      9.8113656      9.2158451      4.7521430
 Standard basis: CEP-121G (6D, 10F)
 There are    51 symmetry adapted cartesian basis functions of A'  symmetry.
 There are    15 symmetry adapted cartesian basis functions of A"  symmetry.
 There are    51 symmetry adapted basis functions of A'  symmetry.
 There are    15 symmetry adapted basis functions of A"  symmetry.
    66 basis functions,    90 primitive gaussians,    66 cartesian basis functions
    13 alpha electrons       13 beta electrons
       nuclear repulsion energy        82.9904544668 Hartrees.
 NAtoms=    7 NActive=    7 NUniq=    7 SFac= 1.00D+00 NAtFMM=   60 NAOKFM=F Big=F
 Integral buffers will be    131072 words long.
 Raffenetti 1 integral format.
 Two-electron integral symmetry is turned on.
 One-electron integrals computed using PRISM.
   1 Symmetry operations used in ECPInt.
 ECPInt:  NShTT=     231 NPrTT=     476 LenC2=     231 LenP2D=     456.
 LDataN:  DoStor=T MaxTD1= 2 Len=   12
 NBasis=    66 RedAO= T EigKep=  5.30D-03  NBF=    51    15
 NBsUse=    66 1.00D-06 EigRej= -1.00D+00 NBFU=    51    15
 Initial guess from the checkpoint file:  "/tmp/rdj3/g09-26531/Gau-30514.chk"
 B after Tr=     0.000000    0.000000    0.000000
         Rot=    0.999987    0.000000    0.000000    0.005171 Ang=   0.59 deg.
 Initial guess orbital symmetries:
       Occupied  (A') (A') (A') (A') (A') (A') (A') (A") (A') (A')
                 (A') (A") (A")
       Virtual   (A') (A') (A') (A') (A') (A') (A') (A') (A') (A')
                 (A') (A') (A') (A') (A') (A') (A') (A') (A') (A')
                 (A') (A') (A') (A') (A') (A') (A') (A') (A') (A')
[...]
   XY=              2.2166   XZ=              0.0000   YZ=              0.0000
 Octapole moment (field-independent basis, Debye-Ang**2):
  XXX=             13.9304  YYY=             26.5700  ZZZ=              0.0000  XYY=             -0.4089
  XXY=              5.9774  XXZ=              0.0000  XZZ=             -0.7599  YZZ=              0.6254
  YYZ=              0.0000  XYZ=              0.0000
 Hexadecapole moment (field-independent basis, Debye-Ang**3):
 XXXX=           -165.5634 YYYY=           -141.0887 ZZZZ=            -29.5219 XXXY=              9.1466
 XXXZ=              0.0000 YYYX=             -0.2263 YYYZ=              0.0000 ZZZX=              0.0000
 ZZZY=              0.0000 XXYY=            -62.8458 XXZZ=            -35.2318 YYZZ=            -33.3520
 XXYZ=              0.0000 YYXZ=              0.0000 ZZXY=             -0.0907
 N-N= 8.277032030062D+01 E-N=-2.692018866617D+02  KE= 3.426257708707D+01
 Symmetry A'   KE= 2.494931464280D+01
 Symmetry A"   KE= 9.313262444274D+00
  Exact polarizability:  43.228   1.846  41.288   0.000   0.000  19.313
 Approx polarizability:  43.605  -0.602  46.523   0.000   0.000  16.715
   2 Symmetry operations used in ECPInt.
 ECPInt:  NShTT=     231 NPrTT=     476 LenC2=     232 LenP2D=     457.
 LDataN:  DoStor=T MaxTD1= 4 Len=   56
 Calling FoFJK, ICntrl=  10100127 FMM=F ISym2X=1 I1Cent= 0 IOpClX= 0 NMat=1 NMatS=1 NMatT=0.
 Full mass-weighted force constant matrix:
 Low frequencies ---   -5.7406   -0.0001    0.0000    0.0001    1.7850    6.2101
 Low frequencies ---  619.5819  658.9183  713.2265
 Diagonal vibrational polarizability:
        1.5800800       1.1433134       8.9616251
 Harmonic frequencies (cm**-1), IR intensities (KM/Mole), Raman scattering
 activities (A**4/AMU), depolarization ratios for plane and unpolarized
 incident light, reduced masses (AMU), force constants (mDyne/A),
 and normal coordinates:
                      1                      2                      3
                     A"                     A"                     A"
 Frequencies --    619.5819               658.9183               713.2265
 Red. masses --      6.7009                 8.3673                 1.1691
 Frc consts  --      1.5156                 2.1404                 0.3504
 IR Inten    --     12.8272                 0.0003                17.9462
  Atom  AN      X      Y      Z        X      Y      Z        X      Y      Z
     1   6     0.00   0.00  -0.34     0.00   0.00   0.25     0.00   0.00  -0.09
     2   7     0.00   0.00   0.44     0.00   0.00   0.05     0.00   0.00   0.06
     3   7     0.00   0.00  -0.34     0.00   0.00  -0.29     0.00   0.00   0.04
     4   7     0.00   0.00   0.10     0.00   0.00   0.47     0.00   0.00  -0.03
     5   7     0.00   0.00   0.15     0.00   0.00  -0.46     0.00   0.00   0.01
     6   1     0.00   0.00  -0.74     0.00   0.00   0.57     0.00   0.00   0.69
     7   1     0.00   0.00  -0.06     0.00   0.00  -0.32     0.00   0.00  -0.72
                      4                      5                      6
                     A"                     A'                     A'
 Frequencies --    749.3531               816.3596               884.5720
 Red. masses --      1.2291                 7.9978                 7.9822
 Frc consts  --      0.4066                 3.1404                 3.6799
 IR Inten    --    148.4198                 7.6602                14.5470
  Atom  AN      X      Y      Z        X      Y      Z        X      Y      Z
     1   6     0.00   0.00   0.12    -0.03   0.05   0.00    -0.10  -0.06   0.00
     2   7     0.00   0.00   0.03     0.10   0.10   0.00    -0.06   0.01   0.00
     3   7     0.00   0.00   0.03     0.08  -0.09   0.00    -0.26   0.49   0.00
     4   7     0.00   0.00  -0.04     0.38  -0.18   0.00     0.28  -0.31   0.00
     5   7     0.00   0.00  -0.02    -0.54   0.17   0.00     0.09  -0.16   0.00
     6   1     0.00   0.00  -0.66     0.18  -0.65   0.00    -0.20   0.24   0.00
     7   1     0.00   0.00  -0.73    -0.05   0.09   0.00     0.60   0.06   0.00
                      7                      8                      9
                     A'                     A'                     A'
 Frequencies --    963.2911               972.4646              1005.8853
 Red. masses --      6.4944                 8.1045                 6.1542
 Frc consts  --      3.5506                 4.5157                 3.6688
 IR Inten    --     12.9432                 3.2942                 6.0625
  Atom  AN      X      Y      Z        X      Y      Z        X      Y      Z
     1   6     0.07   0.06   0.00    -0.41  -0.14   0.00    -0.09   0.14   0.00
     2   7     0.21   0.37   0.00    -0.09   0.40   0.00    -0.09  -0.03   0.00
     3   7    -0.14  -0.10   0.00     0.20  -0.11   0.00     0.46   0.19   0.00
     4   7    -0.26  -0.35   0.00     0.16   0.16   0.00    -0.18  -0.28   0.00
     5   7     0.11   0.03   0.00     0.10  -0.33   0.00    -0.06  -0.02   0.00
     6   1     0.29  -0.57   0.00    -0.37  -0.34   0.00    -0.21   0.48   0.00
     7   1     0.09   0.40   0.00    -0.03   0.41   0.00    -0.57  -0.07   0.00
                     10                     11                     12
                     A'                     A'                     A'
 Frequencies --   1137.5765              1167.4060              1372.3441
 Red. masses --      1.7592                 2.8153                 3.6273
 Frc consts  --      1.3413                 2.2606                 4.0249
 IR Inten    --     12.0272                 6.4442                 8.9120
  Atom  AN      X      Y      Z        X      Y      Z        X      Y      Z
     1   6     0.16  -0.06   0.00    -0.21  -0.12   0.00    -0.11   0.38   0.00
     2   7    -0.16   0.04   0.00    -0.01  -0.10   0.00     0.10  -0.14   0.00
     3   7     0.00   0.07   0.00     0.06   0.04   0.00    -0.04   0.02   0.00
     4   7     0.02   0.01   0.00    -0.02  -0.02   0.00     0.00   0.04   0.00
     5   7     0.02  -0.03   0.00     0.13   0.24   0.00     0.02  -0.19   0.00
     6   1     0.36  -0.62   0.00     0.00  -0.87   0.00     0.28  -0.81   0.00
     7   1    -0.65   0.02   0.00     0.29  -0.10   0.00    -0.08  -0.17   0.00
                     13                     14                     15
                     A'                     A'                     A'
 Frequencies --   1447.2805              3264.0432              3636.5035
 Red. masses --      1.5828                 1.1027                 1.0856
 Frc consts  --      1.9534                 6.9220                 8.4580
 IR Inten    --     45.2133                 1.3798                95.4886
  Atom  AN      X      Y      Z        X      Y      Z        X      Y      Z
     1   6    -0.09  -0.06   0.00     0.09   0.03   0.00     0.01   0.00   0.00
     2   7     0.16  -0.02   0.00     0.00   0.00   0.00    -0.01   0.08   0.00
     3   7    -0.06   0.03   0.00     0.00   0.00   0.00     0.00   0.00   0.00
     4   7     0.03   0.01   0.00     0.00   0.00   0.00     0.00   0.00   0.00
     5   7     0.03   0.03   0.00     0.00   0.00   0.00     0.00   0.00   0.00
     6   1    -0.18   0.14   0.00    -0.95  -0.31   0.00    -0.02   0.00   0.00
     7   1    -0.94  -0.09   0.00     0.01   0.03   0.00     0.06  -0.99   0.00

 -------------------
 - Thermochemistry -
 -------------------
 Temperature   298.150 Kelvin.  Pressure   1.00000 Atm.
 Atom     1 has atomic number  6 and mass  12.00000
 Atom     2 has atomic number  7 and mass  14.00307
 Atom     3 has atomic number  7 and mass  14.00307
 Atom     4 has atomic number  7 and mass  14.00307
 Atom     5 has atomic number  7 and mass  14.00307
 Atom     6 has atomic number  1 and mass   1.00783
 Atom     7 has atomic number  1 and mass   1.00783
 Molecular mass:    70.02795 amu.
 Principal axes and moments of inertia in atomic units:
                           1         2         3
     Eigenvalues --   188.61314 193.00403 381.61717
           X            0.91846   0.39550   0.00000
           Y           -0.39550   0.91846   0.00000
           Z            0.00000   0.00000   1.00000
 This molecule is an asymmetric top.
 Rotational symmetry number  1.
 Rotational temperatures (Kelvin)      0.45921     0.44877     0.22697
 Rotational constants (GHZ):           9.56848     9.35080     4.72919
 Zero-point vibrational energy     116090.4 (Joules/Mol)
                                   27.74628 (Kcal/Mol)
 Warning -- explicit consideration of   1 degrees of freedom as
           vibrations may cause significant error
 Vibrational temperatures:    891.44   948.04  1026.17  1078.15  1174.56
          (Kelvin)           1272.70  1385.96  1399.16  1447.24  1636.72
                             1679.63  1974.49  2082.31  4696.22  5232.11
 
 Zero-point correction=                           0.044217 (Hartree/Particle)
 Thermal correction to Energy=                    0.047836
 Thermal correction to Enthalpy=                  0.048780
 Thermal correction to Gibbs Free Energy=         0.017943
 Sum of electronic and zero-point Energies=            -45.657992
 Sum of electronic and thermal Energies=               -45.654372
 Sum of electronic and thermal Enthalpies=             -45.653428
 Sum of electronic and thermal Free Energies=          -45.684265
 
                     E (Thermal)             CV                S
                      KCal/Mol        Cal/Mol-Kelvin    Cal/Mol-Kelvin
 Total                   30.018             12.431             64.903
 Electronic               0.000              0.000              0.000
 Translational            0.889              2.981             38.656
 Rotational               0.889              2.981             24.145
 Vibrational             28.240              6.469              2.102
 Vibration     1          0.980              0.991              0.417
                       Q            Log10(Q)             Ln(Q)
 Total Bot       0.558268D-08         -8.253157        -19.003597
 Total V=0       0.121614D+13         12.084984         27.826703
 Vib (Bot)       0.574448D-20        -20.240749        -46.606047
 Vib (Bot)    1  0.236135D+00         -0.626839         -1.443349
 Vib (V=0)       0.125139D+01          0.097392          0.224253
 Vib (V=0)    1  0.105296D+01          0.022410          0.051601
 Electronic      0.100000D+01          0.000000          0.000000
 Translational   0.230336D+08          7.362362         16.952466
 Rotational      0.421919D+05          4.625230         10.649985
 ***** Axes restored to original set *****
 -------------------------------------------------------------------
 Center     Atomic                   Forces (Hartrees/Bohr)
 Number     Number              X              Y              Z
 -------------------------------------------------------------------
      1        6           0.000060796   -0.000072729    0.000000000
      2        7          -0.000005748    0.000023146    0.000000000
      3        7           0.000028691   -0.000007882    0.000000000
      4        7           0.000021887    0.000073882    0.000000000
      5        7          -0.000110485   -0.000023280    0.000000000
      6        1           0.000000671    0.000004153    0.000000000
      7        1           0.000004189    0.000002710    0.000000000
 -------------------------------------------------------------------
 Cartesian Forces:  Max     0.000110485 RMS     0.000037269
 -----------------------------------------------------------------------------------------------
                       Internal Coordinate Forces (Hartree/Bohr or radian)
  Cent   Atom   N1       Length/X         N2         Alpha/Y        N3         Beta/Z          J
 -----------------------------------------------------------------------------------------------
         X 
         X        1   0.000000(     1)
      1  C        1   0.000059(     2)      2   0.000000(     9)
      2  N        1  -0.000026(     3)      2   0.000000(    10)      3  -0.000029(    16)     0
      3  N        1  -0.000008(     4)      2   0.000000(    11)      3  -0.000088(    17)     0
      4  N        1  -0.000016(     5)      2   0.000000(    12)      3   0.000179(    18)     0
      5  N        1  -0.000019(     6)      2   0.000000(    13)      3  -0.000189(    19)     0
      6  H        3   0.000002(     7)      4   0.000008(    14)      5   0.000000(    20)     0
      7  H        4   0.000000(     8)      5   0.000010(    15)      6   0.000000(    21)     0
 -----------------------------------------------------------------------------------------------
 Internal  Forces:  Max     0.000188577 RMS     0.000062107

 GradGradGradGradGradGradGradGradGradGradGradGradGradGradGradGradGradGrad
 Berny optimization.
 Search for a local minimum.
 Step number   1 out of a maximum of    2
 All quantities printed in internal units (Hartrees-Bohrs-Radians)
 Second derivative matrix not updated -- analytic derivatives used.
 The second derivative matrix:
                          rn1       rn2       rn3       rn4       rch
           rn1          0.51746
           rn2         -0.07500   0.40503
           rn3          0.04986  -0.07302   0.39379
           rn4          0.09553   0.06760  -0.04917   0.43695
           rch         -0.00598  -0.00299  -0.00104  -0.00777   0.37203
           rnh          0.00084  -0.01234  -0.00169  -0.00163   0.00052
           an1          0.14364  -0.32764  -0.15386   0.05849   0.00101
           an2          0.19888   0.14442  -0.20822  -0.07746   0.00623
           an3          0.17348   0.17379   0.12002  -0.17507  -0.00300
           an4         -0.07730   0.09519   0.18591  -0.16085  -0.00405
           ach          0.03596   0.01328  -0.01233   0.02336   0.00124
           anh         -0.06205   0.02240   0.02707  -0.01937  -0.00150
                          rnh       an1       an2       an3       an4
           rnh          0.46813
           an1         -0.00296   2.74527
           an2         -0.00201  -1.33938   2.57007
           an3         -0.00443  -0.21345  -0.92263   1.43065
           an4         -0.00099  -0.13089  -0.13960  -0.24412   0.96854
           ach          0.00034   0.01000  -0.02164  -0.01194   0.08182
           anh          0.00048  -0.05996  -0.00558   0.00826  -0.00556
                          ach       anh
           ach          0.20636
           anh          0.00262   0.23072
 ITU=  0
     Eigenvalues ---    0.00000   0.15001   0.21091   0.24880   0.37137
     Eigenvalues ---    0.46450   0.49647   0.52638   0.69459   1.24750
     Eigenvalues ---    2.21518   4.11929
 Angle between quadratic step and forces=  86.92 degrees.
 Linear search not attempted -- first point.
 Variable       Old X    -DE/DX   Delta X   Delta X   Delta X     New X
                                 (Linear)    (Quad)   (Total)
   rn1        2.60145  -0.00003   0.00000  -0.00194  -0.00194   2.59951
   rn2        2.95116  -0.00001   0.00000  -0.00160  -0.00160   2.94956
   rn3        2.36715  -0.00002   0.00000   0.00019   0.00019   2.36735
   rn4        1.69403  -0.00002   0.00000   0.00190   0.00190   1.69593
   rch        2.04688   0.00000   0.00000   0.00000   0.00000   2.04687
   rnh        1.91937   0.00000   0.00000   0.00000   0.00000   1.91936
   an1        1.20749  -0.00003   0.00000   0.00076   0.00076   1.20825
   an2        2.20550  -0.00009   0.00000   0.00142   0.00142   2.20692
   an3        3.22438   0.00018   0.00000   0.00195   0.00195   3.22633
   an4        4.67287  -0.00019   0.00000   0.00087   0.00087   4.67374
   ach        2.18193   0.00001   0.00000   0.00016   0.00016   2.18209
   anh        2.08216   0.00001   0.00000  -0.00001  -0.00001   2.08215
         Item               Value     Threshold  Converged?
 Maximum Force            0.000189     0.000450     YES
 RMS     Force            0.000080     0.000300     YES
 Maximum Displacement     0.001951     0.001800     NO 
 RMS     Displacement     0.001196     0.001200     YES
 Predicted change in Energy=-3.094476D-08
 GradGradGradGradGradGradGradGradGradGradGradGradGradGradGradGradGradGrad

 1\1\GINC-N355\Freq\RMP2-FC\CEP-121G\C1H2N4\RDJ3\25-Nov-2013\1\\#N Geom
 =AllCheck Guess=TCheck SCRF=Check GenChk RMP2(FC)/CEP-121G Freq\\1H-te
 trazole CH2N4 casno=288948 state=1 config=1 method=3 basis=13\\0,1\X\X
 ,1,1.\C,1,1.,2,90.\N,1,rn1,2,90.,3,an1,0\N,1,rn2,2,90.,3,an2,0\N,1,rn3
 ,2,90.,3,an3,0\N,1,rn4,2,90.,3,an4,0\H,3,rch,4,ach,5,180.,0\H,4,rnh,5,
 anh,6,180.,0\\rn1=1.37662744\rn2=1.56168876\rn3=1.25264404\rn4=0.89644
 33\rch=1.08315974\rnh=1.01568446\an1=69.18415473\an2=126.36571606\an3=
 184.74330999\an4=267.73546638\ach=125.01526364\anh=119.29902499\\Versi
 on=EM64L-G09RevD.01\State=1-A'\HF=-45.1295842\MP2=-45.7022081\RMSD=8.0
 94e-10\RMSF=3.727e-05\ZeroPoint=0.0442165\Thermal=0.0478361\Dipole=2.0
 333101,-1.2455147,0.\DipoleDeriv=0.0960627,0.0399328,0.,-0.0709128,0.5
 325982,0.,0.,0.,0.0169879,-0.432461,0.0526057,0.,0.2309205,-0.4671712,
 0.,0.,0.,-0.192779,0.324057,0.0284871,0.,-0.2424004,-0.1678055,0.,0.,0
 .,-0.069866,0.1647927,-0.0653067,0.,0.21165,-0.0245627,0.,0.,0.,-0.197
 0938,-0.4255308,-0.0218777,0.,-0.0987826,-0.2634827,0.,0.,0.,-0.175715
 ,0.0516848,-0.0031316,0.,-0.0024091,0.1243466,0.,0.,0.,0.2189324,0.221
 3945,-0.0307097,0.,-0.0280657,0.2660774,0.,0.,0.,0.3995335\Polar=44.34
 23856,0.0316092,40.1728138,0.,0.,19.3126493\Quadrupole=1.0384007,-1.01
 48705,-0.0235302,-1.6204692,0.,0.\PG=CS [SG(C1H2N4)]\NImag=0\\0.856045
 15,0.07011245,0.54622402,0.,0.,0.10853208,-0.14081883,-0.07121813,0.,0
 .55733903,-0.06896336,-0.27081246,0.,-0.14932436,0.90336819,0.,0.,-0.0
 5186832,0.,0.,0.09748226,-0.07187445,-0.05030554,0.,-0.20295623,-0.053
 94436,0.,0.38029932,-0.01141183,-0.02312024,0.,0.00644823,-0.10329513,
 0.,0.06313504,0.33756517,0.,0.,0.01772074,0.,0.,-0.05839824,0.,0.,0.09
 075263,-0.10133489,0.02300524,0.,-0.06038991,0.04040722,0.,-0.09477644
 ,-0.03824263,0.,0.38448143,-0.02674800,0.01281956,0.,0.06470223,-0.064
 26836,0.,0.07092533,-0.13342047,0.,-0.06145252,0.26463222,0.,0.,0.0177
 4205,0.,0.,0.01764852,0.,0.,-0.07485865,0.,0.,0.09721802,-0.20591841,0
 .12041114,0.,-0.00437273,0.06478620,0.,-0.01009559,-0.05993186,0.,-0.1
 1600990,-0.04848056,0.,0.34516924,0.08576753,-0.19579911,0.,0.01429299
 ,-0.08093885,0.,-0.01950820,-0.07966642,0.,0.03832733,-0.07974821,0.,-
 0.09864391,0.42929092,0.,0.,-0.06517070,0.,0.,0.01716371,0.,0.,0.02842
 514,0.,0.,-0.07327880,0.,0.,0.09164681,-0.35139244,-0.07339565,0.,0.00
 498653,0.00763452,0.,0.00028024,0.00460498,0.,-0.00043007,-0.00062813,
 0.,-0.00737365,-0.01050158,0.,0.35451196,-0.06893336,-0.06597346,0.,-0
 .03170837,-0.00180308,0.,-0.00091112,-0.00596686,0.,0.00585761,-0.0031
 8597,0.,0.02201850,0.01018651,0.,0.07313120,0.06677115,0.,0.,-0.019200
 82,0.,0.,-0.00546411,0.,0.,0.00547854,0.,0.,0.00739604,0.,0.,-0.005757
 66,0.,0.,0.01748808,0.01529388,-0.01860951,0.,-0.15378784,0.15940413,0
 .,-0.00087684,0.03539808,0.,-0.01154023,0.00168166,0.,-0.00139895,-0.0
 0973416,0.,-0.00058256,0.00054554,0.,0.15289254,0.02017658,-0.00333831
 ,0.,0.16680741,-0.38225031,0.,-0.00939115,0.00790395,0.,-0.00790226,0.
 00317122,0.,-0.00015951,-0.00332484,0.,-0.00084533,-0.00002828,0.,-0.1
 6868574,0.37786656,0.,0.,-0.00775502,0.,0.,-0.01656382,0.,0.,-0.009120
 15,0.,0.,0.00813283,0.,0.,0.00697150,0.,0.,0.00005994,0.,0.,0.01827473
 \\-0.00006080,0.00007273,0.,0.00000575,-0.00002315,0.,-0.00002869,0.00
 000788,0.,-0.00002189,-0.00007388,0.,0.00011048,0.00002328,0.,-0.00000
 067,-0.00000415,0.,-0.00000419,-0.00000271,0.\\\@


 IF YOU WANT TO LEARN FROM THE THEORETICAL PHYSICISTS ABOUT THE
 METHODS WHICH THEY USE, I ADVISE YOU TO FOLLOW THIS PRINCIPLE VERY STRICTLY:
 DON'T LISTEN TO THEIR WORDS; PAY ATTENTION, INSTEAD, TO THEIR ACTIONS.
 -- A.EINSTEIN, 1934
 Job cpu time:       0 days  0 hours  2 minutes  0.8 seconds.
 File lengths (MBytes):  RWF=    147 Int=      0 D2E=      0 Chk=      2 Scr=      1
 Normal termination of Gaussian 09 at Mon Nov 25 16:58:23 2013.
