 Entering Gaussian System, Link 0=g09
 Initial command:
 /usr/local/gaussian/g09.d01.em64t.legacy.linda/g09/l1.exe "/tmp/rdj3/g09-26531/Gau-1378.inp" -scrdir="/tmp/rdj3/g09-26531/"
 Entering Link 1 = /usr/local/gaussian/g09.d01.em64t.legacy.linda/g09/l1.exe PID=      1379.
  
 Copyright (c) 1988,1990,1992,1993,1995,1998,2003,2009,2013,
            Gaussian, Inc.  All Rights Reserved.
  
 This is part of the Gaussian(R) 09 program.  It is based on
 the Gaussian(R) 03 system (copyright 2003, Gaussian, Inc.),
 the Gaussian(R) 98 system (copyright 1998, Gaussian, Inc.),
 the Gaussian(R) 94 system (copyright 1995, Gaussian, Inc.),
 the Gaussian 92(TM) system (copyright 1992, Gaussian, Inc.),
 the Gaussian 90(TM) system (copyright 1990, Gaussian, Inc.),
 the Gaussian 88(TM) system (copyright 1988, Gaussian, Inc.),
 the Gaussian 86(TM) system (copyright 1986, Carnegie Mellon
 University), and the Gaussian 82(TM) system (copyright 1983,
 Carnegie Mellon University). Gaussian is a federally registered
 trademark of Gaussian, Inc.
  
 This software contains proprietary and confidential information,
 including trade secrets, belonging to Gaussian, Inc.
  
 This software is provided under written license and may be
 used, copied, transmitted, or stored only in accord with that
 written license.
  
 The following legend is applicable only to US Government
 contracts under FAR:
  
                    RESTRICTED RIGHTS LEGEND
  
 Use, reproduction and disclosure by the US Government is
 subject to restrictions as set forth in subparagraphs (a)
 and (c) of the Commercial Computer Software - Restricted
 Rights clause in FAR 52.227-19.
  
 Gaussian, Inc.
 340 Quinnipiac St., Bldg. 40, Wallingford CT 06492
  
  
 ---------------------------------------------------------------
 Warning -- This program may not be used in any manner that
 competes with the business of Gaussian, Inc. or will provide
 assistance to any competitor of Gaussian, Inc.  The licensee
 of this program is prohibited from giving any competitor of
 Gaussian, Inc. access to this program.  By using this program,
 the user acknowledges that Gaussian, Inc. is engaged in the
 business of creating and licensing software in the field of
 computational chemistry and represents and warrants to the
 licensee that it is not a competitor of Gaussian, Inc. and that
 it will not use this program in any manner prohibited above.
 ---------------------------------------------------------------
  

 Cite this work as:
 Gaussian 09, Revision D.01,
 M. J. Frisch, G. W. Trucks, H. B. Schlegel, G. E. Scuseria, 
 M. A. Robb, J. R. Cheeseman, G. Scalmani, V. Barone, B. Mennucci, 
 G. A. Petersson, H. Nakatsuji, M. Caricato, X. Li, H. P. Hratchian, 
 A. F. Izmaylov, J. Bloino, G. Zheng, J. L. Sonnenberg, M. Hada, 
 M. Ehara, K. Toyota, R. Fukuda, J. Hasegawa, M. Ishida, T. Nakajima, 
 Y. Honda, O. Kitao, H. Nakai, T. Vreven, J. A. Montgomery, Jr., 
 J. E. Peralta, F. Ogliaro, M. Bearpark, J. J. Heyd, E. Brothers, 
 K. N. Kudin, V. N. Staroverov, T. Keith, R. Kobayashi, J. Normand, 
 K. Raghavachari, A. Rendell, J. C. Burant, S. S. Iyengar, J. Tomasi, 
 M. Cossi, N. Rega, J. M. Millam, M. Klene, J. E. Knox, J. B. Cross, 
 V. Bakken, C. Adamo, J. Jaramillo, R. Gomperts, R. E. Stratmann, 
 O. Yazyev, A. J. Austin, R. Cammi, C. Pomelli, J. W. Ochterski, 
 R. L. Martin, K. Morokuma, V. G. Zakrzewski, G. A. Voth, 
 P. Salvador, J. J. Dannenberg, S. Dapprich, A. D. Daniels, 
 O. Farkas, J. B. Foresman, J. V. Ortiz, J. Cioslowski, 
 and D. J. Fox, Gaussian, Inc., Wallingford CT, 2013.
 
 ******************************************
 Gaussian 09:  EM64L-G09RevD.01 24-Apr-2013
                26-Nov-2013 
 ******************************************
 %Nproc=8
 Will use up to    8 processors via shared memory.
 %mem=436000000
 ------------------------------------
 #MP2/6-31G opt=z-matrix freq density
 ------------------------------------
 1/10=7,18=40,38=1/1,3;
 2/12=2,17=6,18=5,29=3,40=1/2;
 3/5=1,6=6,11=9,16=1,25=1,30=1,71=1/1,2,3;
 4//1;
 5/5=2,38=5/2;
 8/6=4,10=2/1;
 9/15=2,16=-3/6;
 10/5=1/2;
 6/7=2,8=2,9=2,10=2,22=-1/1;
 7/12=2,29=1/1,2,3,16;
 1/10=7,18=40/3(2);
 2/29=3/2;
 99//99;
 2/29=3/2;
 3/5=1,6=6,11=9,16=1,25=1,30=1,71=1/1,2,3;
 4/5=5,16=3,69=1/1;
 5/5=2,38=5/2;
 8/6=4,10=2/1;
 9/15=2,16=-3/6;
 10/5=1/2;
 7/12=2/1,2,3,16;
 1/18=40/3(-8);
 2/29=3/2;
 6/7=2,8=2,9=2,10=2,22=-1/1;
 99//99;
 -----------------------------------------------------------------
 1H-tetrazole CH2N4 casno=288948 state=1 config=1 method=3 basis=9
 -----------------------------------------------------------------
 Symbolic Z-matrix:
 Charge =  0 Multiplicity = 1
 X
 X                    1     1. 
 C                    1     1.       2     90. 
 N                    1    rn1      2     90.      3    an1      0
 N                    1    rn2      2     90.      3    an2      0
 N                    1    rn3      2     90.      3    an3      0
 N                    1    rn4      2     90.      3    an4      0
 H                    3    rch      4    ach      5     180.     0
 H                    4    rnh      5    anh      6     180.     0
       Variables:
  rn1                   1.2426                   
  rn2                   1.333                    
  rn3                   1.1146                   
  rn4                   0.9264                   
  rch                   1.0678                   
  rnh                   0.9941                   
  an1                  71.8427                   
  an2                 133.7028                   
  an3                 194.4597                   
  an4                 276.0768                   
  ach                 125.0248                   
  anh                 120.7626                   
 

 GradGradGradGradGradGradGradGradGradGradGradGradGradGradGradGradGradGrad
 Berny optimization.
 Initialization pass.
                       ----------------------------
                       !    Initial Parameters    !
                       ! (Angstroms and Degrees)  !
 ----------------------                            ----------------------
 !      Name          Value   Derivative information (Atomic Units)     !
 ------------------------------------------------------------------------
 !       rn1         1.2426   estimate D2E/DX2                          !
 !       rn2         1.333    estimate D2E/DX2                          !
 !       rn3         1.1146   estimate D2E/DX2                          !
 !       rn4         0.9264   estimate D2E/DX2                          !
 !       rch         1.0678   estimate D2E/DX2                          !
 !       rnh         0.9941   estimate D2E/DX2                          !
 !       an1        71.8427   estimate D2E/DX2                          !
 !       an2       133.7028   estimate D2E/DX2                          !
 !       an3       194.4597   estimate D2E/DX2                          !
 !       an4       276.0768   estimate D2E/DX2                          !
 !       ach       125.0248   estimate D2E/DX2                          !
 !       anh       120.7626   estimate D2E/DX2                          !
 ------------------------------------------------------------------------
 Trust Radius=3.00D-01 FncErr=1.00D-07 GrdErr=1.00D-07
 Number of steps in this run=     22 maximum allowed number of steps=    100.
 GradGradGradGradGradGradGradGradGradGradGradGradGradGradGradGradGradGrad

 ---------------------------------------------------------------------------------------------------
                            Z-MATRIX (ANGSTROMS AND DEGREES)
   CD    Cent   Atom    N1       Length/X        N2       Alpha/Y        N3        Beta/Z          J
 ---------------------------------------------------------------------------------------------------
      1         X 
      2         X        1   1.000000(     1)
      3      1  C        1   1.000000(     2)      2   90.000(     9)
      4      2  N        1   1.242600(     3)      2   90.000(    10)      3   71.843(    16)      0
      5      3  N        1   1.333000(     4)      2   90.000(    11)      3  133.703(    17)      0
      6      4  N        1   1.114600(     5)      2   90.000(    12)      3  194.460(    18)      0
      7      5  N        1   0.926400(     6)      2   90.000(    13)      3  276.077(    19)      0
      8      6  H        3   1.067800(     7)      4  125.025(    14)      5  180.000(    20)      0
      9      7  H        4   0.994100(     8)      5  120.763(    15)      6  180.000(    21)      0
 ---------------------------------------------------------------------------------------------------
                         Z-Matrix orientation:                         
 ---------------------------------------------------------------------
 Center     Atomic      Atomic             Coordinates (Angstroms)
 Number     Number       Type             X           Y           Z
 ---------------------------------------------------------------------
      1         -1           0        0.000000    0.000000    0.000000
      2         -1           0        0.000000    0.000000    1.000000
      3          6           0        1.000000    0.000000    0.000000
      4          7           0        0.387228   -1.180724    0.000000
      5          7           0       -0.920993   -0.963670    0.000000
      6          7           0       -1.079293    0.278314    0.000000
      7          7           0        0.098070    0.921194    0.000000
      8          1           0        2.058429    0.141157    0.000000
      9          1           0        0.749017   -2.106652    0.000000
 ---------------------------------------------------------------------
                    Distance matrix (angstroms):
                    1          2          3          4          5
     1  X    0.000000
     2  X    1.000000   0.000000
     3  C    1.000000   1.414214   0.000000
     4  N    1.242600   1.595009   1.330263   0.000000
     5  N    1.333000   1.666400   2.149157   1.326105   0.000000
     6  N    1.114600   1.497442   2.097837   2.068690   1.252032
     7  N    0.926400   1.363164   1.289216   2.121715   2.142710
     8  H    2.063263   2.292827   1.067800   2.130794   3.177672
     9  H    2.235847   2.449288   2.121551   0.994100   2.023695
                    6          7          8          9
     6  N    0.000000
     7  N    1.341447   0.000000
     8  H    3.140719   2.109850   0.000000
     9  H    3.005127   3.097029   2.601385   0.000000
 Stoichiometry    CH2N4
 Framework group  CS[SG(CH2N4)]
 Deg. of freedom    11
 Full point group                 CS      NOp   2
 Largest Abelian subgroup         CS      NOp   2
 Largest concise Abelian subgroup C1      NOp   1
                         Standard orientation:                         
 ---------------------------------------------------------------------
 Center     Atomic      Atomic             Coordinates (Angstroms)
 Number     Number       Type             X           Y           Z
 ---------------------------------------------------------------------
      1          6           0        1.052733    0.225621    0.000000
      2          7           0        0.000000    1.038857    0.000000
      3          7           0       -1.095416    0.291448    0.000000
      4          7           0       -0.716382   -0.901832    0.000000
      5          7           0        0.622191   -0.989579    0.000000
      6          1           0        2.072287    0.542964    0.000000
      7          1           0       -0.061439    2.031056    0.000000
 ---------------------------------------------------------------------
 Rotational constants (GHZ):     10.9201517     10.7345054      5.4132664
 Standard basis: 6-31G (6D, 7F)
 There are    39 symmetry adapted cartesian basis functions of A'  symmetry.
 There are    10 symmetry adapted cartesian basis functions of A"  symmetry.
 There are    39 symmetry adapted basis functions of A'  symmetry.
 There are    10 symmetry adapted basis functions of A"  symmetry.
    49 basis functions,   118 primitive gaussians,    49 cartesian basis functions
    18 alpha electrons       18 beta electrons
       nuclear repulsion energy       169.8308489506 Hartrees.
 NAtoms=    7 NActive=    7 NUniq=    7 SFac= 1.00D+00 NAtFMM=   60 NAOKFM=F Big=F
 Integral buffers will be    131072 words long.
 Raffenetti 1 integral format.
 Two-electron integral symmetry is turned on.
 One-electron integrals computed using PRISM.
 NBasis=    49 RedAO= T EigKep=  6.07D-03  NBF=    39    10
 NBsUse=    49 1.00D-06 EigRej= -1.00D+00 NBFU=    39    10
 ExpMin= 1.61D-01 ExpMax= 4.17D+03 ExpMxC= 6.27D+02 IAcc=1 IRadAn=         1 AccDes= 0.00D+00
 Harris functional with IExCor=  205 and IRadAn=       1 diagonalized for initial guess.
 HarFok:  IExCor=  205 AccDes= 0.00D+00 IRadAn=         1 IDoV= 1 UseB2=F ITyADJ=14
 ICtDFT=  3500011 ScaDFX=  1.000000  1.000000  1.000000  1.000000
 FoFCou: FMM=F IPFlag=           0 FMFlag=      100000 FMFlg1=           0
         NFxFlg=           0 DoJE=T BraDBF=F KetDBF=T FulRan=T
         wScrn=  0.000000 ICntrl=     500 IOpCl=  0 I1Cent=   200000004 NGrid=           0
         NMat0=    1 NMatS0=      1 NMatT0=    0 NMatD0=    1 NMtDS0=    0 NMtDT0=    0
 Petite list used in FoFCou.
 Initial guess orbital symmetries:
       Occupied  (A') (A') (A') (A') (A') (A') (A') (A') (A') (A')
                 (A') (A') (A") (A') (A") (A') (A") (A')
       Virtual   (A") (A") (A') (A') (A') (A') (A') (A') (A') (A")
                 (A') (A') (A') (A') (A") (A') (A') (A") (A') (A")
                 (A") (A') (A') (A') (A') (A') (A') (A') (A') (A')
                 (A')
 The electronic state of the initial guess is 1-A'.
 Keep R1 ints in memory in symmetry-blocked form, NReq=1603297.
 Requested convergence on RMS density matrix=1.00D-08 within 128 cycles.
 Requested convergence on MAX density matrix=1.00D-06.
 Requested convergence on             energy=1.00D-06.
 No special actions if energy rises.
 SCF Done:  E(RHF) =  -256.588556245     A.U. after   15 cycles
            NFock= 15  Conv=0.17D-08     -V/T= 1.9978
 ExpMin= 1.61D-01 ExpMax= 4.17D+03 ExpMxC= 6.27D+02 IAcc=3 IRadAn=         5 AccDes= 0.00D+00
 HarFok:  IExCor=  205 AccDes= 0.00D+00 IRadAn=         5 IDoV=-2 UseB2=F ITyADJ=14
 ICtDFT= 12500011 ScaDFX=  1.000000  1.000000  1.000000  1.000000
 Range of M.O.s used for correlation:     6    49
 NBasis=    49 NAE=    18 NBE=    18 NFC=     5 NFV=     0
 NROrb=     44 NOA=    13 NOB=    13 NVA=    31 NVB=    31
 Fully direct method using O(ONN) memory.
 JobTyp=1 Pass  1:  I=   6 to  18 NPSUse=  8 ParTrn=T ParDer=T DoDerP=T.
 Spin components of T(2) and E(2):
     alpha-alpha T2 =       0.2798526156D-01 E2=     -0.7100615089D-01
     alpha-beta  T2 =       0.1500906748D+00 E2=     -0.3860448901D+00
     beta-beta   T2 =       0.2798526156D-01 E2=     -0.7100615089D-01
 ANorm=    0.1098208176D+01
 E2 =    -0.5280571919D+00 EUMP2 =    -0.25711661343668D+03
          IDoAtm=1111111
          Differentiating once with respect to electric field.
                with respect to dipole field.
          Differentiating once with respect to nuclear coordinates.
 Keep R1 ints in memory in symmetry-blocked form, NReq=1587184.
          There are     1 degrees of freedom in the 1st order CPHF.  IDoFFX=0 NUNeed=     1.
 LinEq1:  Iter=  0 NonCon=     1 RMS=9.32D-03 Max=6.99D-02 NDo=     1
 AX will form     1 AO Fock derivatives at one time.
 LinEq1:  Iter=  1 NonCon=     1 RMS=1.91D-03 Max=1.18D-02 NDo=     1
 LinEq1:  Iter=  2 NonCon=     1 RMS=7.64D-04 Max=1.12D-02 NDo=     1
 LinEq1:  Iter=  3 NonCon=     1 RMS=2.35D-04 Max=1.32D-03 NDo=     1
 LinEq1:  Iter=  4 NonCon=     1 RMS=8.15D-05 Max=5.95D-04 NDo=     1
 LinEq1:  Iter=  5 NonCon=     1 RMS=2.97D-05 Max=3.73D-04 NDo=     1
 LinEq1:  Iter=  6 NonCon=     1 RMS=1.03D-05 Max=1.01D-04 NDo=     1
 LinEq1:  Iter=  7 NonCon=     1 RMS=4.06D-06 Max=5.05D-05 NDo=     1
 LinEq1:  Iter=  8 NonCon=     1 RMS=1.75D-06 Max=2.37D-05 NDo=     1
 LinEq1:  Iter=  9 NonCon=     1 RMS=3.21D-07 Max=2.71D-06 NDo=     1
 LinEq1:  Iter= 10 NonCon=     1 RMS=9.29D-08 Max=6.68D-07 NDo=     1
 LinEq1:  Iter= 11 NonCon=     1 RMS=3.35D-08 Max=1.67D-07 NDo=     1
 LinEq1:  Iter= 12 NonCon=     1 RMS=5.35D-09 Max=4.32D-08 NDo=     1
 LinEq1:  Iter= 13 NonCon=     1 RMS=6.36D-10 Max=5.82D-09 NDo=     1
 LinEq1:  Iter= 14 NonCon=     0 RMS=8.00D-11 Max=5.38D-10 NDo=     1
 Linear equations converged to 1.000D-10 1.000D-09 after    14 iterations.
 End of Minotr F.D. properties file   721 does not exist.
 End of Minotr F.D. properties file   722 does not exist.
 End of Minotr F.D. properties file   788 does not exist.

 **********************************************************************

            Population analysis using the MP2 density.

 **********************************************************************

 Orbital symmetries:
       Occupied  (A') (A') (A') (A') (A') (A') (A') (A') (A') (A')
                 (A') (A") (A') (A') (A') (A") (A') (A")
       Virtual   (A") (A") (A') (A') (A') (A') (A') (A') (A') (A")
                 (A') (A') (A') (A") (A') (A") (A') (A') (A') (A")
                 (A") (A') (A') (A') (A') (A') (A') (A') (A') (A')
                 (A')
 The electronic state is 1-A'.
 Alpha  occ. eigenvalues --  -15.69781 -15.68462 -15.66056 -15.62499 -11.35688
 Alpha  occ. eigenvalues --   -1.57700  -1.29978  -1.24930  -0.93279  -0.91600
 Alpha  occ. eigenvalues --   -0.82843  -0.71012  -0.69666  -0.57771  -0.48222
 Alpha  occ. eigenvalues --   -0.47708  -0.46520  -0.44225
 Alpha virt. eigenvalues --    0.12975   0.18577   0.19300   0.24772   0.36666
 Alpha virt. eigenvalues --    0.38082   0.47316   0.49956   0.66588   0.73013
 Alpha virt. eigenvalues --    0.77419   0.85713   0.89161   0.91182   0.93172
 Alpha virt. eigenvalues --    0.96240   0.96795   0.97302   1.01327   1.04290
 Alpha virt. eigenvalues --    1.08631   1.09212   1.13577   1.16103   1.27903
 Alpha virt. eigenvalues --    1.32712   1.40248   1.47063   1.62131   1.78876
 Alpha virt. eigenvalues --    1.85896
          Condensed to atoms (all electrons):
               1          2          3          4          5          6
     1  C    5.270021   0.075409  -0.128512  -0.154260   0.310560   0.363214
     2  N    0.075409   7.494081  -0.010766  -0.128668  -0.099228  -0.045391
     3  N   -0.128512  -0.010766   7.167780   0.095034  -0.145784   0.002383
     4  N   -0.154260  -0.128668   0.095034   7.078475   0.199657   0.006422
     5  N    0.310560  -0.099228  -0.145784   0.199657   7.028640  -0.020024
     6  H    0.363214  -0.045391   0.002383   0.006422  -0.020024   0.450004
     7  H   -0.017756   0.290572  -0.020406   0.008453   0.005635   0.002776
               7
     1  C   -0.017756
     2  N    0.290572
     3  N   -0.020406
     4  N    0.008453
     5  N    0.005635
     6  H    0.002776
     7  H    0.332358
 Mulliken charges:
               1
     1  C    0.281324
     2  N   -0.576009
     3  N    0.040271
     4  N   -0.105114
     5  N   -0.279456
     6  H    0.240616
     7  H    0.398368
 Sum of Mulliken charges =   0.00000
 Mulliken charges with hydrogens summed into heavy atoms:
               1
     1  C    0.521940
     2  N   -0.177641
     3  N    0.040271
     4  N   -0.105114
     5  N   -0.279456
 Electronic spatial extent (au):  <R**2>=            247.3828
 Charge=              0.0000 electrons
 Dipole moment (field-independent basis, Debye):
    X=              2.7564    Y=              5.2887    Z=              0.0000  Tot=              5.9639
 Quadrupole moment (field-independent basis, Debye-Ang):
   XX=            -30.7747   YY=            -28.0544   ZZ=            -28.6000
   XY=              1.8313   XZ=              0.0000   YZ=              0.0000
 Traceless Quadrupole moment (field-independent basis, Debye-Ang):
   XX=             -1.6317   YY=              1.0886   ZZ=              0.5430
   XY=              1.8313   XZ=              0.0000   YZ=              0.0000
 Octapole moment (field-independent basis, Debye-Ang**2):
  XXX=             12.8639  YYY=             24.3564  ZZZ=              0.0000  XYY=             -0.4377
  XXY=              5.0409  XXZ=              0.0000  XZZ=             -0.6879  YZZ=              0.4750
  YYZ=              0.0000  XYZ=              0.0000
 Hexadecapole moment (field-independent basis, Debye-Ang**3):
 XXXX=           -144.2550 YYYY=           -121.0474 ZZZZ=            -25.3399 XXXY=              6.4890
 XXXZ=              0.0000 YYYX=             -0.4813 YYYZ=              0.0000 ZZZX=              0.0000
 ZZZY=              0.0000 XXYY=            -54.3714 XXZZ=            -30.1238 YYZZ=            -28.4503
 XXYZ=              0.0000 YYXZ=              0.0000 ZZXY=             -0.1732
 N-N= 1.698308489506D+02 E-N=-9.412726416639D+02  KE= 2.578783996504D+02
 Symmetry A'   KE= 2.483293290737D+02
 Symmetry A"   KE= 9.549070576640D+00
 Calling FoFJK, ICntrl=  10002127 FMM=F ISym2X=1 I1Cent= 0 IOpClX= 0 NMat=1 NMatS=1 NMatT=0.
 ***** Axes restored to original set *****
 -------------------------------------------------------------------
 Center     Atomic                   Forces (Hartrees/Bohr)
 Number     Number              X              Y              Z
 -------------------------------------------------------------------
      1        6           0.078676692   -0.010001095    0.000000000
      2        7           0.037555328   -0.041845145    0.000000000
      3        7          -0.054614047   -0.101263478    0.000000000
      4        7          -0.082851003    0.081042498    0.000000000
      5        7           0.008104056    0.083025277    0.000000000
      6        1           0.007472347    0.001762819    0.000000000
      7        1           0.005656628   -0.012720877    0.000000000
 -------------------------------------------------------------------
 Cartesian Forces:  Max     0.101263478 RMS     0.045425112
 -----------------------------------------------------------------------------------------------
                       Internal Coordinate Forces (Hartree/Bohr or radian)
  Cent   Atom   N1       Length/X         N2         Alpha/Y        N3         Beta/Z          J
 -----------------------------------------------------------------------------------------------
         X 
         X        1   0.000000(     1)
      1  C        1   0.085608(     2)      2   0.000000(     9)
      2  N        1   0.065326(     3)      2   0.000000(    10)      3  -0.058010(    16)     0
      3  N        1   0.111336(     4)      2   0.000000(    11)      3  -0.077465(    17)     0
      4  N        1   0.100463(     5)      2   0.000000(    12)      3   0.121717(    18)     0
      5  N        1   0.083417(     6)      2   0.000000(    13)      3  -0.001279(    19)     0
      6  H        3   0.007640(     7)      4   0.001533(    14)      5   0.000000(    20)     0
      7  H        4   0.013907(     8)      5   0.001201(    15)      6   0.000000(    21)     0
 -----------------------------------------------------------------------------------------------
 Internal  Forces:  Max     0.121717257 RMS     0.055840512

 GradGradGradGradGradGradGradGradGradGradGradGradGradGradGradGradGradGrad
 Berny optimization.
 Search for a local minimum.
 Step number   1 out of a maximum of   22
 All quantities printed in internal units (Hartrees-Bohrs-Radians)
 Second derivative matrix not updated -- first step.
 The second derivative matrix:
                          rn1       rn2       rn3       rn4       rch
           rn1          0.65186
           rn2          0.01318   0.69869
           rn3          0.03472   0.07334   0.58262
           rn4          0.03688   0.02662   0.13967   0.63921
           rch          0.00000   0.00000   0.00000   0.00000   0.37510
           rnh          0.00000   0.00000   0.00000   0.00000   0.00000
           an1          0.02012  -0.75016   0.04258  -0.08486   0.00000
           an2          0.72119  -0.31234  -0.71865   0.05436   0.00000
           an3         -0.02914   1.04797   0.05412  -0.58583   0.00000
           an4          0.05328  -0.03228   0.65851  -0.10009   0.00000
           ach          0.04546   0.00000   0.00000   0.05066   0.00000
           anh         -0.10206   0.05276   0.00000   0.00000   0.00000
                          rnh       an1       an2       an3       an4
           rnh          0.48741
           an1          0.00000   4.53257
           an2          0.00000  -2.68051   6.02300
           an3          0.00000  -0.03573  -3.19618   4.47465
           an4          0.00000  -0.12258  -0.06592  -1.16042   2.58479
           ach          0.00000  -0.10460   0.00000   0.00000   0.07318
           anh          0.00000   0.03519  -0.09059   0.00000   0.00000
                          ach       anh
           ach          0.32000
           anh          0.00000   0.32000
 ITU=  0
     Eigenvalues ---    0.00000   0.13346   0.26445   0.33044   0.37510
     Eigenvalues ---    0.40158   0.48741   0.75609   1.20990   2.99509
     Eigenvalues ---    5.09563   9.64077
 RFO step:  Lambda=-4.39299941D-02 EMin=-6.95624114D-16
 Linear search not attempted -- first point.
 Variable       Old X    -DE/DX   Delta X   Delta X   Delta X     New X
                                 (Linear)    (Quad)   (Total)
   rn1        2.34817   0.06533   0.00000   0.05008   0.05008   2.39826
   rn2        2.51900   0.11134   0.00000   0.14842   0.14842   2.66742
   rn3        2.10629   0.10046   0.00000   0.19200   0.19200   2.29828
   rn4        1.75064   0.08342   0.00000   0.07978   0.07978   1.83042
   rch        2.01785   0.00764   0.00000   0.01823   0.01823   2.03608
   rnh        1.87858   0.01391   0.00000   0.02617   0.02617   1.90475
   an1        1.25389  -0.05801   0.00000   0.02703   0.02703   1.28092
   an2        2.33355  -0.07747   0.00000   0.02864   0.02864   2.36219
   an3        3.39396   0.12172   0.00000   0.01168   0.01168   3.40564
   an4        4.81845  -0.00128   0.00000  -0.03767  -0.03767   4.78078
   ach        2.18209   0.00153   0.00000   0.00219   0.00219   2.18429
   anh        2.10770   0.00120   0.00000   0.00034   0.00034   2.10805
         Item               Value     Threshold  Converged?
 Maximum Force            0.121717     0.000450     NO 
 RMS     Force            0.069614     0.000300     NO 
 Maximum Displacement     0.191996     0.001800     NO 
 RMS     Displacement     0.077401     0.001200     NO 
 Predicted change in Energy=-2.354410D-02
 GradGradGradGradGradGradGradGradGradGradGradGradGradGradGradGradGradGrad

 ---------------------------------------------------------------------------------------------------
                            Z-MATRIX (ANGSTROMS AND DEGREES)
   CD    Cent   Atom    N1       Length/X        N2       Alpha/Y        N3        Beta/Z          J
 ---------------------------------------------------------------------------------------------------
      1         X 
      2         X        1   1.000000(     1)
      3      1  C        1   1.000000(     2)      2   90.000(     9)
      4      2  N        1   1.269103(     3)      2   90.000(    10)      3   73.391(    16)      0
      5      3  N        1   1.411540(     4)      2   90.000(    11)      3  135.344(    17)      0
      6      4  N        1   1.216200(     5)      2   90.000(    12)      3  195.129(    18)      0
      7      5  N        1   0.968617(     6)      2   90.000(    13)      3  273.919(    19)      0
      8      6  H        3   1.077448(     7)      4  125.150(    14)      5  180.000(    20)      0
      9      7  H        4   1.007951(     8)      5  120.782(    15)      6  180.000(    21)      0
 ---------------------------------------------------------------------------------------------------
                         Z-Matrix orientation:                         
 ---------------------------------------------------------------------
 Center     Atomic      Atomic             Coordinates (Angstroms)
 Number     Number       Type             X           Y           Z
 ---------------------------------------------------------------------
      1         -1           0        0.000000    0.000000    0.000000
      2         -1           0        0.000000    0.000000    1.000000
      3          6           0        1.000000    0.000000    0.000000
      4          7           0        0.362753   -1.216155    0.000000
      5          7           0       -1.004076   -0.992108    0.000000
      6          7           0       -1.174048    0.317415    0.000000
      7          7           0        0.066197    0.966352    0.000000
      8          1           0        2.068239    0.140571    0.000000
      9          1           0        0.731732   -2.154142    0.000000
 ---------------------------------------------------------------------
                    Distance matrix (angstroms):
                    1          2          3          4          5
     1  X    0.000000
     2  X    1.000000   0.000000
     3  C    1.000000   1.414214   0.000000
     4  N    1.269103   1.615742   1.372995   0.000000
     5  N    1.411540   1.729869   2.236202   1.385070   0.000000
     6  N    1.216200   1.574529   2.197098   2.171082   1.320508
     7  N    0.968617   1.392199   1.343810   2.202563   2.231826
     8  H    2.073010   2.301602   1.077448   2.179308   3.274459
     9  H    2.275029   2.485107   2.170782   1.007951   2.088864
                    6          7          8          9
     6  N    0.000000
     7  N    1.399760   0.000000
     8  H    3.247107   2.165661   0.000000
     9  H    3.120992   3.190677   2.655552   0.000000
 Stoichiometry    CH2N4
 Framework group  CS[SG(CH2N4)]
 Deg. of freedom    11
 Full point group                 CS      NOp   2
 Largest Abelian subgroup         CS      NOp   2
 Largest concise Abelian subgroup C1      NOp   1
                         Standard orientation:                         
 ---------------------------------------------------------------------
 Center     Atomic      Atomic             Coordinates (Angstroms)
 Number     Number       Type             X           Y           Z
 ---------------------------------------------------------------------
      1          6           0        1.092369    0.250565    0.000000
      2          7           0        0.000000    1.082338    0.000000
      3          7           0       -1.143276    0.300456    0.000000
      4          7           0       -0.742598   -0.957796    0.000000
      5          7           0        0.655764   -1.020340    0.000000
      6          1           0        2.119595    0.575682    0.000000
      7          1           0       -0.063040    2.088316    0.000000
 ---------------------------------------------------------------------
 Rotational constants (GHZ):     10.0161141      9.9372564      4.9882647
 Standard basis: 6-31G (6D, 7F)
 There are    39 symmetry adapted cartesian basis functions of A'  symmetry.
 There are    10 symmetry adapted cartesian basis functions of A"  symmetry.
 There are    39 symmetry adapted basis functions of A'  symmetry.
 There are    10 symmetry adapted basis functions of A"  symmetry.
    49 basis functions,   118 primitive gaussians,    49 cartesian basis functions
    18 alpha electrons       18 beta electrons
       nuclear repulsion energy       163.0838013945 Hartrees.
 NAtoms=    7 NActive=    7 NUniq=    7 SFac= 1.00D+00 NAtFMM=   60 NAOKFM=F Big=F
 Integral buffers will be    131072 words long.
 Raffenetti 1 integral format.
 Two-electron integral symmetry is turned on.
 One-electron integrals computed using PRISM.
 NBasis=    49 RedAO= T EigKep=  7.52D-03  NBF=    39    10
 NBsUse=    49 1.00D-06 EigRej= -1.00D+00 NBFU=    39    10
 Initial guess from the checkpoint file:  "/tmp/rdj3/g09-26531/Gau-1379.chk"
 B after Tr=     0.000000    0.000000    0.000000
         Rot=    0.999993    0.000000    0.000000   -0.003652 Ang=  -0.42 deg.
 Initial guess orbital symmetries:
       Occupied  (A') (A') (A') (A') (A') (A') (A') (A') (A') (A')
                 (A') (A") (A') (A') (A') (A") (A') (A")
       Virtual   (A') (A') (A') (A') (A') (A') (A') (A') (A') (A')
                 (A') (A') (A') (A') (A') (A') (A') (A') (A') (A')
                 (A') (A') (A') (A') (A") (A") (A") (A") (A") (A")
                 (A")
 ExpMin= 1.61D-01 ExpMax= 4.17D+03 ExpMxC= 6.27D+02 IAcc=1 IRadAn=         1 AccDes= 0.00D+00
 Harris functional with IExCor=  205 and IRadAn=       1 diagonalized for initial guess.
 HarFok:  IExCor=  205 AccDes= 0.00D+00 IRadAn=         1 IDoV= 1 UseB2=F ITyADJ=14
 ICtDFT=  3500011 ScaDFX=  1.000000  1.000000  1.000000  1.000000
 FoFCou: FMM=F IPFlag=           0 FMFlag=      100000 FMFlg1=           0
         NFxFlg=           0 DoJE=T BraDBF=F KetDBF=T FulRan=T
         wScrn=  0.000000 ICntrl=     500 IOpCl=  0 I1Cent=   200000004 NGrid=           0
         NMat0=    1 NMatS0=      1 NMatT0=    0 NMatD0=    1 NMtDS0=    0 NMtDT0=    0
 Petite list used in FoFCou.
 Keep R1 ints in memory in symmetry-blocked form, NReq=1603034.
 Requested convergence on RMS density matrix=1.00D-08 within 128 cycles.
 Requested convergence on MAX density matrix=1.00D-06.
 Requested convergence on             energy=1.00D-06.
 No special actions if energy rises.
 SCF Done:  E(RHF) =  -256.583076556     A.U. after   15 cycles
            NFock= 15  Conv=0.61D-08     -V/T= 2.0014
 ExpMin= 1.61D-01 ExpMax= 4.17D+03 ExpMxC= 6.27D+02 IAcc=3 IRadAn=         5 AccDes= 0.00D+00
 HarFok:  IExCor=  205 AccDes= 0.00D+00 IRadAn=         5 IDoV=-2 UseB2=F ITyADJ=14
 ICtDFT= 12500011 ScaDFX=  1.000000  1.000000  1.000000  1.000000
 Range of M.O.s used for correlation:     6    49
 NBasis=    49 NAE=    18 NBE=    18 NFC=     5 NFV=     0
 NROrb=     44 NOA=    13 NOB=    13 NVA=    31 NVB=    31
 Fully direct method using O(ONN) memory.
 JobTyp=1 Pass  1:  I=   6 to  18 NPSUse=  8 ParTrn=T ParDer=T DoDerP=T.
 Spin components of T(2) and E(2):
     alpha-alpha T2 =       0.3161815382D-01 E2=     -0.7541655227D-01
     alpha-beta  T2 =       0.1684454889D+00 E2=     -0.4078304783D+00
     beta-beta   T2 =       0.3161815382D-01 E2=     -0.7541655227D-01
 ANorm=    0.1109811604D+01
 E2 =    -0.5586635828D+00 EUMP2 =    -0.25714174013897D+03
          IDoAtm=1111111
          Differentiating once with respect to electric field.
                with respect to dipole field.
          Differentiating once with respect to nuclear coordinates.
 Keep R1 ints in memory in symmetry-blocked form, NReq=1586633.
          There are     1 degrees of freedom in the 1st order CPHF.  IDoFFX=0 NUNeed=     1.
 LinEq1:  Iter=  0 NonCon=     1 RMS=1.05D-02 Max=8.03D-02 NDo=     1
 AX will form     1 AO Fock derivatives at one time.
 LinEq1:  Iter=  1 NonCon=     1 RMS=2.42D-03 Max=1.48D-02 NDo=     1
 LinEq1:  Iter=  2 NonCon=     1 RMS=1.06D-03 Max=1.66D-02 NDo=     1
 LinEq1:  Iter=  3 NonCon=     1 RMS=4.13D-04 Max=3.12D-03 NDo=     1
 LinEq1:  Iter=  4 NonCon=     1 RMS=1.33D-04 Max=8.43D-04 NDo=     1
 LinEq1:  Iter=  5 NonCon=     1 RMS=6.43D-05 Max=8.56D-04 NDo=     1
 LinEq1:  Iter=  6 NonCon=     1 RMS=2.30D-05 Max=3.23D-04 NDo=     1
 LinEq1:  Iter=  7 NonCon=     1 RMS=1.10D-05 Max=1.47D-04 NDo=     1
 LinEq1:  Iter=  8 NonCon=     1 RMS=3.91D-06 Max=4.69D-05 NDo=     1
 LinEq1:  Iter=  9 NonCon=     1 RMS=6.63D-07 Max=4.04D-06 NDo=     1
 LinEq1:  Iter= 10 NonCon=     1 RMS=1.16D-07 Max=7.63D-07 NDo=     1
 LinEq1:  Iter= 11 NonCon=     1 RMS=6.24D-08 Max=4.02D-07 NDo=     1
 LinEq1:  Iter= 12 NonCon=     1 RMS=1.32D-08 Max=1.01D-07 NDo=     1
 LinEq1:  Iter= 13 NonCon=     1 RMS=1.66D-09 Max=1.62D-08 NDo=     1
 LinEq1:  Iter= 14 NonCon=     1 RMS=2.22D-10 Max=1.40D-09 NDo=     1
 LinEq1:  Iter= 15 NonCon=     0 RMS=3.16D-11 Max=2.72D-10 NDo=     1
 Linear equations converged to 1.000D-10 1.000D-09 after    15 iterations.
 End of Minotr F.D. properties file   721 does not exist.
 End of Minotr F.D. properties file   722 does not exist.
 End of Minotr F.D. properties file   788 does not exist.
 Calling FoFJK, ICntrl=  10002127 FMM=F ISym2X=1 I1Cent= 0 IOpClX= 0 NMat=1 NMatS=1 NMatT=0.
 ***** Axes restored to original set *****
 -------------------------------------------------------------------
 Center     Atomic                   Forces (Hartrees/Bohr)
 Number     Number              X              Y              Z
 -------------------------------------------------------------------
      1        6           0.007150714   -0.005612320    0.000000000
      2        7           0.009573687    0.004133295    0.000000000
      3        7          -0.014805899   -0.036199799    0.000000000
      4        7          -0.015813135    0.019197674    0.000000000
      5        7           0.013402442    0.020206511    0.000000000
      6        1           0.000459705    0.000899546    0.000000000
      7        1           0.000032487   -0.002624907    0.000000000
 -------------------------------------------------------------------
 Cartesian Forces:  Max     0.036199799 RMS     0.011823014
 -----------------------------------------------------------------------------------------------
                       Internal Coordinate Forces (Hartree/Bohr or radian)
  Cent   Atom   N1       Length/X         N2         Alpha/Y        N3         Beta/Z          J
 -----------------------------------------------------------------------------------------------
         X 
         X        1   0.000000(     1)
      1  C        1   0.007032(     2)      2   0.000000(     9)
      2  N        1   0.002365(     3)      2   0.000000(    10)      3  -0.023522(    16)     0
      3  N        1   0.035427(     4)      2   0.000000(    11)      3  -0.039866(    17)     0
      4  N        1   0.020275(     5)      2   0.000000(    12)      3   0.033107(    18)     0
      5  N        1   0.021075(     6)      2   0.000000(    13)      3   0.021947(    19)     0
      6  H        3   0.000573(     7)      4   0.001694(    14)      5   0.000000(    20)     0
      7  H        4   0.002455(     8)      5  -0.001773(    15)      6   0.000000(    21)     0
 -----------------------------------------------------------------------------------------------
 Internal  Forces:  Max     0.039865513 RMS     0.016758931

 GradGradGradGradGradGradGradGradGradGradGradGradGradGradGradGradGradGrad
 Berny optimization.
 Search for a local minimum.
 Step number   2 out of a maximum of   22
 All quantities printed in internal units (Hartrees-Bohrs-Radians)
 Update second derivatives using D2CorN and points    1    2
 DE= -2.51D-02 DEPred=-2.35D-02 R= 1.07D+00
 TightC=F SS=  1.41D+00  RLast= 2.68D-01 DXNew= 5.0454D-01 8.0438D-01
 Trust test= 1.07D+00 RLast= 2.68D-01 DXMaxT set to 5.05D-01
 The second derivative matrix:
                          rn1       rn2       rn3       rn4       rch
           rn1          0.65175
           rn2          0.00294   0.63901
           rn3          0.03038   0.02252   0.55100
           rn4          0.03067  -0.00756   0.10964   0.61972
           rch          0.00006  -0.00343  -0.00120  -0.00210   0.37515
           rnh         -0.00048  -0.00661  -0.00390  -0.00392  -0.00012
           an1          0.02869  -0.73009   0.07335  -0.07445   0.00318
           an2          0.73548  -0.27564  -0.66609   0.07367   0.00526
           an3         -0.04050   1.01197   0.00963  -0.60534  -0.00411
           an4          0.04510  -0.04907   0.63010  -0.10858  -0.00305
           ach          0.04490  -0.00209  -0.00231   0.04950  -0.00020
           anh         -0.10143   0.05453   0.00236   0.00095   0.00023
                          rnh       an1       an2       an3       an4
           rnh          0.48693
           an1          0.00425   4.54186
           an2          0.00723  -2.66786   6.03938
           an3         -0.00604  -0.03985  -3.19934   4.46936
           an4         -0.00395  -0.13349  -0.08140  -1.15380   2.59715
           ach         -0.00031  -0.10452   0.00031  -0.00063   0.07323
           anh          0.00032   0.03558  -0.09014   0.00007  -0.00052
                          ach       anh
           ach          0.31995
           anh          0.00002   0.32001
 ITU=  1  0
     Eigenvalues ---    0.00000   0.13798   0.26992   0.33182   0.37503
     Eigenvalues ---    0.39115   0.48686   0.70525   1.20979   2.98261
     Eigenvalues ---    5.08504   9.63582
 RFO step:  Lambda=-1.67621092D-03 EMin=-8.06255313D-08
 Quartic linear search produced a step of  0.34288.
 Variable       Old X    -DE/DX   Delta X   Delta X   Delta X     New X
                                 (Linear)    (Quad)   (Total)
   rn1        2.39826   0.00237   0.01717  -0.00063   0.01654   2.41480
   rn2        2.66742   0.03543   0.05089   0.06556   0.11645   2.78387
   rn3        2.29828   0.02028   0.06583  -0.02557   0.04027   2.33855
   rn4        1.83042   0.02108   0.02735  -0.02302   0.00434   1.83476
   rch        2.03608   0.00057   0.00625  -0.00229   0.00396   2.04004
   rnh        1.90475   0.00245   0.00897  -0.00008   0.00889   1.91364
   an1        1.28092  -0.02352   0.00927  -0.00726   0.00200   1.28292
   an2        2.36219  -0.03987   0.00982  -0.02654  -0.01672   2.34547
   an3        3.40564   0.03311   0.00400  -0.03628  -0.03228   3.37336
   an4        4.78078   0.02195  -0.01291  -0.00018  -0.01309   4.76769
   ach        2.18429   0.00169   0.00075   0.00725   0.00800   2.19229
   anh        2.10805  -0.00177   0.00012  -0.02631  -0.02619   2.08186
         Item               Value     Threshold  Converged?
 Maximum Force            0.039866     0.000450     NO 
 RMS     Force            0.022077     0.000300     NO 
 Maximum Displacement     0.116447     0.001800     NO 
 RMS     Displacement     0.038531     0.001200     NO 
 Predicted change in Energy=-1.525126D-03
 GradGradGradGradGradGradGradGradGradGradGradGradGradGradGradGradGradGrad

 ---------------------------------------------------------------------------------------------------
                            Z-MATRIX (ANGSTROMS AND DEGREES)
   CD    Cent   Atom    N1       Length/X        N2       Alpha/Y        N3        Beta/Z          J
 ---------------------------------------------------------------------------------------------------
      1         X 
      2         X        1   1.000000(     1)
      3      1  C        1   1.000000(     2)      2   90.000(     9)
      4      2  N        1   1.277857(     3)      2   90.000(    10)      3   73.506(    16)      0
      5      3  N        1   1.473161(     4)      2   90.000(    11)      3  134.386(    17)      0
      6      4  N        1   1.237508(     5)      2   90.000(    12)      3  193.280(    18)      0
      7      5  N        1   0.970911(     6)      2   90.000(    13)      3  273.168(    19)      0
      8      6  H        3   1.079542(     7)      4  125.609(    14)      5  180.000(    20)      0
      9      7  H        4   1.012657(     8)      5  119.282(    15)      6  180.000(    21)      0
 ---------------------------------------------------------------------------------------------------
                         Z-Matrix orientation:                         
 ---------------------------------------------------------------------
 Center     Atomic      Atomic             Coordinates (Angstroms)
 Number     Number       Type             X           Y           Z
 ---------------------------------------------------------------------
      1         -1           0        0.000000    0.000000    0.000000
      2         -1           0        0.000000    0.000000    1.000000
      3          6           0        1.000000    0.000000    0.000000
      4          7           0        0.362802   -1.225273    0.000000
      5          7           0       -1.030453   -1.052792    0.000000
      6          7           0       -1.204418    0.284258    0.000000
      7          7           0        0.053664    0.969427    0.000000
      8          1           0        2.068686    0.152715    0.000000
      9          1           0        0.745824   -2.162699    0.000000
 ---------------------------------------------------------------------
                    Distance matrix (angstroms):
                    1          2          3          4          5
     1  X    0.000000
     2  X    1.000000   0.000000
     3  C    1.000000   1.414214   0.000000
     4  N    1.277857   1.622627   1.381055   0.000000
     5  N    1.473161   1.780507   2.287162   1.403891   0.000000
     6  N    1.237508   1.591045   2.222670   2.175974   1.348320
     7  N    0.970911   1.393796   1.354747   2.216365   2.294489
     8  H    2.074315   2.302777   1.079542   2.192918   3.325343
     9  H    2.287689   2.496702   2.177584   1.012657   2.094529
                    6          7          8          9
     6  N    0.000000
     7  N    1.432559   0.000000
     8  H    3.275746   2.174243   0.000000
     9  H    3.129064   3.207693   2.666665   0.000000
 Stoichiometry    CH2N4
 Framework group  CS[SG(CH2N4)]
 Deg. of freedom    11
 Full point group                 CS      NOp   2
 Largest Abelian subgroup         CS      NOp   2
 Largest concise Abelian subgroup C1      NOp   1
                         Standard orientation:                         
 ---------------------------------------------------------------------
 Center     Atomic      Atomic             Coordinates (Angstroms)
 Number     Number       Type             X           Y           Z
 ---------------------------------------------------------------------
      1          6           0        1.108674    0.255265    0.000000
      2          7           0        0.000000    1.078767    0.000000
      3          7           0       -1.177717    0.314639    0.000000
      4          7           0       -0.749753   -0.963960    0.000000
      5          7           0        0.681270   -1.030296    0.000000
      6          1           0        2.136614    0.585039    0.000000
      7          1           0       -0.065259    2.089319    0.000000
 ---------------------------------------------------------------------
 Rotational constants (GHZ):      9.9309873      9.5026879      4.8560590
 Standard basis: 6-31G (6D, 7F)
 There are    39 symmetry adapted cartesian basis functions of A'  symmetry.
 There are    10 symmetry adapted cartesian basis functions of A"  symmetry.
 There are    39 symmetry adapted basis functions of A'  symmetry.
 There are    10 symmetry adapted basis functions of A"  symmetry.
    49 basis functions,   118 primitive gaussians,    49 cartesian basis functions
    18 alpha electrons       18 beta electrons
       nuclear repulsion energy       160.9335823656 Hartrees.
 NAtoms=    7 NActive=    7 NUniq=    7 SFac= 1.00D+00 NAtFMM=   60 NAOKFM=F Big=F
 Integral buffers will be    131072 words long.
 Raffenetti 1 integral format.
 Two-electron integral symmetry is turned on.
 One-electron integrals computed using PRISM.
 NBasis=    49 RedAO= T EigKep=  7.95D-03  NBF=    39    10
 NBsUse=    49 1.00D-06 EigRej= -1.00D+00 NBFU=    39    10
 Initial guess from the checkpoint file:  "/tmp/rdj3/g09-26531/Gau-1379.chk"
 B after Tr=     0.000000    0.000000    0.000000
         Rot=    1.000000    0.000000    0.000000   -0.000896 Ang=  -0.10 deg.
 Initial guess orbital symmetries:
       Occupied  (A') (A') (A') (A') (A') (A') (A') (A') (A') (A')
                 (A') (A') (A") (A') (A') (A') (A") (A")
       Virtual   (A') (A') (A') (A') (A') (A') (A') (A') (A') (A')
                 (A') (A') (A') (A') (A') (A') (A') (A') (A') (A')
                 (A') (A') (A') (A') (A") (A") (A") (A") (A") (A")
                 (A")
 ExpMin= 1.61D-01 ExpMax= 4.17D+03 ExpMxC= 6.27D+02 IAcc=1 IRadAn=         1 AccDes= 0.00D+00
 Harris functional with IExCor=  205 and IRadAn=       1 diagonalized for initial guess.
 HarFok:  IExCor=  205 AccDes= 0.00D+00 IRadAn=         1 IDoV= 1 UseB2=F ITyADJ=14
 ICtDFT=  3500011 ScaDFX=  1.000000  1.000000  1.000000  1.000000
 FoFCou: FMM=F IPFlag=           0 FMFlag=      100000 FMFlg1=           0
         NFxFlg=           0 DoJE=T BraDBF=F KetDBF=T FulRan=T
         wScrn=  0.000000 ICntrl=     500 IOpCl=  0 I1Cent=   200000004 NGrid=           0
         NMat0=    1 NMatS0=      1 NMatT0=    0 NMatD0=    1 NMtDS0=    0 NMtDT0=    0
 Petite list used in FoFCou.
 Keep R1 ints in memory in symmetry-blocked form, NReq=1602923.
 Requested convergence on RMS density matrix=1.00D-08 within 128 cycles.
 Requested convergence on MAX density matrix=1.00D-06.
 Requested convergence on             energy=1.00D-06.
 No special actions if energy rises.
 SCF Done:  E(RHF) =  -256.573445207     A.U. after   14 cycles
            NFock= 14  Conv=0.50D-08     -V/T= 2.0024
 ExpMin= 1.61D-01 ExpMax= 4.17D+03 ExpMxC= 6.27D+02 IAcc=3 IRadAn=         5 AccDes= 0.00D+00
 HarFok:  IExCor=  205 AccDes= 0.00D+00 IRadAn=         5 IDoV=-2 UseB2=F ITyADJ=14
 ICtDFT= 12500011 ScaDFX=  1.000000  1.000000  1.000000  1.000000
 Range of M.O.s used for correlation:     6    49
 NBasis=    49 NAE=    18 NBE=    18 NFC=     5 NFV=     0
 NROrb=     44 NOA=    13 NOB=    13 NVA=    31 NVB=    31
 Fully direct method using O(ONN) memory.
 JobTyp=1 Pass  1:  I=   6 to  18 NPSUse=  8 ParTrn=T ParDer=T DoDerP=T.
 Spin components of T(2) and E(2):
     alpha-alpha T2 =       0.3306549478D-01 E2=     -0.7709241568D-01
     alpha-beta  T2 =       0.1757190071D+00 E2=     -0.4160009708D+00
     beta-beta   T2 =       0.3306549478D-01 E2=     -0.7709241568D-01
 ANorm=    0.1114383236D+01
 E2 =    -0.5701858021D+00 EUMP2 =    -0.25714363100921D+03
          IDoAtm=1111111
          Differentiating once with respect to electric field.
                with respect to dipole field.
          Differentiating once with respect to nuclear coordinates.
 Keep R1 ints in memory in symmetry-blocked form, NReq=1586461.
          There are     1 degrees of freedom in the 1st order CPHF.  IDoFFX=0 NUNeed=     1.
 LinEq1:  Iter=  0 NonCon=     1 RMS=1.10D-02 Max=8.63D-02 NDo=     1
 AX will form     1 AO Fock derivatives at one time.
 LinEq1:  Iter=  1 NonCon=     1 RMS=2.64D-03 Max=1.59D-02 NDo=     1
 LinEq1:  Iter=  2 NonCon=     1 RMS=1.24D-03 Max=2.03D-02 NDo=     1
 LinEq1:  Iter=  3 NonCon=     1 RMS=5.28D-04 Max=4.68D-03 NDo=     1
 LinEq1:  Iter=  4 NonCon=     1 RMS=1.71D-04 Max=1.16D-03 NDo=     1
 LinEq1:  Iter=  5 NonCon=     1 RMS=8.95D-05 Max=1.05D-03 NDo=     1
 LinEq1:  Iter=  6 NonCon=     1 RMS=3.42D-05 Max=5.20D-04 NDo=     1
 LinEq1:  Iter=  7 NonCon=     1 RMS=1.65D-05 Max=2.15D-04 NDo=     1
 LinEq1:  Iter=  8 NonCon=     1 RMS=5.31D-06 Max=5.35D-05 NDo=     1
 LinEq1:  Iter=  9 NonCon=     1 RMS=8.68D-07 Max=5.66D-06 NDo=     1
 LinEq1:  Iter= 10 NonCon=     1 RMS=1.82D-07 Max=1.29D-06 NDo=     1
 LinEq1:  Iter= 11 NonCon=     1 RMS=9.20D-08 Max=6.26D-07 NDo=     1
 LinEq1:  Iter= 12 NonCon=     1 RMS=1.88D-08 Max=1.59D-07 NDo=     1
 LinEq1:  Iter= 13 NonCon=     1 RMS=2.47D-09 Max=2.45D-08 NDo=     1
 LinEq1:  Iter= 14 NonCon=     1 RMS=3.30D-10 Max=2.04D-09 NDo=     1
 LinEq1:  Iter= 15 NonCon=     0 RMS=4.83D-11 Max=4.20D-10 NDo=     1
 Linear equations converged to 1.000D-10 1.000D-09 after    15 iterations.
 End of Minotr F.D. properties file   721 does not exist.
 End of Minotr F.D. properties file   722 does not exist.
 End of Minotr F.D. properties file   788 does not exist.
 Calling FoFJK, ICntrl=  10002127 FMM=F ISym2X=1 I1Cent= 0 IOpClX= 0 NMat=1 NMatS=1 NMatT=0.
 ***** Axes restored to original set *****
 -------------------------------------------------------------------
 Center     Atomic                   Forces (Hartrees/Bohr)
 Number     Number              X              Y              Z
 -------------------------------------------------------------------
      1        6          -0.011188973   -0.006009654    0.000000000
      2        7           0.008233460   -0.004588736    0.000000000
      3        7           0.009951016   -0.002814450    0.000000000
      4        7          -0.009672734    0.013606267    0.000000000
      5        7           0.002756804   -0.000434276    0.000000000
      6        1          -0.000614949   -0.000671105    0.000000000
      7        1           0.000535376    0.000911955    0.000000000
 -------------------------------------------------------------------
 Cartesian Forces:  Max     0.013606267 RMS     0.005544311
 -----------------------------------------------------------------------------------------------
                       Internal Coordinate Forces (Hartree/Bohr or radian)
  Cent   Atom   N1       Length/X         N2         Alpha/Y        N3         Beta/Z          J
 -----------------------------------------------------------------------------------------------
         X 
         X        1   0.000000(     1)
      1  C        1  -0.011404(     2)      2   0.000000(     9)
      2  N        1   0.005146(     3)      2   0.000000(    10)      3  -0.017583(    16)     0
      3  N        1  -0.004467(     4)      2   0.000000(    11)      3  -0.026301(    17)     0
      4  N        1   0.012539(     5)      2   0.000000(    12)      3   0.025772(    18)     0
      5  N        1  -0.000281(     6)      2   0.000000(    13)      3   0.005094(    19)     0
      6  H        3  -0.000704(     7)      4  -0.001178(    14)      5   0.000000(    20)     0
      7  H        4  -0.000642(     8)      5   0.001608(    15)      6   0.000000(    21)     0
 -----------------------------------------------------------------------------------------------
 Internal  Forces:  Max     0.026301427 RMS     0.009831389

 GradGradGradGradGradGradGradGradGradGradGradGradGradGradGradGradGradGrad
 Berny optimization.
 Search for a local minimum.
 Step number   3 out of a maximum of   22
 All quantities printed in internal units (Hartrees-Bohrs-Radians)
 Update second derivatives using D2CorN and points    1    2    3
 DE= -1.89D-03 DEPred=-1.53D-03 R= 1.24D+00
 TightC=F SS=  1.41D+00  RLast= 1.33D-01 DXNew= 8.4853D-01 4.0042D-01
 Trust test= 1.24D+00 RLast= 1.33D-01 DXMaxT set to 5.05D-01
 The second derivative matrix:
                          rn1       rn2       rn3       rn4       rch
           rn1          0.64422
           rn2         -0.02397   0.60345
           rn3          0.00790  -0.06201   0.48263
           rn4          0.02452  -0.03226   0.08952   0.61248
           rch         -0.00066  -0.00332  -0.00356  -0.00299   0.37534
           rnh         -0.00260  -0.00942  -0.01063  -0.00609   0.00000
           an1          0.04327  -0.64795   0.11641  -0.06365   0.00772
           an2          0.76180  -0.14634  -0.58772   0.09363   0.01214
           an3         -0.05758   0.88984  -0.04069  -0.61878  -0.01074
           an4          0.04078  -0.08198   0.61662  -0.11236  -0.00548
           ach          0.04390   0.00007  -0.00560   0.04855  -0.00003
           anh         -0.09761   0.05184   0.01424   0.00395  -0.00015
                          rnh       an1       an2       an3       an4
           rnh          0.48682
           an1          0.01242   4.55066
           an2          0.02001  -2.66694   6.02131
           an3         -0.01784  -0.06289  -3.21557   4.52069
           an4         -0.00772  -0.14788  -0.09849  -1.13027   2.60837
           ach         -0.00012  -0.09968   0.00725  -0.00865   0.07102
           anh          0.00007   0.02072  -0.11212   0.02375   0.00564
                          ach       anh
           ach          0.32036
           anh         -0.00097   0.32218
 ITU=  1  1  0
     Eigenvalues ---   -0.00131   0.15045   0.28856   0.32443   0.37518
     Eigenvalues ---    0.41858   0.48585   0.64205   1.20900   2.95798
     Eigenvalues ---    5.07031   9.62742
 RFO step:  Lambda=-2.62694260D-03 EMin=-1.30915543D-03
 Quartic linear search produced a step of -0.10783.
 Maximum step size (   0.505) exceeded in Quadratic search.
    -- Step size scaled by   0.504
 Variable       Old X    -DE/DX   Delta X   Delta X   Delta X     New X
                                 (Linear)    (Quad)   (Total)
   rn1        2.41480   0.00515  -0.00178   0.25297   0.25119   2.66598
   rn2        2.78387  -0.00447  -0.01256   0.14319   0.13063   2.91450
   rn3        2.33855   0.01254  -0.00434  -0.02145  -0.02579   2.31276
   rn4        1.83476  -0.00028  -0.00047  -0.22680  -0.22727   1.60748
   rch        2.04004  -0.00070  -0.00043  -0.00041  -0.00084   2.03920
   rnh        1.91364  -0.00064  -0.00096   0.00148   0.00052   1.91416
   an1        1.28292  -0.01758  -0.00022  -0.11197  -0.11218   1.17074
   an2        2.34547  -0.02630   0.00180  -0.20162  -0.19982   2.14565
   an3        3.37336   0.02577   0.00348  -0.22681  -0.22333   3.15003
   an4        4.76769   0.00509   0.00141  -0.11461  -0.11320   4.65449
   ach        2.19229  -0.00118  -0.00086  -0.01293  -0.01380   2.17849
   anh        2.08186   0.00161   0.00282   0.01497   0.01779   2.09965
         Item               Value     Threshold  Converged?
 Maximum Force            0.026301     0.000450     NO 
 RMS     Force            0.012582     0.000300     NO 
 Maximum Displacement     0.251185     0.001800     NO 
 RMS     Displacement     0.143814     0.001200     NO 
 Predicted change in Energy=-1.396531D-03
 GradGradGradGradGradGradGradGradGradGradGradGradGradGradGradGradGradGrad

 ---------------------------------------------------------------------------------------------------
                            Z-MATRIX (ANGSTROMS AND DEGREES)
   CD    Cent   Atom    N1       Length/X        N2       Alpha/Y        N3        Beta/Z          J
 ---------------------------------------------------------------------------------------------------
      1         X 
      2         X        1   1.000000(     1)
      3      1  C        1   1.000000(     2)      2   90.000(     9)
      4      2  N        1   1.410778(     3)      2   90.000(    10)      3   67.078(    16)      0
      5      3  N        1   1.542287(     4)      2   90.000(    11)      3  122.937(    17)      0
      6      4  N        1   1.223858(     5)      2   90.000(    12)      3  180.483(    18)      0
      7      5  N        1   0.850644(     6)      2   90.000(    13)      3  266.683(    19)      0
      8      6  H        3   1.079100(     7)      4  124.818(    14)      5  180.000(    20)      0
      9      7  H        4   1.012931(     8)      5  120.301(    15)      6  180.000(    21)      0
 ---------------------------------------------------------------------------------------------------
                         Z-Matrix orientation:                         
 ---------------------------------------------------------------------
 Center     Atomic      Atomic             Coordinates (Angstroms)
 Number     Number       Type             X           Y           Z
 ---------------------------------------------------------------------
      1         -1           0        0.000000    0.000000    0.000000
      2         -1           0        0.000000    0.000000    1.000000
      3          6           0        1.000000    0.000000    0.000000
      4          7           0        0.549459   -1.299381    0.000000
      5          7           0       -0.838562   -1.294397    0.000000
      6          7           0       -1.223814    0.010326    0.000000
      7          7           0       -0.049224    0.849219    0.000000
      8          1           0        2.038865    0.291919    0.000000
      9          1           0        1.057381   -2.175762    0.000000
 ---------------------------------------------------------------------
                    Distance matrix (angstroms):
                    1          2          3          4          5
     1  X    0.000000
     2  X    1.000000   0.000000
     3  C    1.000000   1.414214   0.000000
     4  N    1.410778   1.729247   1.375274   0.000000
     5  N    1.542287   1.838110   2.248505   1.388030   0.000000
     6  N    1.223858   1.580452   2.223838   2.204502   1.360412
     7  N    0.850644   1.312858   1.349831   2.230449   2.284325
     8  H    2.059657   2.289582   1.079100   2.179579   3.285724
     9  H    2.419090   2.617632   2.176519   1.012931   2.090790
                    6          7          8          9
     6  N    0.000000
     7  N    1.443400   0.000000
     8  H    3.274809   2.161180   0.000000
     9  H    3.159562   3.221038   2.655704   0.000000
 Stoichiometry    CH2N4
 Framework group  CS[SG(CH2N4)]
 Deg. of freedom    11
 Full point group                 CS      NOp   2
 Largest Abelian subgroup         CS      NOp   2
 Largest concise Abelian subgroup C1      NOp   1
                         Standard orientation:                         
 ---------------------------------------------------------------------
 Center     Atomic      Atomic             Coordinates (Angstroms)
 Number     Number       Type             X           Y           Z
 ---------------------------------------------------------------------
      1          6           0        1.091806    0.253897    0.000000
      2          7           0        0.000000    1.090161    0.000000
      3          7           0       -1.155686    0.321385    0.000000
      4          7           0       -0.758484   -0.979750    0.000000
      5          7           0        0.683939   -1.032839    0.000000
      6          1           0        2.119643    0.582541    0.000000
      7          1           0       -0.058863    2.101380    0.000000
 ---------------------------------------------------------------------
 Rotational constants (GHZ):      9.7787749      9.6564107      4.8586038
 Standard basis: 6-31G (6D, 7F)
 There are    39 symmetry adapted cartesian basis functions of A'  symmetry.
 There are    10 symmetry adapted cartesian basis functions of A"  symmetry.
 There are    39 symmetry adapted basis functions of A'  symmetry.
 There are    10 symmetry adapted basis functions of A"  symmetry.
    49 basis functions,   118 primitive gaussians,    49 cartesian basis functions
    18 alpha electrons       18 beta electrons
       nuclear repulsion energy       160.9722652004 Hartrees.
 NAtoms=    7 NActive=    7 NUniq=    7 SFac= 1.00D+00 NAtFMM=   60 NAOKFM=F Big=F
 Integral buffers will be    131072 words long.
 Raffenetti 1 integral format.
 Two-electron integral symmetry is turned on.
 One-electron integrals computed using PRISM.
 NBasis=    49 RedAO= T EigKep=  7.87D-03  NBF=    39    10
 NBsUse=    49 1.00D-06 EigRej= -1.00D+00 NBFU=    39    10
 Initial guess from the checkpoint file:  "/tmp/rdj3/g09-26531/Gau-1379.chk"
 B after Tr=     0.000000    0.000000    0.000000
         Rot=    1.000000    0.000000    0.000000    0.000581 Ang=   0.07 deg.
 Initial guess orbital symmetries:
       Occupied  (A') (A') (A') (A') (A') (A') (A') (A') (A') (A')
                 (A') (A') (A") (A') (A') (A') (A") (A")
       Virtual   (A') (A') (A') (A') (A') (A') (A') (A') (A') (A')
                 (A') (A') (A') (A') (A') (A') (A') (A') (A') (A')
                 (A') (A') (A') (A') (A") (A") (A") (A") (A") (A")
                 (A")
 ExpMin= 1.61D-01 ExpMax= 4.17D+03 ExpMxC= 6.27D+02 IAcc=1 IRadAn=         1 AccDes= 0.00D+00
 Harris functional with IExCor=  205 and IRadAn=       1 diagonalized for initial guess.
 HarFok:  IExCor=  205 AccDes= 0.00D+00 IRadAn=         1 IDoV= 1 UseB2=F ITyADJ=14
 ICtDFT=  3500011 ScaDFX=  1.000000  1.000000  1.000000  1.000000
 FoFCou: FMM=F IPFlag=           0 FMFlag=      100000 FMFlg1=           0
         NFxFlg=           0 DoJE=T BraDBF=F KetDBF=T FulRan=T
         wScrn=  0.000000 ICntrl=     500 IOpCl=  0 I1Cent=   200000004 NGrid=           0
         NMat0=    1 NMatS0=      1 NMatT0=    0 NMatD0=    1 NMtDS0=    0 NMtDT0=    0
 Petite list used in FoFCou.
 Keep R1 ints in memory in symmetry-blocked form, NReq=1602937.
 Requested convergence on RMS density matrix=1.00D-08 within 128 cycles.
 Requested convergence on MAX density matrix=1.00D-06.
 Requested convergence on             energy=1.00D-06.
 No special actions if energy rises.
 SCF Done:  E(RHF) =  -256.572842085     A.U. after   14 cycles
            NFock= 14  Conv=0.37D-08     -V/T= 2.0024
 ExpMin= 1.61D-01 ExpMax= 4.17D+03 ExpMxC= 6.27D+02 IAcc=3 IRadAn=         5 AccDes= 0.00D+00
 HarFok:  IExCor=  205 AccDes= 0.00D+00 IRadAn=         5 IDoV=-2 UseB2=F ITyADJ=14
 ICtDFT= 12500011 ScaDFX=  1.000000  1.000000  1.000000  1.000000
 Range of M.O.s used for correlation:     6    49
 NBasis=    49 NAE=    18 NBE=    18 NFC=     5 NFV=     0
 NROrb=     44 NOA=    13 NOB=    13 NVA=    31 NVB=    31
 Fully direct method using O(ONN) memory.
 JobTyp=1 Pass  1:  I=   6 to  18 NPSUse=  8 ParTrn=T ParDer=T DoDerP=T.
 Spin components of T(2) and E(2):
     alpha-alpha T2 =       0.3317062519D-01 E2=     -0.7721096926D-01
     alpha-beta  T2 =       0.1763477067D+00 E2=     -0.4166281488D+00
     beta-beta   T2 =       0.3317062519D-01 E2=     -0.7721096926D-01
 ANorm=    0.1114759596D+01
 E2 =    -0.5710500873D+00 EUMP2 =    -0.25714389217194D+03
          IDoAtm=1111111
          Differentiating once with respect to electric field.
                with respect to dipole field.
          Differentiating once with respect to nuclear coordinates.
 Keep R1 ints in memory in symmetry-blocked form, NReq=1586474.
          There are     1 degrees of freedom in the 1st order CPHF.  IDoFFX=0 NUNeed=     1.
 LinEq1:  Iter=  0 NonCon=     1 RMS=1.09D-02 Max=7.68D-02 NDo=     1
 AX will form     1 AO Fock derivatives at one time.
 LinEq1:  Iter=  1 NonCon=     1 RMS=2.59D-03 Max=1.45D-02 NDo=     1
 LinEq1:  Iter=  2 NonCon=     1 RMS=1.19D-03 Max=2.02D-02 NDo=     1
 LinEq1:  Iter=  3 NonCon=     1 RMS=5.17D-04 Max=4.73D-03 NDo=     1
 LinEq1:  Iter=  4 NonCon=     1 RMS=1.63D-04 Max=1.10D-03 NDo=     1
 LinEq1:  Iter=  5 NonCon=     1 RMS=8.47D-05 Max=1.02D-03 NDo=     1
 LinEq1:  Iter=  6 NonCon=     1 RMS=3.29D-05 Max=5.05D-04 NDo=     1
 LinEq1:  Iter=  7 NonCon=     1 RMS=1.59D-05 Max=2.13D-04 NDo=     1
 LinEq1:  Iter=  8 NonCon=     1 RMS=5.20D-06 Max=5.44D-05 NDo=     1
 LinEq1:  Iter=  9 NonCon=     1 RMS=9.93D-07 Max=5.36D-06 NDo=     1
 LinEq1:  Iter= 10 NonCon=     1 RMS=4.82D-07 Max=4.12D-06 NDo=     1
 LinEq1:  Iter= 11 NonCon=     1 RMS=1.17D-07 Max=8.76D-07 NDo=     1
 LinEq1:  Iter= 12 NonCon=     1 RMS=2.01D-08 Max=1.43D-07 NDo=     1
 LinEq1:  Iter= 13 NonCon=     1 RMS=2.55D-09 Max=2.57D-08 NDo=     1
 LinEq1:  Iter= 14 NonCon=     1 RMS=3.53D-10 Max=2.33D-09 NDo=     1
 LinEq1:  Iter= 15 NonCon=     0 RMS=4.98D-11 Max=4.59D-10 NDo=     1
 Linear equations converged to 1.000D-10 1.000D-09 after    15 iterations.
 End of Minotr F.D. properties file   721 does not exist.
 End of Minotr F.D. properties file   722 does not exist.
 End of Minotr F.D. properties file   788 does not exist.
 Calling FoFJK, ICntrl=  10002127 FMM=F ISym2X=1 I1Cent= 0 IOpClX= 0 NMat=1 NMatS=1 NMatT=0.
 ***** Axes restored to original set *****
 -------------------------------------------------------------------
 Center     Atomic                   Forces (Hartrees/Bohr)
 Number     Number              X              Y              Z
 -------------------------------------------------------------------
      1        6           0.005098993    0.000951375    0.000000000
      2        7           0.003260743    0.006788207    0.000000000
      3        7          -0.011866886   -0.010089688    0.000000000
      4        7           0.005099042    0.001334378    0.000000000
      5        7          -0.000661622   -0.000050799    0.000000000
      6        1          -0.000033278   -0.000084568    0.000000000
      7        1          -0.000896993    0.001151094    0.000000000
 -------------------------------------------------------------------
 Cartesian Forces:  Max     0.011866886 RMS     0.004120800
 -----------------------------------------------------------------------------------------------
                       Internal Coordinate Forces (Hartree/Bohr or radian)
  Cent   Atom   N1       Length/X         N2         Alpha/Y        N3         Beta/Z          J
 -----------------------------------------------------------------------------------------------
         X 
         X        1   0.000000(     1)
      1  C        1   0.005119(     2)      2   0.000000(     9)
      2  N        1  -0.006296(     3)      2   0.000000(    10)      3  -0.013783(    16)     0
      3  N        1   0.014798(     4)      2   0.000000(    11)      3   0.013267(    17)     0
      4  N        1  -0.005088(     5)      2   0.000000(    12)      3   0.003185(    18)     0
      5  N        1  -0.000012(     6)      2   0.000000(    13)      3  -0.001066(    19)     0
      6  H        3  -0.000055(     7)      4  -0.000148(    14)      5   0.000000(    20)     0
      7  H        4  -0.001446(     8)      5  -0.000381(    15)      6   0.000000(    21)     0
 -----------------------------------------------------------------------------------------------
 Internal  Forces:  Max     0.014798080 RMS     0.005733190

 GradGradGradGradGradGradGradGradGradGradGradGradGradGradGradGradGradGrad
 Berny optimization.
 Search for a local minimum.
 Step number   4 out of a maximum of   22
 All quantities printed in internal units (Hartrees-Bohrs-Radians)
 Update second derivatives using D2CorN and points    2    3    4
 DE= -2.61D-04 DEPred=-1.40D-03 R= 1.87D-01
 Trust test= 1.87D-01 RLast= 4.98D-01 DXMaxT set to 5.05D-01
 The second derivative matrix:
                          rn1       rn2       rn3       rn4       rch
           rn1          0.65583
           rn2         -0.03026   0.58794
           rn3          0.01503  -0.05726   0.48176
           rn4          0.01999  -0.02309   0.08297   0.61150
           rch         -0.00078  -0.00347  -0.00354  -0.00287   0.37534
           rnh         -0.00159  -0.00894  -0.01056  -0.00688   0.00001
           an1          0.04507  -0.63931   0.11354  -0.06743   0.00784
           an2          0.73956  -0.14991  -0.59283   0.10863   0.01221
           an3         -0.05744   0.90206  -0.04797  -0.62424  -0.01064
           an4          0.04095  -0.07535   0.61313  -0.11511  -0.00541
           ach          0.04354   0.00041  -0.00590   0.04864  -0.00002
           anh         -0.09689   0.05201   0.01449   0.00349  -0.00016
                          rnh       an1       an2       an3       an4
           rnh          0.48686
           an1          0.01220   4.54716
           an2          0.01902  -2.66282   6.04946
           an3         -0.01869  -0.06950  -3.20384   4.51101
           an4         -0.00811  -0.15116  -0.09269  -1.13532   2.60577
           ach         -0.00015  -0.09969   0.00810  -0.00886   0.07095
           anh          0.00009   0.02028  -0.11312   0.02368   0.00549
                          ach       anh
           ach          0.32038
           anh         -0.00102   0.32226
 ITU=  0  1  1  0
     Eigenvalues ---    0.00364   0.15002   0.28903   0.32458   0.37518
     Eigenvalues ---    0.41876   0.48593   0.64301   1.20900   2.95821
     Eigenvalues ---    5.07008   9.62782
 RFO step:  Lambda=-1.48015245D-04 EMin= 3.63607988D-03
 Quartic linear search produced a step of -0.37143.
 Variable       Old X    -DE/DX   Delta X   Delta X   Delta X     New X
                                 (Linear)    (Quad)   (Total)
   rn1        2.66598  -0.00630  -0.09330   0.02442  -0.06887   2.59711
   rn2        2.91450   0.01480  -0.04852   0.03420  -0.01432   2.90018
   rn3        2.31276  -0.00509   0.00958   0.00219   0.01178   2.32453
   rn4        1.60748  -0.00001   0.08442  -0.02889   0.05553   1.66301
   rch        2.03920  -0.00005   0.00031  -0.00061  -0.00030   2.03891
   rnh        1.91416  -0.00145  -0.00019  -0.00210  -0.00229   1.91187
   an1        1.17074  -0.01378   0.04167  -0.01346   0.02821   1.19895
   an2        2.14565   0.01327   0.07422  -0.02261   0.05161   2.19726
   an3        3.15003   0.00319   0.08295  -0.02789   0.05506   3.20509
   an4        4.65449  -0.00107   0.04205  -0.01445   0.02759   4.68208
   ach        2.17849  -0.00015   0.00512  -0.00183   0.00330   2.18179
   anh        2.09965  -0.00038  -0.00661  -0.00159  -0.00820   2.09144
         Item               Value     Threshold  Converged?
 Maximum Force            0.014798     0.000450     NO 
 RMS     Force            0.007439     0.000300     NO 
 Maximum Displacement     0.068873     0.001800     NO 
 RMS     Displacement     0.035948     0.001200     NO 
 Predicted change in Energy=-3.538079D-04
 GradGradGradGradGradGradGradGradGradGradGradGradGradGradGradGradGradGrad

 ---------------------------------------------------------------------------------------------------
                            Z-MATRIX (ANGSTROMS AND DEGREES)
   CD    Cent   Atom    N1       Length/X        N2       Alpha/Y        N3        Beta/Z          J
 ---------------------------------------------------------------------------------------------------
      1         X 
      2         X        1   1.000000(     1)
      3      1  C        1   1.000000(     2)      2   90.000(     9)
      4      2  N        1   1.374333(     3)      2   90.000(    10)      3   68.695(    16)      0
      5      3  N        1   1.534710(     4)      2   90.000(    11)      3  125.894(    17)      0
      6      4  N        1   1.230089(     5)      2   90.000(    12)      3  183.638(    18)      0
      7      5  N        1   0.880029(     6)      2   90.000(    13)      3  268.264(    19)      0
      8      6  H        3   1.078944(     7)      4  125.007(    14)      5  180.000(    20)      0
      9      7  H        4   1.011719(     8)      5  119.831(    15)      6  180.000(    21)      0
 ---------------------------------------------------------------------------------------------------
                         Z-Matrix orientation:                         
 ---------------------------------------------------------------------
 Center     Atomic      Atomic             Coordinates (Angstroms)
 Number     Number       Type             X           Y           Z
 ---------------------------------------------------------------------
      1         -1           0        0.000000    0.000000    0.000000
      2         -1           0        0.000000    0.000000    1.000000
      3          6           0        1.000000    0.000000    0.000000
      4          7           0        0.499344   -1.280408    0.000000
      5          7           0       -0.899777   -1.243277    0.000000
      6          7           0       -1.227610    0.078055    0.000000
      7          7           0       -0.026667    0.879625    0.000000
      8          1           0        2.048464    0.254643    0.000000
      9          1           0        0.979154   -2.171114    0.000000
 ---------------------------------------------------------------------
                    Distance matrix (angstroms):
                    1          2          3          4          5
     1  X    0.000000
     2  X    1.000000   0.000000
     3  C    1.000000   1.414214   0.000000
     4  N    1.374333   1.699644   1.374810   0.000000
     5  N    1.534710   1.831757   2.270438   1.399613   0.000000
     6  N    1.230089   1.585282   2.228977   2.197224   1.361394
     7  N    0.880029   1.332085   1.351956   2.223158   2.295437
     8  H    2.064230   2.293697   1.078944   2.180861   3.306945
     9  H    2.381697   2.583114   2.171214   1.011719   2.095535
                    6          7          8          9
     6  N    0.000000
     7  N    1.443876   0.000000
     8  H    3.280830   2.167203   0.000000
     9  H    3.150964   3.212271   2.650985   0.000000
 Stoichiometry    CH2N4
 Framework group  CS[SG(CH2N4)]
 Deg. of freedom    11
 Full point group                 CS      NOp   2
 Largest Abelian subgroup         CS      NOp   2
 Largest concise Abelian subgroup C1      NOp   1
                         Standard orientation:                         
 ---------------------------------------------------------------------
 Center     Atomic      Atomic             Coordinates (Angstroms)
 Number     Number       Type             X           Y           Z
 ---------------------------------------------------------------------
      1          6           0        1.099088    0.258812    0.000000
      2          7           0        0.000000    1.084710    0.000000
      3          7           0       -1.170592    0.317486    0.000000
      4          7           0       -0.754714   -0.978831    0.000000
      5          7           0        0.688283   -1.029220    0.000000
      6          1           0        2.124816    0.593476    0.000000
      7          1           0       -0.060186    2.094637    0.000000
 ---------------------------------------------------------------------
 Rotational constants (GHZ):      9.8048630      9.5607004      4.8406212
 Standard basis: 6-31G (6D, 7F)
 There are    39 symmetry adapted cartesian basis functions of A'  symmetry.
 There are    10 symmetry adapted cartesian basis functions of A"  symmetry.
 There are    39 symmetry adapted basis functions of A'  symmetry.
 There are    10 symmetry adapted basis functions of A"  symmetry.
    49 basis functions,   118 primitive gaussians,    49 cartesian basis functions
    18 alpha electrons       18 beta electrons
       nuclear repulsion energy       160.6771463449 Hartrees.
 NAtoms=    7 NActive=    7 NUniq=    7 SFac= 1.00D+00 NAtFMM=   60 NAOKFM=F Big=F
 Integral buffers will be    131072 words long.
 Raffenetti 1 integral format.
 Two-electron integral symmetry is turned on.
 One-electron integrals computed using PRISM.
 NBasis=    49 RedAO= T EigKep=  7.93D-03  NBF=    39    10
 NBsUse=    49 1.00D-06 EigRej= -1.00D+00 NBFU=    39    10
 Initial guess from the checkpoint file:  "/tmp/rdj3/g09-26531/Gau-1379.chk"
 B after Tr=     0.000000    0.000000    0.000000
         Rot=    0.999999    0.000000    0.000000   -0.001579 Ang=  -0.18 deg.
 Initial guess orbital symmetries:
       Occupied  (A') (A') (A') (A') (A') (A') (A') (A') (A') (A')
                 (A') (A') (A") (A') (A') (A') (A") (A")
       Virtual   (A') (A') (A') (A') (A') (A') (A') (A') (A') (A')
                 (A') (A') (A') (A') (A') (A') (A') (A') (A') (A')
                 (A') (A') (A') (A') (A") (A") (A") (A") (A") (A")
                 (A")
 ExpMin= 1.61D-01 ExpMax= 4.17D+03 ExpMxC= 6.27D+02 IAcc=1 IRadAn=         1 AccDes= 0.00D+00
 Harris functional with IExCor=  205 and IRadAn=       1 diagonalized for initial guess.
 HarFok:  IExCor=  205 AccDes= 0.00D+00 IRadAn=         1 IDoV= 1 UseB2=F ITyADJ=14
 ICtDFT=  3500011 ScaDFX=  1.000000  1.000000  1.000000  1.000000
 FoFCou: FMM=F IPFlag=           0 FMFlag=      100000 FMFlg1=           0
         NFxFlg=           0 DoJE=T BraDBF=F KetDBF=T FulRan=T
         wScrn=  0.000000 ICntrl=     500 IOpCl=  0 I1Cent=   200000004 NGrid=           0
         NMat0=    1 NMatS0=      1 NMatT0=    0 NMatD0=    1 NMtDS0=    0 NMtDT0=    0
 Petite list used in FoFCou.
 Keep R1 ints in memory in symmetry-blocked form, NReq=1602922.
 Requested convergence on RMS density matrix=1.00D-08 within 128 cycles.
 Requested convergence on MAX density matrix=1.00D-06.
 Requested convergence on             energy=1.00D-06.
 No special actions if energy rises.
 SCF Done:  E(RHF) =  -256.571781410     A.U. after   13 cycles
            NFock= 13  Conv=0.78D-08     -V/T= 2.0025
 ExpMin= 1.61D-01 ExpMax= 4.17D+03 ExpMxC= 6.27D+02 IAcc=3 IRadAn=         5 AccDes= 0.00D+00
 HarFok:  IExCor=  205 AccDes= 0.00D+00 IRadAn=         5 IDoV=-2 UseB2=F ITyADJ=14
 ICtDFT= 12500011 ScaDFX=  1.000000  1.000000  1.000000  1.000000
 Range of M.O.s used for correlation:     6    49
 NBasis=    49 NAE=    18 NBE=    18 NFC=     5 NFV=     0
 NROrb=     44 NOA=    13 NOB=    13 NVA=    31 NVB=    31
[...]
 Calling FoFJK, ICntrl=  10100127 FMM=F ISym2X=1 I1Cent= 0 IOpClX= 0 NMat=1 NMatS=1 NMatT=0.
 Full mass-weighted force constant matrix:
 Low frequencies ---   -2.1447   -0.0006    0.0001    0.0005    1.0142    2.5830
 Low frequencies ---  638.0910  685.7754  704.7469
 Diagonal vibrational polarizability:
        1.7696703       1.1273394      10.3716623
 Harmonic frequencies (cm**-1), IR intensities (KM/Mole), Raman scattering
 activities (A**4/AMU), depolarization ratios for plane and unpolarized
 incident light, reduced masses (AMU), force constants (mDyne/A),
 and normal coordinates:
                      1                      2                      3
                     A"                     A"                     A"
 Frequencies --    638.0910               685.7754               704.7469
 Red. masses --      5.0608                 4.8518                 1.2857
 Frc consts  --      1.2140                 1.3444                 0.3762
 IR Inten    --     40.9896                 8.4902                97.2528
  Atom  AN      X      Y      Z        X      Y      Z        X      Y      Z
     1   6     0.00   0.00  -0.29     0.00   0.00   0.17     0.00   0.00   0.01
     2   7     0.00   0.00   0.39     0.00   0.00   0.09     0.00   0.00   0.02
     3   7     0.00   0.00  -0.24     0.00   0.00  -0.21     0.00   0.00   0.11
     4   7     0.00   0.00   0.02     0.00   0.00   0.33     0.00   0.00  -0.10
     5   7     0.00   0.00   0.16     0.00   0.00  -0.33     0.00   0.00   0.01
     6   1     0.00   0.00  -0.69     0.00   0.00   0.45     0.00   0.00   0.22
     7   1     0.00   0.00  -0.45     0.00   0.00  -0.71     0.00   0.00  -0.96
                      4                      5                      6
                     A'                     A"                     A'
 Frequencies --    768.1653               804.7933               899.9934
 Red. masses --     10.4024                 1.3252                 7.8716
 Frc consts  --      3.6166                 0.5057                 3.7566
 IR Inten    --     13.5150                45.9004                15.9253
  Atom  AN      X      Y      Z        X      Y      Z        X      Y      Z
     1   6    -0.03   0.05   0.00     0.00   0.00   0.16    -0.08  -0.04   0.00
     2   7     0.09   0.05   0.00     0.00   0.00  -0.02    -0.13  -0.10   0.00
     3   7     0.00   0.01   0.00     0.00   0.00   0.01    -0.15   0.55   0.00
     4   7     0.53  -0.20   0.00     0.00   0.00  -0.02     0.18  -0.29   0.00
     5   7    -0.61   0.14   0.00     0.00   0.00  -0.03     0.17  -0.15   0.00
     6   1     0.14  -0.50   0.00     0.00   0.00  -0.97    -0.24   0.46   0.00
     7   1     0.08   0.04   0.00     0.00   0.00  -0.18     0.44  -0.06   0.00
                      7                      8                      9
                     A'                     A'                     A'
 Frequencies --    947.4554               991.3008              1015.1070
 Red. masses --      5.3102                 9.0126                 8.0605
 Frc consts  --      2.8086                 5.2181                 4.8937
 IR Inten    --      8.4179                 2.6127                 1.6828
  Atom  AN      X      Y      Z        X      Y      Z        X      Y      Z
     1   6    -0.05  -0.02   0.00     0.41   0.14   0.00    -0.03   0.14   0.00
     2   7     0.21   0.37   0.00     0.18  -0.30   0.00     0.01   0.20   0.00
     3   7    -0.30  -0.11   0.00    -0.30   0.04   0.00     0.41   0.09   0.00
     4   7    -0.02  -0.17   0.00    -0.23  -0.21   0.00    -0.29  -0.46   0.00
     5   7     0.11  -0.07   0.00    -0.05   0.37   0.00    -0.06   0.05   0.00
     6   1     0.09  -0.46   0.00     0.46   0.12   0.00     0.06  -0.15   0.00
     7   1     0.52   0.41   0.00     0.18  -0.31   0.00    -0.63   0.18   0.00
                     10                     11                     12
                     A'                     A'                     A'
 Frequencies --   1153.8492              1202.1588              1406.4677
 Red. masses --      1.8586                 2.4371                 3.1368
 Frc consts  --      1.4579                 2.0751                 3.6560
 IR Inten    --     11.9202                 9.4210                 4.8652
  Atom  AN      X      Y      Z        X      Y      Z        X      Y      Z
     1   6     0.18  -0.08   0.00    -0.18  -0.12   0.00    -0.11   0.34   0.00
     2   7    -0.14   0.07   0.00    -0.03  -0.07   0.00     0.08  -0.13   0.00
     3   7    -0.05   0.05   0.00     0.05   0.02   0.00    -0.03   0.03   0.00
     4   7     0.03   0.02   0.00     0.00  -0.01   0.00     0.00   0.04   0.00
     5   7     0.02  -0.03   0.00     0.10   0.23   0.00     0.03  -0.17   0.00
     6   1     0.37  -0.62   0.00     0.03  -0.88   0.00     0.27  -0.82   0.00
     7   1    -0.63   0.05   0.00     0.33  -0.06   0.00    -0.19  -0.17   0.00
                     13                     14                     15
                     A'                     A'                     A'
 Frequencies --   1454.1842              3348.8421              3683.0146
 Red. masses --      1.6523                 1.1014                 1.0850
 Frc consts  --      2.0586                 7.2776                 8.6712
 IR Inten    --     51.2438                 3.3817               121.4083
  Atom  AN      X      Y      Z        X      Y      Z        X      Y      Z
     1   6    -0.10  -0.08   0.00     0.09   0.03   0.00     0.00   0.00   0.00
     2   7     0.16  -0.02   0.00     0.00   0.00   0.00    -0.01   0.08   0.00
     3   7    -0.05   0.04   0.00     0.00   0.00   0.00     0.00   0.00   0.00
     4   7     0.03   0.01   0.00     0.00   0.00   0.00     0.00   0.00   0.00
     5   7     0.03   0.04   0.00     0.00   0.00   0.00     0.00   0.00   0.00
     6   1    -0.21   0.15   0.00    -0.95  -0.31   0.00    -0.02   0.00   0.00
     7   1    -0.93  -0.10   0.00     0.01   0.03   0.00     0.06  -0.99   0.00

 -------------------
 - Thermochemistry -
 -------------------
 Temperature   298.150 Kelvin.  Pressure   1.00000 Atm.
 Atom     1 has atomic number  6 and mass  12.00000
 Atom     2 has atomic number  7 and mass  14.00307
 Atom     3 has atomic number  7 and mass  14.00307
 Atom     4 has atomic number  7 and mass  14.00307
 Atom     5 has atomic number  7 and mass  14.00307
 Atom     6 has atomic number  1 and mass   1.00783
 Atom     7 has atomic number  1 and mass   1.00783
 Molecular mass:    70.02795 amu.
 Principal axes and moments of inertia in atomic units:
                           1         2         3
     Eigenvalues --   184.42756 188.08142 372.50897
           X            0.93945   0.34268   0.00000
           Y           -0.34268   0.93945   0.00000
           Z            0.00000   0.00000   1.00000
 This molecule is an asymmetric top.
 Rotational symmetry number  1.
 Rotational temperatures (Kelvin)      0.46964     0.46051     0.23251
 Rotational constants (GHZ):           9.78564     9.59553     4.84483
 Zero-point vibrational energy     117855.8 (Joules/Mol)
                                   28.16820 (Kcal/Mol)
 Vibrational temperatures:    918.07   986.68  1013.97  1105.22  1157.92
          (Kelvin)           1294.89  1363.18  1426.26  1460.51  1660.13
                             1729.64  2023.59  2092.24  4818.23  5299.03
 
 Zero-point correction=                           0.044889 (Hartree/Particle)
 Thermal correction to Energy=                    0.048478
 Thermal correction to Enthalpy=                  0.049422
 Thermal correction to Gibbs Free Energy=         0.018661
 Sum of electronic and zero-point Energies=           -257.099330
 Sum of electronic and thermal Energies=              -257.095741
 Sum of electronic and thermal Enthalpies=            -257.094796
 Sum of electronic and thermal Free Energies=         -257.125558
 
                     E (Thermal)             CV                S
                      KCal/Mol        Cal/Mol-Kelvin    Cal/Mol-Kelvin
 Total                   30.420             12.256             64.742
 Electronic               0.000              0.000              0.000
 Translational            0.889              2.981             38.656
 Rotational               0.889              2.981             24.073
 Vibrational             28.643              6.295              2.014
                       Q            Log10(Q)             Ln(Q)
 Total Bot       0.260957D-08         -8.583431        -19.764081
 Total V=0       0.115873D+13         12.063981         27.778342
 Vib (Bot)       0.278423D-20        -20.555294        -47.330314
 Vib (V=0)       0.123628D+01          0.092118          0.212109
 Electronic      0.100000D+01          0.000000          0.000000
 Translational   0.230336D+08          7.362362         16.952466
 Rotational      0.406912D+05          4.609501         10.613767
 ***** Axes restored to original set *****
 -------------------------------------------------------------------
 Center     Atomic                   Forces (Hartrees/Bohr)
 Number     Number              X              Y              Z
 -------------------------------------------------------------------
      1        6           0.000009327    0.000015109    0.000000000
      2        7          -0.000046413    0.000002815    0.000000000
      3        7           0.000048049   -0.000037644    0.000000000
      4        7          -0.000025101    0.000040834    0.000000000
      5        7           0.000011528   -0.000023098    0.000000000
      6        1          -0.000000570   -0.000002035    0.000000000
      7        1           0.000003180    0.000004019    0.000000000
 -------------------------------------------------------------------
 Cartesian Forces:  Max     0.000048049 RMS     0.000020928
 -----------------------------------------------------------------------------------------------
                       Internal Coordinate Forces (Hartree/Bohr or radian)
  Cent   Atom   N1       Length/X         N2         Alpha/Y        N3         Beta/Z          J
 -----------------------------------------------------------------------------------------------
         X 
         X        1   0.000000(     1)
      1  C        1   0.000010(     2)      2   0.000000(     9)
      2  N        1  -0.000025(     3)      2   0.000000(    10)      3   0.000096(    16)     0
      3  N        1   0.000002(     4)      2   0.000000(    11)      3  -0.000179(    17)     0
      4  N        1   0.000030(     5)      2   0.000000(    12)      3   0.000086(    18)     0
      5  N        1  -0.000023(     6)      2   0.000000(    13)      3   0.000020(    19)     0
      6  H        3  -0.000001(     7)      4  -0.000004(    14)      5   0.000000(    20)     0
      7  H        4  -0.000002(     8)      5   0.000009(    15)      6   0.000000(    21)     0
 -----------------------------------------------------------------------------------------------
 Internal  Forces:  Max     0.000179282 RMS     0.000049572

 GradGradGradGradGradGradGradGradGradGradGradGradGradGradGradGradGradGrad
 Berny optimization.
 Search for a local minimum.
 Step number   1 out of a maximum of    2
 All quantities printed in internal units (Hartrees-Bohrs-Radians)
 Second derivative matrix not updated -- analytic derivatives used.
 The second derivative matrix:
                          rn1       rn2       rn3       rn4       rch
           rn1          0.52848
           rn2         -0.07751   0.41964
           rn3          0.05673  -0.07400   0.40079
           rn4          0.09125   0.07831  -0.06336   0.44788
           rch         -0.00196  -0.00339  -0.00064  -0.00434   0.39213
           rnh          0.00261  -0.01054  -0.00200  -0.00241   0.00074
           an1          0.16303  -0.26749  -0.17834   0.08272   0.00651
           an2          0.18122   0.09290  -0.19873  -0.10525   0.00616
           an3          0.19337   0.17016   0.15256  -0.14757  -0.00337
           an4         -0.09029   0.11424   0.15077  -0.19992  -0.00761
           ach          0.04110   0.01322  -0.01352   0.02391   0.00199
           anh         -0.06090   0.02333   0.02489  -0.01963  -0.00171
                          rnh       an1       an2       an3       an4
           rnh          0.48041
           an1         -0.00313   2.46429
           an2          0.00376  -1.05616   2.24058
           an3         -0.00463  -0.21982  -0.84951   1.31584
           an4         -0.00052  -0.16436  -0.13799  -0.17856   0.99338
           ach          0.00116   0.00716  -0.01933  -0.00952   0.09019
           anh         -0.00016  -0.04810  -0.00781   0.00598  -0.00660
                          ach       anh
           ach          0.22243
           anh         -0.00021   0.22789
 ITU=  0
     Eigenvalues ---    0.00000   0.15750   0.21719   0.25608   0.39177
     Eigenvalues ---    0.47910   0.50524   0.53251   0.72273   1.22733
     Eigenvalues ---    2.12333   3.52098
 Eigenvalue     1 is  -4.08D-06 should be greater than     0.000000 Eigenvector:
                          rn4       an3       rn1       rn2       an2
   1                    0.47571   0.45497  -0.44682  -0.37240   0.35571
                          an4       an1       rn3       anh       ach
   1                    0.25075   0.18741   0.06196   0.00000   0.00000
 Angle between quadratic step and forces=  58.04 degrees.
 Linear search not attempted -- first point.
 Variable       Old X    -DE/DX   Delta X   Delta X   Delta X     New X
                                 (Linear)    (Quad)   (Total)
   rn1        2.53860  -0.00003   0.00000   0.00000   0.00000   2.53859
   rn2        2.84739   0.00000   0.00000   0.00007   0.00007   2.84746
   rn3        2.32075   0.00003   0.00000   0.00006   0.00006   2.32081
   rn4        1.72669  -0.00002   0.00000  -0.00009  -0.00009   1.72660
   rch        2.03898   0.00000   0.00000   0.00000   0.00000   2.03898
   rnh        1.91190   0.00000   0.00000   0.00000   0.00000   1.91189
   an1        1.22044   0.00010   0.00000   0.00002   0.00002   1.22046
   an2        2.24243  -0.00018   0.00000  -0.00008  -0.00008   2.24235
   an3        3.27217   0.00009   0.00000  -0.00001  -0.00001   3.27216
   an4        4.71597   0.00002   0.00000  -0.00002  -0.00002   4.71594
   ach        2.18155   0.00000   0.00000  -0.00001  -0.00001   2.18154
   anh        2.09119   0.00001   0.00000   0.00002   0.00002   2.09121
         Item               Value     Threshold  Converged?
 Maximum Force            0.000179     0.000450     YES
 RMS     Force            0.000066     0.000300     YES
 Maximum Displacement     0.000091     0.001800     YES
 RMS     Displacement     0.000045     0.001200     YES
 Predicted change in Energy=-9.346522D-09
 Optimization completed.
    -- Stationary point found.
                       ----------------------------
                       !   Optimized Parameters   !
                       ! (Angstroms and Degrees)  !
 ----------------------                            ----------------------
 !      Name          Value   Derivative information (Atomic Units)     !
 ------------------------------------------------------------------------
 !       rn1         1.3434   -DE/DX =    0.0                           !
 !       rn2         1.5068   -DE/DX =    0.0                           !
 !       rn3         1.2281   -DE/DX =    0.0                           !
 !       rn4         0.9137   -DE/DX =    0.0                           !
 !       rch         1.079    -DE/DX =    0.0                           !
 !       rnh         1.0117   -DE/DX =    0.0                           !
 !       an1        69.9259   -DE/DX =    0.0001                        !
 !       an2       128.482    -DE/DX =   -0.0002                        !
 !       an3       187.4814   -DE/DX =    0.0001                        !
 !       an4       270.2051   -DE/DX =    0.0                           !
 !       ach       124.9935   -DE/DX =    0.0                           !
 !       anh       119.8164   -DE/DX =    0.0                           !
 ------------------------------------------------------------------------
 GradGradGradGradGradGradGradGradGradGradGradGradGradGradGradGradGradGrad

 1\1\GINC-N355\Freq\RMP2-FC\6-31G\C1H2N4\RDJ3\26-Nov-2013\1\\#N Geom=Al
 lCheck Guess=TCheck SCRF=Check GenChk RMP2(FC)/6-31G Freq\\1H-tetrazol
 e CH2N4 casno=288948 state=1 config=1 method=3 basis=9\\0,1\X\X,1,1.\C
 ,1,1.,2,90.\N,1,rn1,2,90.,3,an1,0\N,1,rn2,2,90.,3,an2,0\N,1,rn3,2,90.,
 3,an3,0\N,1,rn4,2,90.,3,an4,0\H,3,rch,4,ach,5,180.,0\H,4,rnh,5,anh,6,1
 80.,0\\rn1=1.34336674\rn2=1.50677545\rn3=1.22809059\rn4=0.91372448\rch
 =1.07898234\rnh=1.01173202\an1=69.9259223\an2=128.48202668\an3=187.481
 36973\an4=270.20512335\ach=124.99351675\anh=119.81638853\\Version=EM64
 L-G09RevD.01\State=1-A'\HF=-256.5714699\MP2=-257.1442185\RMSD=2.286e-0
 9\RMSF=2.093e-05\ZeroPoint=0.0448889\Thermal=0.0484779\Dipole=1.967916
 4,-1.2690527,0.\DipoleDeriv=0.1289778,0.0485217,0.,-0.0592992,0.464418
 ,0.,0.,0.,0.0604885,-0.4533224,0.1039743,0.,0.2303638,-0.4755656,0.,0.
 ,0.,-0.2480064,0.2921707,-0.0356585,0.,-0.2738789,-0.1537413,0.,0.,0.,
 -0.0677688,0.1576425,-0.0693352,0.,0.2181502,-0.057461,0.,0.,0.,-0.187
 6008,-0.4401432,-0.0135467,0.,-0.0871371,-0.2103398,0.,0.,0.,-0.182513
 8,0.0765879,-0.0021418,0.,0.0094294,0.1260215,0.,0.,0.,0.2042146,0.238
 0866,-0.0318137,0.,-0.0376281,0.3066682,0.,0.,0.,0.4211868\Polar=39.72
 25112,-0.3400868,36.0364346,0.,0.,13.8581089\Quadrupole=0.8173492,-0.7
 74027,-0.0433222,-1.670149,0.,0.\PG=CS [SG(C1H2N4)]\NImag=0\\0.9094088
 0,0.06377475,0.56403767,0.,0.,0.12466001,-0.14844904,-0.07283186,0.,0.
 52962724,-0.07469735,-0.27163441,0.,-0.14464447,0.93487868,0.,0.,-0.05
 764283,0.,0.,0.10016594,-0.08284022,-0.06370727,0.,-0.16746241,-0.0498
 9641,0.,0.36316474,-0.01115356,-0.02543306,0.,0.01001424,-0.10165791,0
 .,0.07394991,0.34973136,0.,0.,0.01952576,0.,0.,-0.06499259,0.,0.,0.100
 73993,-0.11445376,0.03249609,0.,-0.06983644,0.03874146,0.,-0.09320155,
 -0.04143831,0.,0.38116406,-0.02625142,0.01427295,0.,0.07444967,-0.0751
 1923,0.,0.06777841,-0.13215000,0.,-0.08372465,0.26392867,0.,0.,0.01740
 666,0.,0.,0.02273300,0.,0.,-0.08317374,0.,0.,0.10614969,-0.21003768,0.
 12422242,0.,0.00076309,0.07166371,0.,-0.01935617,-0.07102623,0.,-0.092
 17745,-0.03306732,0.,0.33237156,0.09460550,-0.21045916,0.,0.00293172,-
 0.08371152,0.,-0.02015767,-0.09144749,0.,0.05486959,-0.07117848,0.,-0.
 11536363,0.44871198,0.,0.,-0.07098359,0.,0.,0.01817650,0.,0.,0.0313805
 2,0.,0.,-0.07878808,0.,0.,0.09817639,-0.37074885,-0.06871229,0.,0.0036
 3814,0.00337456,0.,0.00066403,0.00475749,0.,-0.00086313,-0.00090170,0.
 ,-0.00960219,-0.00662636,0.,0.37741839,-0.06504772,-0.06686272,0.,-0.0
 3323926,-0.00164926,0.,-0.00132122,-0.00634287,0.,0.00626733,-0.003109
 81,0.,0.02420265,0.01049520,0.,0.06903432,0.06821100,0.,0.,-0.02472932
 ,0.,0.,-0.00438982,0.,0.,0.00582671,0.,0.,0.00818000,0.,0.,-0.00532720
 ,0.,0.,0.02059018,0.01712074,-0.01524183,0.,-0.14828059,0.15545850,0.,
 -0.00096843,0.03489646,0.,-0.01063173,0.00171700,0.,-0.00196116,-0.010
 25914,0.,-0.00050638,0.00010391,0.,0.14522755,0.01876981,-0.00392128,0
 .,0.16331995,-0.40110635,0.,-0.00664576,0.00729997,0.,-0.00721149,0.00
 335589,0.,-0.00063160,-0.00241054,0.,-0.00092601,-0.00074155,0.,-0.166
 67489,0.39752387,0.,0.,-0.00823669,0.,0.,-0.01405021,0.,0.,-0.00930658
 ,0.,0.,0.00749247,0.,0.,0.00736546,0.,0.,-0.00015054,0.,0.,0.01688610\
 \-0.00000933,-0.00001511,0.,0.00004641,-0.00000281,0.,-0.00004805,0.00
 003764,0.,0.00002510,-0.00004083,0.,-0.00001153,0.00002310,0.,0.000000
 57,0.00000203,0.,-0.00000318,-0.00000402,0.\\\@


 DEPRESSION IS WAITING FOR YOUR SHIP TO COME IN,
 AND FINDING OUT IT'S THE TITANIC.
 Job cpu time:       0 days  0 hours  1 minutes 11.0 seconds.
 File lengths (MBytes):  RWF=     73 Int=      0 D2E=      0 Chk=      1 Scr=      1
 Normal termination of Gaussian 09 at Tue Nov 26 04:04:41 2013.
