 Entering Gaussian System, Link 0=g09
 Initial command:
 /usr/local/gaussian/g09.d01.em64t.legacy.linda/g09/l1.exe "/tmp/rdj3/g09-13184/Gau-13239.inp" -scrdir="/tmp/rdj3/g09-13184/"
 Entering Link 1 = /usr/local/gaussian/g09.d01.em64t.legacy.linda/g09/l1.exe PID=     13240.
  
 Copyright (c) 1988,1990,1992,1993,1995,1998,2003,2009,2013,
            Gaussian, Inc.  All Rights Reserved.
  
 This is part of the Gaussian(R) 09 program.  It is based on
 the Gaussian(R) 03 system (copyright 2003, Gaussian, Inc.),
 the Gaussian(R) 98 system (copyright 1998, Gaussian, Inc.),
 the Gaussian(R) 94 system (copyright 1995, Gaussian, Inc.),
 the Gaussian 92(TM) system (copyright 1992, Gaussian, Inc.),
 the Gaussian 90(TM) system (copyright 1990, Gaussian, Inc.),
 the Gaussian 88(TM) system (copyright 1988, Gaussian, Inc.),
 the Gaussian 86(TM) system (copyright 1986, Carnegie Mellon
 University), and the Gaussian 82(TM) system (copyright 1983,
 Carnegie Mellon University). Gaussian is a federally registered
 trademark of Gaussian, Inc.
  
 This software contains proprietary and confidential information,
 including trade secrets, belonging to Gaussian, Inc.
  
 This software is provided under written license and may be
 used, copied, transmitted, or stored only in accord with that
 written license.
  
 The following legend is applicable only to US Government
 contracts under FAR:
  
                    RESTRICTED RIGHTS LEGEND
  
 Use, reproduction and disclosure by the US Government is
 subject to restrictions as set forth in subparagraphs (a)
 and (c) of the Commercial Computer Software - Restricted
 Rights clause in FAR 52.227-19.
  
 Gaussian, Inc.
 340 Quinnipiac St., Bldg. 40, Wallingford CT 06492
  
  
 ---------------------------------------------------------------
 Warning -- This program may not be used in any manner that
 competes with the business of Gaussian, Inc. or will provide
 assistance to any competitor of Gaussian, Inc.  The licensee
 of this program is prohibited from giving any competitor of
 Gaussian, Inc. access to this program.  By using this program,
 the user acknowledges that Gaussian, Inc. is engaged in the
 business of creating and licensing software in the field of
 computational chemistry and represents and warrants to the
 licensee that it is not a competitor of Gaussian, Inc. and that
 it will not use this program in any manner prohibited above.
 ---------------------------------------------------------------
  

 Cite this work as:
 Gaussian 09, Revision D.01,
 M. J. Frisch, G. W. Trucks, H. B. Schlegel, G. E. Scuseria, 
 M. A. Robb, J. R. Cheeseman, G. Scalmani, V. Barone, B. Mennucci, 
 G. A. Petersson, H. Nakatsuji, M. Caricato, X. Li, H. P. Hratchian, 
 A. F. Izmaylov, J. Bloino, G. Zheng, J. L. Sonnenberg, M. Hada, 
 M. Ehara, K. Toyota, R. Fukuda, J. Hasegawa, M. Ishida, T. Nakajima, 
 Y. Honda, O. Kitao, H. Nakai, T. Vreven, J. A. Montgomery, Jr., 
 J. E. Peralta, F. Ogliaro, M. Bearpark, J. J. Heyd, E. Brothers, 
 K. N. Kudin, V. N. Staroverov, T. Keith, R. Kobayashi, J. Normand, 
 K. Raghavachari, A. Rendell, J. C. Burant, S. S. Iyengar, J. Tomasi, 
 M. Cossi, N. Rega, J. M. Millam, M. Klene, J. E. Knox, J. B. Cross, 
 V. Bakken, C. Adamo, J. Jaramillo, R. Gomperts, R. E. Stratmann, 
 O. Yazyev, A. J. Austin, R. Cammi, C. Pomelli, J. W. Ochterski, 
 R. L. Martin, K. Morokuma, V. G. Zakrzewski, G. A. Voth, 
 P. Salvador, J. J. Dannenberg, S. Dapprich, A. D. Daniels, 
 O. Farkas, J. B. Foresman, J. V. Ortiz, J. Cioslowski, 
 and D. J. Fox, Gaussian, Inc., Wallingford CT, 2013.
 
 ******************************************
 Gaussian 09:  EM64L-G09RevD.01 24-Apr-2013
                25-Nov-2013 
 ******************************************
 %Nproc=8
 Will use up to    8 processors via shared memory.
 %mem=436000000
 ---------------------------------------
 #MP4=FULL/aug-cc-pVDZ opt=z-matrix freq
 ---------------------------------------

 Warning:  this job cannot use analytic gradients
           and so will do many energy evaluations.

 1/18=40,29=20000,38=1/1,14;
 2/12=2,17=6,18=5,29=3,40=1/2;
 3/5=16,7=10,11=9,16=1,25=1,30=1/1,2,3;
 4//1;
 5/5=2,38=5/2;
 8/6=4,9=120000,10=90/1,4;
 9/5=5/13;
 6/7=2,8=2,9=2,10=2/1;
 1/18=40/14(2);
 2/29=3/2;
 99//99;
 2/29=3/2;
 3/5=16,7=10,11=9,16=1,25=1,30=1/1,2,3;
 4/5=5,16=3,69=1/1;
 5/5=2,38=5/2;
 8/6=4,9=120000,10=90/1,4;
 9/5=5/13;
 1/18=40/14(-6);
 2/29=3/2;
 6/7=2,8=2,9=2,10=2/1;
 99//99;
 -------------------------------------------------------------------
 1H-tetrazole CH2N4 casno=288948 state=1 config=1 method=44 basis=17
 -------------------------------------------------------------------
 Symbolic Z-matrix:
 Charge =  0 Multiplicity = 1
 X
 X                    1     1. 
 C                    1     1.       2     90. 
 N                    1    rn1      2     90.      3    an1      0
 N                    1    rn2      2     90.      3    an2      0
 N                    1    rn3      2     90.      3    an3      0
 N                    1    rn4      2     90.      3    an4      0
 H                    3    rch      4    ach      5     180.     0
 H                    4    rnh      5    anh      6     180.     0
       Variables:
  rn1                   1.2426                   
  rn2                   1.333                    
  rn3                   1.1146                   
  rn4                   0.9264                   
  rch                   1.0678                   
  rnh                   0.9941                   
  an1                  71.8427                   
  an2                 133.7028                   
  an3                 194.4597                   
  an4                 276.0768                   
  ach                 125.0248                   
  anh                 120.7626                   
 

 NEF-NEF-NEF-NEF-NEF-NEF-NEF-NEF-NEF-NEF-NEF-NEF-NEF-NEF-NEF-NEF-NEF-NEF-
 NUMERICAL EIGENVECTOR FOLLOWING MINIMUM SEARCH
 INITIALIZATION PASS
                       ----------------------------
                       !    Initial Parameters    !
                       ! (Angstroms and Degrees)  !
 ----------------------                            ----------------------
 !      Name          Value   Derivative information (Atomic Units)     !
 ------------------------------------------------------------------------
 !       rn1         1.2426   estimate D2E/DX2                          !
 !       rn2         1.333    estimate D2E/DX2                          !
 !       rn3         1.1146   estimate D2E/DX2                          !
 !       rn4         0.9264   estimate D2E/DX2                          !
 !       rch         1.0678   estimate D2E/DX2                          !
 !       rnh         0.9941   estimate D2E/DX2                          !
 !       an1        71.8427   estimate D2E/DX2                          !
 !       an2       133.7028   estimate D2E/DX2                          !
 !       an3       194.4597   estimate D2E/DX2                          !
 !       an4       276.0768   estimate D2E/DX2                          !
 !       ach       125.0248   estimate D2E/DX2                          !
 !       anh       120.7626   estimate D2E/DX2                          !
 ------------------------------------------------------------------------


 ***************************************************
 ** O P T I M I Z A T I O N   P A R A M E T E R S **
 **  MAXIMUM NO. OF ITERATIONS      :          32 **
 **  MAXIMUM ALLOWED STEP LENGTH    :    0.300000 **
 ***************************************************



 NEF-NEF-NEF-NEF-NEF-NEF-NEF-NEF-NEF-NEF-NEF-NEF-NEF-NEF-NEF-NEF-NEF-NEF-
 ---------------------------------------------------------------------------------------------------
                            Z-MATRIX (ANGSTROMS AND DEGREES)
   CD    Cent   Atom    N1       Length/X        N2       Alpha/Y        N3        Beta/Z          J
 ---------------------------------------------------------------------------------------------------
      1         X 
      2         X        1   1.000000(     1)
      3      1  C        1   1.000000(     2)      2   90.000(     9)
      4      2  N        1   1.242600(     3)      2   90.000(    10)      3   71.843(    16)      0
      5      3  N        1   1.333000(     4)      2   90.000(    11)      3  133.703(    17)      0
      6      4  N        1   1.114600(     5)      2   90.000(    12)      3  194.460(    18)      0
      7      5  N        1   0.926400(     6)      2   90.000(    13)      3  276.077(    19)      0
      8      6  H        3   1.067800(     7)      4  125.025(    14)      5  180.000(    20)      0
      9      7  H        4   0.994100(     8)      5  120.763(    15)      6  180.000(    21)      0
 ---------------------------------------------------------------------------------------------------
                         Z-Matrix orientation:                         
 ---------------------------------------------------------------------
 Center     Atomic      Atomic             Coordinates (Angstroms)
 Number     Number       Type             X           Y           Z
 ---------------------------------------------------------------------
      1         -1           0        0.000000    0.000000    0.000000
      2         -1           0        0.000000    0.000000    1.000000
      3          6           0        1.000000    0.000000    0.000000
      4          7           0        0.387228   -1.180724    0.000000
      5          7           0       -0.920993   -0.963670    0.000000
      6          7           0       -1.079293    0.278314    0.000000
      7          7           0        0.098070    0.921194    0.000000
      8          1           0        2.058429    0.141157    0.000000
      9          1           0        0.749017   -2.106652    0.000000
 ---------------------------------------------------------------------
                    Distance matrix (angstroms):
                    1          2          3          4          5
     1  X    0.000000
     2  X    1.000000   0.000000
     3  C    1.000000   1.414214   0.000000
     4  N    1.242600   1.595009   1.330263   0.000000
     5  N    1.333000   1.666400   2.149157   1.326105   0.000000
     6  N    1.114600   1.497442   2.097837   2.068690   1.252032
     7  N    0.926400   1.363164   1.289216   2.121715   2.142710
     8  H    2.063263   2.292827   1.067800   2.130794   3.177672
     9  H    2.235847   2.449288   2.121551   0.994100   2.023695
                    6          7          8          9
     6  N    0.000000
     7  N    1.341447   0.000000
     8  H    3.140719   2.109850   0.000000
     9  H    3.005127   3.097029   2.601385   0.000000
 Stoichiometry    CH2N4
 Framework group  CS[SG(CH2N4)]
 Deg. of freedom    11
 Full point group                 CS      NOp   2
 Largest Abelian subgroup         CS      NOp   2
 Largest concise Abelian subgroup C1      NOp   1
                         Standard orientation:                         
 ---------------------------------------------------------------------
 Center     Atomic      Atomic             Coordinates (Angstroms)
 Number     Number       Type             X           Y           Z
 ---------------------------------------------------------------------
      1          6           0        1.052733    0.225621    0.000000
      2          7           0        0.000000    1.038857    0.000000
      3          7           0       -1.095416    0.291448    0.000000
      4          7           0       -0.716382   -0.901832    0.000000
      5          7           0        0.622191   -0.989579    0.000000
      6          1           0        2.072287    0.542964    0.000000
      7          1           0       -0.061439    2.031056    0.000000
 ---------------------------------------------------------------------
 Rotational constants (GHZ):     10.9201517     10.7345054      5.4132664
 Standard basis: Aug-CC-pVDZ (5D, 7F)
 There are   104 symmetry adapted cartesian basis functions of A'  symmetry.
 There are    39 symmetry adapted cartesian basis functions of A"  symmetry.
 There are    94 symmetry adapted basis functions of A'  symmetry.
 There are    39 symmetry adapted basis functions of A"  symmetry.
   133 basis functions,   237 primitive gaussians,   143 cartesian basis functions
    18 alpha electrons       18 beta electrons
       nuclear repulsion energy       169.8308489506 Hartrees.
 NAtoms=    7 NActive=    7 NUniq=    7 SFac= 1.00D+00 NAtFMM=   60 NAOKFM=F Big=F
 Integral buffers will be    131072 words long.
 Raffenetti 1 integral format.
 Two-electron integral symmetry is turned on.
 One-electron integrals computed using PRISM.
 NBasis=   133 RedAO= T EigKep=  1.19D-04  NBF=    94    39
 NBsUse=   133 1.00D-06 EigRej= -1.00D+00 NBFU=    94    39
 ExpMin= 2.97D-02 ExpMax= 9.05D+03 ExpMxC= 3.09D+02 IAcc=3 IRadAn=         5 AccDes= 0.00D+00
 Harris functional with IExCor=  205 and IRadAn=       5 diagonalized for initial guess.
 HarFok:  IExCor=  205 AccDes= 0.00D+00 IRadAn=         5 IDoV= 1 UseB2=F ITyADJ=14
 ICtDFT=  3500011 ScaDFX=  1.000000  1.000000  1.000000  1.000000
 FoFCou: FMM=F IPFlag=           0 FMFlag=      100000 FMFlg1=           0
         NFxFlg=           0 DoJE=T BraDBF=F KetDBF=T FulRan=T
         wScrn=  0.000000 ICntrl=     500 IOpCl=  0 I1Cent=   200000004 NGrid=           0
         NMat0=    1 NMatS0=      1 NMatT0=    0 NMatD0=    1 NMtDS0=    0 NMtDT0=    0
 Petite list used in FoFCou.
 Initial guess orbital symmetries:
       Occupied  (A') (A') (A') (A') (A') (A') (A') (A') (A') (A')
                 (A') (A') (A") (A') (A") (A") (A') (A')
       Virtual   (A") (A") (A') (A') (A') (A") (A') (A') (A') (A')
                 (A') (A') (A") (A") (A') (A') (A') (A') (A") (A')
                 (A") (A') (A') (A') (A") (A') (A') (A') (A') (A')
                 (A") (A') (A') (A') (A") (A') (A") (A') (A') (A')
                 (A') (A') (A") (A") (A') (A') (A") (A') (A") (A')
                 (A') (A") (A") (A') (A') (A') (A") (A') (A') (A")
                 (A') (A') (A") (A') (A') (A") (A") (A') (A') (A")
                 (A') (A") (A') (A") (A') (A') (A') (A") (A') (A')
                 (A') (A") (A') (A") (A') (A') (A") (A") (A') (A')
                 (A") (A') (A') (A') (A') (A') (A") (A') (A') (A")
                 (A') (A") (A') (A") (A') (A') (A') (A") (A') (A')
                 (A') (A') (A') (A') (A')
 The electronic state of the initial guess is 1-A'.
 Keep R1 ints in memory in symmetry-blocked form, NReq=60288506.
 Requested convergence on RMS density matrix=1.00D-08 within 128 cycles.
 Requested convergence on MAX density matrix=1.00D-06.
 Requested convergence on             energy=1.00D-06.
 No special actions if energy rises.
 SCF Done:  E(RHF) =  -256.797933873     A.U. after   15 cycles
            NFock= 15  Conv=0.69D-08     -V/T= 2.0004
 Range of M.O.s used for correlation:     1   133
 NBasis=   133 NAE=    18 NBE=    18 NFC=     0 NFV=     0
 NROrb=    133 NOA=    18 NOB=    18 NVA=   115 NVB=   115

 **** Warning!!: The largest alpha MO coefficient is  0.30297523D+02

 Semi-Direct transformation.
 ModeAB=           2 MOrb=            18 LenV=     435407336
 LASXX=      9993987 LTotXX=     9993987 LenRXX=     9993987
 LTotAB=    10258224 MaxLAS=    24648624 LenRXY=    24648624
 NonZer=    25137000 LenScr=    38484992 LnRSAI=           0
 LnScr1=           0 LExtra=           0 Total=     73127603
 MaxDsk=          -1 SrtSym=           F ITran=            4
 JobTyp=0 Pass  1:  I=   1 to  18.
 (rs|ai) integrals will be sorted in core.
 Spin components of T(2) and E(2):
     alpha-alpha T2 =       0.3906537126D-01 E2=     -0.1147575521D+00
     alpha-beta  T2 =       0.1941988964D+00 E2=     -0.5920122474D+00
     beta-beta   T2 =       0.3906537126D-01 E2=     -0.1147575521D+00
 ANorm=    0.1127975904D+01
 E2 =    -0.8215273517D+00 EUMP2 =    -0.25761946122425D+03
 Keep R2 and R3 ints in memory in symmetry-blocked form, NReq=61458976.
 DD1Dir will call FoFMem   1 times, MxPair=       342
 NAB=   171 NAA=     0 NBB=     0.
 MP4(D)= -0.22037476D-01
 MP4(S)= -0.87256374D-02
 MP4(R+Q)=  0.22824721D-01
 Time for triples=      824.71 seconds.
 MP4(T)=   -0.44359117D-01
 E3=        0.66056490D-03        EUMP3=      -0.25761880066D+03
 E4(DQ)=    0.78724506D-03        UMP4(DQ)=   -0.25761801341D+03
 E4(SDQ)=  -0.79383924D-02        UMP4(SDQ)=  -0.25762673905D+03
 E4(SDTQ)= -0.52297510D-01        UMP4(SDTQ)= -0.25767109817D+03
 Largest amplitude= 5.32D-02
 Discarding MO integrals.

 **********************************************************************

            Population analysis using the SCF density.

 **********************************************************************

 Orbital symmetries:
       Occupied  (A') (A') (A') (A') (A') (A') (A') (A') (A') (A')
                 (A') (A") (A') (A') (A') (A') (A") (A")
       Virtual   (A') (A') (A") (A') (A') (A') (A") (A') (A') (A')
                 (A") (A") (A') (A") (A') (A') (A") (A') (A") (A')
                 (A') (A') (A') (A') (A') (A") (A') (A') (A') (A")
                 (A') (A') (A') (A") (A') (A') (A") (A') (A') (A')
                 (A') (A") (A') (A') (A') (A") (A") (A') (A') (A")
                 (A') (A") (A') (A") (A') (A') (A") (A') (A') (A")
                 (A') (A') (A') (A") (A") (A') (A") (A') (A') (A')
                 (A") (A") (A') (A") (A') (A') (A') (A") (A') (A')
                 (A') (A") (A') (A") (A') (A') (A") (A') (A") (A')
                 (A") (A') (A') (A') (A') (A') (A") (A') (A') (A")
                 (A') (A") (A') (A') (A") (A') (A') (A") (A') (A')
                 (A') (A') (A') (A') (A')
 The electronic state is 1-A'.
 Alpha  occ. eigenvalues --  -15.68574 -15.66623 -15.64868 -15.60648 -11.33972
 Alpha  occ. eigenvalues --   -1.52626  -1.27115  -1.21502  -0.91834  -0.90076
 Alpha  occ. eigenvalues --   -0.81260  -0.69241  -0.68677  -0.57679  -0.47976
 Alpha  occ. eigenvalues --   -0.46906  -0.46099  -0.42742
 Alpha virt. eigenvalues --    0.01946   0.04181   0.08133   0.08632   0.10883
 Alpha virt. eigenvalues --    0.12763   0.13622   0.14283   0.15631   0.16765
 Alpha virt. eigenvalues --    0.17027   0.17917   0.19853   0.20028   0.21572
 Alpha virt. eigenvalues --    0.24837   0.25336   0.26761   0.27561   0.28131
 Alpha virt. eigenvalues --    0.30134   0.32776   0.33650   0.36772   0.37465
 Alpha virt. eigenvalues --    0.38296   0.39713   0.41104   0.42593   0.44845
 Alpha virt. eigenvalues --    0.50001   0.53952   0.54145   0.58381   0.59113
 Alpha virt. eigenvalues --    0.62453   0.63010   0.64358   0.68937   0.70230
 Alpha virt. eigenvalues --    0.72071   0.74618   0.74642   0.75329   0.80799
 Alpha virt. eigenvalues --    0.82215   0.83214   0.84234   0.88199   0.89722
 Alpha virt. eigenvalues --    0.96098   0.99601   1.00870   1.01303   1.03318
 Alpha virt. eigenvalues --    1.04306   1.04986   1.07552   1.13226   1.15602
 Alpha virt. eigenvalues --    1.15717   1.18265   1.21897   1.27523   1.31066
 Alpha virt. eigenvalues --    1.35975   1.37682   1.38273   1.43728   1.54534
 Alpha virt. eigenvalues --    1.54998   1.60994   1.63002   1.66212   1.70580
 Alpha virt. eigenvalues --    1.76087   1.82335   1.86213   1.88451   1.96440
 Alpha virt. eigenvalues --    2.04192   2.04663   2.11690   2.12147   2.13864
 Alpha virt. eigenvalues --    2.21548   2.23132   2.30482   2.33579   2.35810
 Alpha virt. eigenvalues --    2.39187   2.41667   2.45696   2.55834   2.57536
 Alpha virt. eigenvalues --    2.62032   2.67871   2.70554   2.74114   2.83528
 Alpha virt. eigenvalues --    2.85757   2.89991   2.93222   2.95364   2.96313
 Alpha virt. eigenvalues --    3.08506   3.09883   3.22062   3.31137   3.35046
 Alpha virt. eigenvalues --    3.45253   3.52839   3.56876   3.95268   4.15376
          Condensed to atoms (all electrons):
               1          2          3          4          5          6
     1  C    4.321247   0.310964  -0.228215  -0.047030   0.379096   0.216023
     2  N    0.310964   6.764425  -0.274497   0.161098  -0.221897  -0.078298
     3  N   -0.228215  -0.274497   8.099892  -0.541855   0.286962  -0.001392
     4  N   -0.047030   0.161098  -0.541855   8.114454  -0.444507  -0.015737
     5  N    0.379096  -0.221897   0.286962  -0.444507   7.483619  -0.035269
     6  H    0.216023  -0.078298  -0.001392  -0.015737  -0.035269   1.030507
     7  H   -0.108761   0.514993  -0.185406   0.024183  -0.008446   0.010457
               7
     1  C   -0.108761
     2  N    0.514993
     3  N   -0.185406
     4  N    0.024183
     5  N   -0.008446
     6  H    0.010457
     7  H    0.760920
 Mulliken charges:
               1
     1  C    1.156674
     2  N   -0.176788
     3  N   -0.155489
     4  N   -0.250607
     5  N   -0.439558
     6  H   -0.126291
     7  H   -0.007941
 Sum of Mulliken charges =   0.00000
 Mulliken charges with hydrogens summed into heavy atoms:
               1
     1  C    1.030383
     2  N   -0.184729
     3  N   -0.155489
     4  N   -0.250607
     5  N   -0.439558
 Electronic spatial extent (au):  <R**2>=            245.3517
 Charge=              0.0000 electrons
 Dipole moment (field-independent basis, Debye):
    X=              2.6241    Y=              4.8842    Z=              0.0000  Tot=              5.5445
 Quadrupole moment (field-independent basis, Debye-Ang):
   XX=            -28.9051   YY=            -26.7681   ZZ=            -29.0240
   XY=              2.0155   XZ=              0.0000   YZ=              0.0000
 Traceless Quadrupole moment (field-independent basis, Debye-Ang):
   XX=             -0.6727   YY=              1.4643   ZZ=             -0.7916
   XY=              2.0155   XZ=              0.0000   YZ=              0.0000
 Octapole moment (field-independent basis, Debye-Ang**2):
  XXX=             12.6704  YYY=             22.8473  ZZZ=              0.0000  XYY=             -0.8184
  XXY=              5.0994  XXZ=              0.0000  XZZ=             -0.4634  YZZ=              0.8217
  YYZ=              0.0000  XYZ=              0.0000
 Hexadecapole moment (field-independent basis, Debye-Ang**3):
 XXXX=           -141.1497 YYYY=           -119.9044 ZZZZ=            -28.0444 XXXY=              7.2466
 XXXZ=              0.0000 YYYX=              0.1231 YYYZ=              0.0000 ZZZX=              0.0000
 ZZZY=              0.0000 XXYY=            -53.6680 XXZZ=            -31.0048 YYZZ=            -29.6579
 XXYZ=              0.0000 YYXZ=              0.0000 ZZXY=              0.2067
 N-N= 1.698308489506D+02 E-N=-9.411921627841D+02  KE= 2.567029595823D+02
 Symmetry A'   KE= 2.477106726782D+02
 Symmetry A"   KE= 8.992286904117D+00

 NEF-NEF-NEF-NEF-NEF-NEF-NEF-NEF-NEF-NEF-NEF-NEF-NEF-NEF-NEF-NEF-NEF-NEF-
 NUMERICAL EIGENVECTOR FOLLOWING MINIMUM SEARCH
 NUMERICALLY ESTIMATING GRADIENTS
 ITERATION   0 VARIABLE  1 STEP  1

 NEF-NEF-NEF-NEF-NEF-NEF-NEF-NEF-NEF-NEF-NEF-NEF-NEF-NEF-NEF-NEF-NEF-NEF-
 ---------------------------------------------------------------------------------------------------
                            Z-MATRIX (ANGSTROMS AND DEGREES)
   CD    Cent   Atom    N1       Length/X        N2       Alpha/Y        N3        Beta/Z          J
 ---------------------------------------------------------------------------------------------------
      1         X 
      2         X        1   1.000000(     1)
      3      1  C        1   1.000000(     2)      2   90.000(     9)
      4      2  N        1   1.242808(     3)      2   90.000(    10)      3   71.843(    16)      0
      5      3  N        1   1.333000(     4)      2   90.000(    11)      3  133.703(    17)      0
      6      4  N        1   1.114600(     5)      2   90.000(    12)      3  194.460(    18)      0
      7      5  N        1   0.926400(     6)      2   90.000(    13)      3  276.077(    19)      0
      8      6  H        3   1.067800(     7)      4  125.025(    14)      5  180.000(    20)      0
      9      7  H        4   0.994100(     8)      5  120.763(    15)      6  180.000(    21)      0
 ---------------------------------------------------------------------------------------------------
                         Z-Matrix orientation:                         
 ---------------------------------------------------------------------
 Center     Atomic      Atomic             Coordinates (Angstroms)
 Number     Number       Type             X           Y           Z
 ---------------------------------------------------------------------
      1         -1           0        0.000000    0.000000    0.000000
      2         -1           0        0.000000    0.000000    1.000000
      3          6           0        1.000000    0.000000    0.000000
      4          7           0        0.387292   -1.180922    0.000000
      5          7           0       -0.920993   -0.963670    0.000000
      6          7           0       -1.079293    0.278314    0.000000
      7          7           0        0.098070    0.921194    0.000000
      8          1           0        2.058413    0.141275    0.000000
      9          1           0        0.748953   -2.106900    0.000000
 ---------------------------------------------------------------------
                    Distance matrix (angstroms):
                    1          2          3          4          5
     1  X    0.000000
     2  X    1.000000   0.000000
     3  C    1.000000   1.414214   0.000000
     4  N    1.242808   1.595171   1.330409   0.000000
     5  N    1.333000   1.666400   2.149157   1.326201   0.000000
     6  N    1.114600   1.497442   2.097837   2.068875   1.252032
     7  N    0.926400   1.363164   1.289216   2.121920   2.142710
     8  H    2.063255   2.292820   1.067800   2.130927   3.177698
     9  H    2.236059   2.449482   2.121804   0.994100   2.023783
                    6          7          8          9
     6  N    0.000000
     7  N    1.341447   0.000000
     8  H    3.140698   2.109791   0.000000
     9  H    3.005285   3.097258   2.601726   0.000000
 Stoichiometry    CH2N4
 Framework group  CS[SG(CH2N4)]
 Deg. of freedom    11
 Full point group                 CS      NOp   2
 Largest Abelian subgroup         CS      NOp   2
 Largest concise Abelian subgroup C1      NOp   1
                         Standard orientation:                         
 ---------------------------------------------------------------------
 Center     Atomic      Atomic             Coordinates (Angstroms)
 Number     Number       Type             X           Y           Z
 ---------------------------------------------------------------------
      1          6           0        1.052745    0.225562    0.000000
      2          7           0        0.000000    1.039021    0.000000
      3          7           0       -1.095403    0.291423    0.000000
      4          7           0       -0.716388   -0.901864    0.000000
      5          7           0        0.622184   -0.989631    0.000000
      6          1           0        2.072339    0.542775    0.000000
      7          1           0       -0.061562    2.031213    0.000000
 ---------------------------------------------------------------------
 Rotational constants (GHZ):     10.9188444     10.7341595      5.4128572
 Standard basis: Aug-CC-pVDZ (5D, 7F)
 There are   104 symmetry adapted cartesian basis functions of A'  symmetry.
 There are    39 symmetry adapted cartesian basis functions of A"  symmetry.
 There are    94 symmetry adapted basis functions of A'  symmetry.
 There are    39 symmetry adapted basis functions of A"  symmetry.
   133 basis functions,   237 primitive gaussians,   143 cartesian basis functions
    18 alpha electrons       18 beta electrons
       nuclear repulsion energy       169.8247973453 Hartrees.
 NAtoms=    7 NActive=    7 NUniq=    7 SFac= 1.00D+00 NAtFMM=   60 NAOKFM=F Big=F
 Integral buffers will be    131072 words long.
 Raffenetti 1 integral format.
 Two-electron integral symmetry is turned on.
 One-electron integrals computed using PRISM.
 NBasis=   133 RedAO= T EigKep=  1.19D-04  NBF=    94    39
 NBsUse=   133 1.00D-06 EigRej= -1.00D+00 NBFU=    94    39
 Initial guess from the checkpoint file:  "/tmp/rdj3/g09-13184/Gau-13240.chk"
 B after Tr=     0.000000    0.000000    0.000000
         Rot=    1.000000    0.000000    0.000000    0.000005 Ang=   0.00 deg.
 Initial guess orbital symmetries:
       Occupied  (A') (A') (A') (A') (A') (A') (A') (A') (A') (A')
                 (A') (A") (A') (A') (A') (A') (A") (A")
       Virtual   (A') (A') (A') (A') (A') (A') (A') (A') (A') (A')
                 (A') (A') (A') (A') (A') (A') (A') (A') (A') (A')
                 (A') (A') (A') (A') (A') (A') (A') (A') (A') (A')
                 (A') (A') (A') (A') (A') (A') (A') (A') (A') (A')
                 (A') (A') (A') (A') (A') (A') (A') (A') (A') (A')
                 (A') (A') (A') (A') (A') (A') (A') (A') (A') (A')
                 (A') (A') (A') (A') (A') (A') (A') (A') (A') (A')
                 (A') (A') (A') (A') (A') (A') (A') (A') (A') (A")
                 (A") (A") (A") (A") (A") (A") (A") (A") (A") (A")
                 (A") (A") (A") (A") (A") (A") (A") (A") (A") (A")
                 (A") (A") (A") (A") (A") (A") (A") (A") (A") (A")
                 (A") (A") (A") (A") (A")
 ExpMin= 2.97D-02 ExpMax= 9.05D+03 ExpMxC= 3.09D+02 IAcc=3 IRadAn=         5 AccDes= 0.00D+00
 Harris functional with IExCor=  205 and IRadAn=       5 diagonalized for initial guess.
 HarFok:  IExCor=  205 AccDes= 0.00D+00 IRadAn=         5 IDoV= 1 UseB2=F ITyADJ=14
 ICtDFT=  3500011 ScaDFX=  1.000000  1.000000  1.000000  1.000000
 FoFCou: FMM=F IPFlag=           0 FMFlag=      100000 FMFlg1=           0
         NFxFlg=           0 DoJE=T BraDBF=F KetDBF=T FulRan=T
         wScrn=  0.000000 ICntrl=     500 IOpCl=  0 I1Cent=   200000004 NGrid=           0
         NMat0=    1 NMatS0=      1 NMatT0=    0 NMatD0=    1 NMtDS0=    0 NMtDT0=    0
 Petite list used in FoFCou.
 Keep R1 ints in memory in symmetry-blocked form, NReq=60288506.
 Requested convergence on RMS density matrix=1.00D-08 within 128 cycles.
 Requested convergence on MAX density matrix=1.00D-06.
 Requested convergence on             energy=1.00D-06.
 No special actions if energy rises.
 SCF Done:  E(RHF) =  -256.797934875     A.U. after    8 cycles
            NFock=  8  Conv=0.26D-08     -V/T= 2.0004
 Range of M.O.s used for correlation:     1   133
 NBasis=   133 NAE=    18 NBE=    18 NFC=     0 NFV=     0
 NROrb=    133 NOA=    18 NOB=    18 NVA=   115 NVB=   115

 **** Warning!!: The largest alpha MO coefficient is  0.30298319D+02

 Semi-Direct transformation.
 ModeAB=           2 MOrb=            18 LenV=     435407336
 LASXX=      9993987 LTotXX=     9993987 LenRXX=     9993987
 LTotAB=    10258224 MaxLAS=    24648624 LenRXY=    24648624
 NonZer=    25137000 LenScr=    38484992 LnRSAI=           0
 LnScr1=           0 LExtra=           0 Total=     73127603
 MaxDsk=          -1 SrtSym=           F ITran=            4
 JobTyp=0 Pass  1:  I=   1 to  18.
 (rs|ai) integrals will be sorted in core.
 Spin components of T(2) and E(2):
     alpha-alpha T2 =       0.3906698431D-01 E2=     -0.1147583477D+00
     alpha-beta  T2 =       0.1942094585D+00 E2=     -0.5920226823D+00
     beta-beta   T2 =       0.3906698431D-01 E2=     -0.1147583477D+00
 ANorm=    0.1127982015D+01
 E2 =    -0.8215393778D+00 EUMP2 =    -0.25761947425322D+03
 Keep R2 and R3 ints in memory in symmetry-blocked form, NReq=61458976.
 DD1Dir will call FoFMem   1 times, MxPair=       342
 NAB=   171 NAA=     0 NBB=     0.
 MP4(D)= -0.22038976D-01
 MP4(S)= -0.87273777D-02
 MP4(R+Q)=  0.22826235D-01
 Time for triples=      822.80 seconds.
 MP4(T)=   -0.44362314D-01
 E3=        0.66192210D-03        EUMP3=      -0.25761881233D+03
 E4(DQ)=    0.78725889D-03        UMP4(DQ)=   -0.25761802507D+03
 E4(SDQ)=  -0.79401188D-02        UMP4(SDQ)=  -0.25762675245D+03
 E4(SDTQ)= -0.52302433D-01        UMP4(SDTQ)= -0.25767111476D+03
 Largest amplitude= 5.32D-02
 Discarding MO integrals.

 NEF-NEF-NEF-NEF-NEF-NEF-NEF-NEF-NEF-NEF-NEF-NEF-NEF-NEF-NEF-NEF-NEF-NEF-
 NUMERICAL EIGENVECTOR FOLLOWING MINIMUM SEARCH
 NUMERICALLY ESTIMATING GRADIENTS
 ITERATION   0 VARIABLE  1 STEP  2

 NEF-NEF-NEF-NEF-NEF-NEF-NEF-NEF-NEF-NEF-NEF-NEF-NEF-NEF-NEF-NEF-NEF-NEF-
 ---------------------------------------------------------------------------------------------------
                            Z-MATRIX (ANGSTROMS AND DEGREES)
   CD    Cent   Atom    N1       Length/X        N2       Alpha/Y        N3        Beta/Z          J
 ---------------------------------------------------------------------------------------------------
      1         X 
      2         X        1   1.000000(     1)
      3      1  C        1   1.000000(     2)      2   90.000(     9)
      4      2  N        1   1.242392(     3)      2   90.000(    10)      3   71.843(    16)      0
      5      3  N        1   1.333000(     4)      2   90.000(    11)      3  133.703(    17)      0
      6      4  N        1   1.114600(     5)      2   90.000(    12)      3  194.460(    18)      0
      7      5  N        1   0.926400(     6)      2   90.000(    13)      3  276.077(    19)      0
      8      6  H        3   1.067800(     7)      4  125.025(    14)      5  180.000(    20)      0
      9      7  H        4   0.994100(     8)      5  120.763(    15)      6  180.000(    21)      0
 ---------------------------------------------------------------------------------------------------
                         Z-Matrix orientation:                         
 ---------------------------------------------------------------------
 Center     Atomic      Atomic             Coordinates (Angstroms)
 Number     Number       Type             X           Y           Z
 ---------------------------------------------------------------------
      1         -1           0        0.000000    0.000000    0.000000
      2         -1           0        0.000000    0.000000    1.000000
      3          6           0        1.000000    0.000000    0.000000
      4          7           0        0.387163   -1.180526    0.000000
      5          7           0       -0.920993   -0.963670    0.000000
      6          7           0       -1.079293    0.278314    0.000000
      7          7           0        0.098070    0.921194    0.000000
      8          1           0        2.058445    0.141038    0.000000
      9          1           0        0.749081   -2.106404    0.000000
 ---------------------------------------------------------------------
                    Distance matrix (angstroms):
                    1          2          3          4          5
     1  X    0.000000
     2  X    1.000000   0.000000
     3  C    1.000000   1.414214   0.000000
     4  N    1.242392   1.594847   1.330117   0.000000
     5  N    1.333000   1.666400   2.149157   1.326009   0.000000
     6  N    1.114600   1.497442   2.097837   2.068504   1.252032
     7  N    0.926400   1.363164   1.289216   2.121510   2.142710
     8  H    2.063271   2.292834   1.067800   2.130661   3.177646
     9  H    2.235635   2.449094   2.121297   0.994100   2.023608
                    6          7          8          9
     6  N    0.000000
     7  N    1.341447   0.000000
     8  H    3.140740   2.109908   0.000000
     9  H    3.004969   3.096800   2.601044   0.000000
 Stoichiometry    CH2N4
 Framework group  CS[SG(CH2N4)]
 Deg. of freedom    11
 Full point group                 CS      NOp   2
 Largest Abelian subgroup         CS      NOp   2
 Largest concise Abelian subgroup C1      NOp   1
                         Standard orientation:                         
 ---------------------------------------------------------------------
 Center     Atomic      Atomic             Coordinates (Angstroms)
 Number     Number       Type             X           Y           Z
 ---------------------------------------------------------------------
      1          6           0        1.052721    0.225680    0.000000
      2          7           0        0.000000    1.038693    0.000000
      3          7           0       -1.095428    0.291474    0.000000
      4          7           0       -0.716377   -0.901801    0.000000
      5          7           0        0.622198   -0.989527    0.000000
      6          1           0        2.072235    0.543153    0.000000
      7          1           0       -0.061316    2.030900    0.000000
 ---------------------------------------------------------------------
 Rotational constants (GHZ):     10.9214640     10.7348467      5.4136756
 Standard basis: Aug-CC-pVDZ (5D, 7F)
 There are   104 symmetry adapted cartesian basis functions of A'  symmetry.
 There are    39 symmetry adapted cartesian basis functions of A"  symmetry.
 There are    94 symmetry adapted basis functions of A'  symmetry.
 There are    39 symmetry adapted basis functions of A"  symmetry.
   133 basis functions,   237 primitive gaussians,   143 cartesian basis functions
    18 alpha electrons       18 beta electrons
       nuclear repulsion energy       169.8369010628 Hartrees.
 NAtoms=    7 NActive=    7 NUniq=    7 SFac= 1.00D+00 NAtFMM=   60 NAOKFM=F Big=F
 Integral buffers will be    131072 words long.
 Raffenetti 1 integral format.
 Two-electron integral symmetry is turned on.
 One-electron integrals computed using PRISM.
 NBasis=   133 RedAO= T EigKep=  1.19D-04  NBF=    94    39
 NBsUse=   133 1.00D-06 EigRej= -1.00D+00 NBFU=    94    39
 Initial guess from the checkpoint file:  "/tmp/rdj3/g09-13184/Gau-13240.chk"
 B after Tr=     0.000000    0.000000    0.000000
         Rot=    1.000000    0.000000    0.000000   -0.000011 Ang=   0.00 deg.
 Initial guess orbital symmetries:
       Occupied  (A') (A') (A') (A') (A') (A') (A') (A') (A') (A')
                 (A') (A") (A') (A') (A') (A') (A") (A")
       Virtual   (A') (A') (A') (A') (A') (A') (A') (A') (A') (A')
                 (A') (A') (A') (A') (A') (A') (A') (A') (A') (A')
                 (A') (A') (A') (A') (A') (A') (A') (A') (A') (A')
                 (A') (A') (A') (A') (A') (A') (A') (A') (A') (A')
                 (A') (A') (A') (A') (A') (A') (A') (A') (A') (A')
                 (A') (A') (A') (A') (A') (A') (A') (A') (A') (A')
                 (A') (A') (A') (A') (A') (A') (A') (A') (A') (A')
                 (A') (A') (A') (A') (A') (A') (A') (A') (A') (A")
                 (A") (A") (A") (A") (A") (A") (A") (A") (A") (A")
                 (A") (A") (A") (A") (A") (A") (A") (A") (A") (A")
                 (A") (A") (A") (A") (A") (A") (A") (A") (A") (A")
                 (A") (A") (A") (A") (A")
 ExpMin= 2.97D-02 ExpMax= 9.05D+03 ExpMxC= 3.09D+02 IAcc=3 IRadAn=         5 AccDes= 0.00D+00
 Harris functional with IExCor=  205 and IRadAn=       5 diagonalized for initial guess.
 HarFok:  IExCor=  205 AccDes= 0.00D+00 IRadAn=         5 IDoV= 1 UseB2=F ITyADJ=14
 ICtDFT=  3500011 ScaDFX=  1.000000  1.000000  1.000000  1.000000
 FoFCou: FMM=F IPFlag=           0 FMFlag=      100000 FMFlg1=           0
         NFxFlg=           0 DoJE=T BraDBF=F KetDBF=T FulRan=T
         wScrn=  0.000000 ICntrl=     500 IOpCl=  0 I1Cent=   200000004 NGrid=           0
         NMat0=    1 NMatS0=      1 NMatT0=    0 NMatD0=    1 NMtDS0=    0 NMtDT0=    0
 Petite list used in FoFCou.
 Keep R1 ints in memory in symmetry-blocked form, NReq=60288506.
 Requested convergence on RMS density matrix=1.00D-08 within 128 cycles.
 Requested convergence on MAX density matrix=1.00D-06.
 Requested convergence on             energy=1.00D-06.
 No special actions if energy rises.
 SCF Done:  E(RHF) =  -256.797932761     A.U. after    8 cycles
            NFock=  8  Conv=0.51D-08     -V/T= 2.0004
 Range of M.O.s used for correlation:     1   133
 NBasis=   133 NAE=    18 NBE=    18 NFC=     0 NFV=     0
 NROrb=    133 NOA=    18 NOB=    18 NVA=   115 NVB=   115

 **** Warning!!: The largest alpha MO coefficient is  0.30296725D+02

 Semi-Direct transformation.
 ModeAB=           2 MOrb=            18 LenV=     435407336
 LASXX=      9993987 LTotXX=     9993987 LenRXX=     9993987
 LTotAB=    10258224 MaxLAS=    24648624 LenRXY=    24648624
 NonZer=    25137000 LenScr=    38484992 LnRSAI=           0
 LnScr1=           0 LExtra=           0 Total=     73127603
 MaxDsk=          -1 SrtSym=           F ITran=            4
 JobTyp=0 Pass  1:  I=   1 to  18.
 (rs|ai) integrals will be sorted in core.
 Spin components of T(2) and E(2):
     alpha-alpha T2 =       0.3906375926D-01 E2=     -0.1147567579D+00
     alpha-beta  T2 =       0.1941883396D+00 E2=     -0.5920018190D+00
     beta-beta   T2 =       0.3906375926D-01 E2=     -0.1147567579D+00
 ANorm=    0.1127969795D+01
 E2 =    -0.8215153348D+00 EUMP2 =    -0.25761944809547D+03
 Keep R2 and R3 ints in memory in symmetry-blocked form, NReq=61458976.
 DD1Dir will call FoFMem   1 times, MxPair=       342
 NAB=   171 NAA=     0 NBB=     0.
 MP4(D)= -0.22035978D-01
 MP4(S)= -0.87238980D-02
 MP4(R+Q)=  0.22823209D-01
 Time for triples=      809.88 seconds.
 MP4(T)=   -0.44355923D-01
 E3=        0.65921124D-03        EUMP3=      -0.25761878888D+03
 E4(DQ)=    0.78723089D-03        UMP4(DQ)=   -0.25761800165D+03
 E4(SDQ)=  -0.79366671D-02        UMP4(SDQ)=  -0.25762672555D+03
 E4(SDTQ)= -0.52292590D-01        UMP4(SDTQ)= -0.25767108147D+03
 Largest amplitude= 5.32D-02
 Discarding MO integrals.

 NEF-NEF-NEF-NEF-NEF-NEF-NEF-NEF-NEF-NEF-NEF-NEF-NEF-NEF-NEF-NEF-NEF-NEF-
 NUMERICAL EIGENVECTOR FOLLOWING MINIMUM SEARCH
 NUMERICALLY ESTIMATING GRADIENTS
 ITERATION   0 VARIABLE  2 STEP  1

 NEF-NEF-NEF-NEF-NEF-NEF-NEF-NEF-NEF-NEF-NEF-NEF-NEF-NEF-NEF-NEF-NEF-NEF-
 ---------------------------------------------------------------------------------------------------
                            Z-MATRIX (ANGSTROMS AND DEGREES)
   CD    Cent   Atom    N1       Length/X        N2       Alpha/Y        N3        Beta/Z          J
 ---------------------------------------------------------------------------------------------------
      1         X 
      2         X        1   1.000000(     1)
      3      1  C        1   1.000000(     2)      2   90.000(     9)
      4      2  N        1   1.242600(     3)      2   90.000(    10)      3   71.843(    16)      0
      5      3  N        1   1.333208(     4)      2   90.000(    11)      3  133.703(    17)      0
      6      4  N        1   1.114600(     5)      2   90.000(    12)      3  194.460(    18)      0
      7      5  N        1   0.926400(     6)      2   90.000(    13)      3  276.077(    19)      0
      8      6  H        3   1.067800(     7)      4  125.025(    14)      5  180.000(    20)      0
      9      7  H        4   0.994100(     8)      5  120.763(    15)      6  180.000(    21)      0
 ---------------------------------------------------------------------------------------------------
                         Z-Matrix orientation:                         
 ---------------------------------------------------------------------
 Center     Atomic      Atomic             Coordinates (Angstroms)
 Number     Number       Type             X           Y           Z
 ---------------------------------------------------------------------
      1         -1           0        0.000000    0.000000    0.000000
      2         -1           0        0.000000    0.000000    1.000000
      3          6           0        1.000000    0.000000    0.000000
      4          7           0        0.387228   -1.180724    0.000000
      5          7           0       -0.921137   -0.963821    0.000000
      6          7           0       -1.079293    0.278314    0.000000
      7          7           0        0.098070    0.921194    0.000000
      8          1           0        2.058429    0.141157    0.000000
      9          1           0        0.749137   -2.106606    0.000000
 ---------------------------------------------------------------------
                    Distance matrix (angstroms):
                    1          2          3          4          5
     1  X    0.000000
     2  X    1.000000   0.000000
     3  C    1.000000   1.414214   0.000000
     4  N    1.242600   1.595009   1.330263   0.000000
     5  N    1.333208   1.666566   2.149353   1.326222   0.000000
     6  N    1.114600   1.497442   2.097837   2.068690   1.252163
     7  N    0.926400   1.363164   1.289216   2.121715   2.142910
     8  H    2.063263   2.292827   1.067800   2.130794   3.177859
     9  H    2.235843   2.449284   2.121490   0.994100   2.023802
                    6          7          8          9
     6  N    0.000000
     7  N    1.341447   0.000000
     8  H    3.140719   2.109850   0.000000
     9  H    3.005162   3.097008   2.601284   0.000000
 Stoichiometry    CH2N4
 Framework group  CS[SG(CH2N4)]
 Deg. of freedom    11
 Full point group                 CS      NOp   2
 Largest Abelian subgroup         CS      NOp   2
 Largest concise Abelian subgroup C1      NOp   1
                         Standard orientation:                         
 ---------------------------------------------------------------------
 Center     Atomic      Atomic             Coordinates (Angstroms)
 Number     Number       Type             X           Y           Z
 ---------------------------------------------------------------------
      1          6           0        1.052760    0.225640    0.000000
      2          7           0        0.000000    1.038842    0.000000
      3          7           0       -1.095585    0.291473    0.000000
      4          7           0       -0.716319   -0.901871    0.000000
      5          7           0        0.622258   -0.989574    0.000000
      6          1           0        2.072303    0.543017    0.000000
      7          1           0       -0.061343    2.031047    0.000000
 ---------------------------------------------------------------------
 Rotational constants (GHZ):     10.9201057     10.7330654      5.4128889
 Standard basis: Aug-CC-pVDZ (5D, 7F)
 There are   104 symmetry adapted cartesian basis functions of A'  symmetry.
 There are    39 symmetry adapted cartesian basis functions of A"  symmetry.
 There are    94 symmetry adapted basis functions of A'  symmetry.
 There are    39 symmetry adapted basis functions of A"  symmetry.
   133 basis functions,   237 primitive gaussians,   143 cartesian basis functions
    18 alpha electrons       18 beta electrons
       nuclear repulsion energy       169.8247559073 Hartrees.
 NAtoms=    7 NActive=    7 NUniq=    7 SFac= 1.00D+00 NAtFMM=   60 NAOKFM=F Big=F
 Integral buffers will be    131072 words long.
 Raffenetti 1 integral format.
 Two-electron integral symmetry is turned on.
 One-electron integrals computed using PRISM.
 NBasis=   133 RedAO= T EigKep=  1.19D-04  NBF=    94    39
 NBsUse=   133 1.00D-06 EigRej= -1.00D+00 NBFU=    94    39
 Initial guess from the checkpoint file:  "/tmp/rdj3/g09-13184/Gau-13240.chk"
 B after Tr=     0.000000    0.000000    0.000000
         Rot=    1.000000    0.000000    0.000000   -0.000007 Ang=   0.00 deg.
 Initial guess orbital symmetries:
       Occupied  (A') (A') (A') (A') (A') (A') (A') (A') (A') (A')
                 (A') (A") (A') (A') (A') (A') (A") (A")
       Virtual   (A') (A') (A') (A') (A') (A') (A') (A') (A') (A')
                 (A') (A') (A') (A') (A') (A') (A') (A') (A') (A')
                 (A') (A') (A') (A') (A') (A') (A') (A') (A') (A')
                 (A') (A') (A') (A') (A') (A') (A') (A') (A') (A')
                 (A') (A') (A') (A') (A') (A') (A') (A') (A') (A')
                 (A') (A') (A') (A') (A') (A') (A') (A') (A') (A')
                 (A') (A') (A') (A') (A') (A') (A') (A') (A') (A')
                 (A') (A') (A') (A') (A') (A') (A') (A') (A') (A")
                 (A") (A") (A") (A") (A") (A") (A") (A") (A") (A")
                 (A") (A") (A") (A") (A") (A") (A") (A") (A") (A")
                 (A") (A") (A") (A") (A") (A") (A") (A") (A") (A")
                 (A") (A") (A") (A") (A")
 ExpMin= 2.97D-02 ExpMax= 9.05D+03 ExpMxC= 3.09D+02 IAcc=3 IRadAn=         5 AccDes= 0.00D+00
 Harris functional with IExCor=  205 and IRadAn=       5 diagonalized for initial guess.
 HarFok:  IExCor=  205 AccDes= 0.00D+00 IRadAn=         5 IDoV= 1 UseB2=F ITyADJ=14
 ICtDFT=  3500011 ScaDFX=  1.000000  1.000000  1.000000  1.000000
 FoFCou: FMM=F IPFlag=           0 FMFlag=      100000 FMFlg1=           0
         NFxFlg=           0 DoJE=T BraDBF=F KetDBF=T FulRan=T
         wScrn=  0.000000 ICntrl=     500 IOpCl=  0 I1Cent=   200000004 NGrid=           0
         NMat0=    1 NMatS0=      1 NMatT0=    0 NMatD0=    1 NMtDS0=    0 NMtDT0=    0
 Petite list used in FoFCou.
 Keep R1 ints in memory in symmetry-blocked form, NReq=60288506.
 Requested convergence on RMS density matrix=1.00D-08 within 128 cycles.
 Requested convergence on MAX density matrix=1.00D-06.
 Requested convergence on             energy=1.00D-06.
 No special actions if energy rises.
 SCF Done:  E(RHF) =  -256.797934335     A.U. after    8 cycles
            NFock=  8  Conv=0.78D-08     -V/T= 2.0004
 Range of M.O.s used for correlation:     1   133
 NBasis=   133 NAE=    18 NBE=    18 NFC=     0 NFV=     0
 NROrb=    133 NOA=    18 NOB=    18 NVA=   115 NVB=   115

 **** Warning!!: The largest alpha MO coefficient is  0.30291011D+02

 Semi-Direct transformation.
 ModeAB=           2 MOrb=            18 LenV=     435407336
 LASXX=      9993987 LTotXX=     9993987 LenRXX=     9993987
 LTotAB=    10258224 MaxLAS=    24648624 LenRXY=    24648624
 NonZer=    25137000 LenScr=    38484992 LnRSAI=           0
 LnScr1=           0 LExtra=           0 Total=     73127603
 MaxDsk=          -1 SrtSym=           F ITran=            4
 JobTyp=0 Pass  1:  I=   1 to  18.
 (rs|ai) integrals will be sorted in core.
 Spin components of T(2) and E(2):
     alpha-alpha T2 =       0.3906883932D-01 E2=     -0.1147609696D+00
     alpha-beta  T2 =       0.1942157855D+00 E2=     -0.5920308664D+00
     beta-beta   T2 =       0.3906883932D-01 E2=     -0.1147609696D+00
 ANorm=    0.1127986465D+01
 E2 =    -0.8215528057D+00 EUMP2 =    -0.25761948714103D+03
 Keep R2 and R3 ints in memory in symmetry-blocked form, NReq=61458976.
 DD1Dir will call FoFMem   1 times, MxPair=       342
 NAB=   171 NAA=     0 NBB=     0.
 MP4(D)= -0.22040524D-01
 MP4(S)= -0.87271304D-02
 MP4(R+Q)=  0.22828102D-01
 Time for triples=      820.30 seconds.
 MP4(T)=   -0.44365612D-01
 E3=        0.66710925D-03        EUMP3=      -0.25761882003D+03
 E4(DQ)=    0.78757768D-03        UMP4(DQ)=   -0.25761803245D+03
 E4(SDQ)=  -0.79395528D-02        UMP4(SDQ)=  -0.25762675958D+03
 E4(SDTQ)= -0.52305164D-01        UMP4(SDTQ)= -0.25767112520D+03
 Largest amplitude= 5.32D-02
 Discarding MO integrals.

 NEF-NEF-NEF-NEF-NEF-NEF-NEF-NEF-NEF-NEF-NEF-NEF-NEF-NEF-NEF-NEF-NEF-NEF-
 NUMERICAL EIGENVECTOR FOLLOWING MINIMUM SEARCH
 NUMERICALLY ESTIMATING GRADIENTS
 ITERATION   0 VARIABLE  2 STEP  2

 NEF-NEF-NEF-NEF-NEF-NEF-NEF-NEF-NEF-NEF-NEF-NEF-NEF-NEF-NEF-NEF-NEF-NEF-
 ---------------------------------------------------------------------------------------------------
                            Z-MATRIX (ANGSTROMS AND DEGREES)
   CD    Cent   Atom    N1       Length/X        N2       Alpha/Y        N3        Beta/Z          J
 ---------------------------------------------------------------------------------------------------
      1         X 
      2         X        1   1.000000(     1)
      3      1  C        1   1.000000(     2)      2   90.000(     9)
      4      2  N        1   1.242600(     3)      2   90.000(    10)      3   71.843(    16)      0
      5      3  N        1   1.332792(     4)      2   90.000(    11)      3  133.703(    17)      0
      6      4  N        1   1.114600(     5)      2   90.000(    12)      3  194.460(    18)      0
      7      5  N        1   0.926400(     6)      2   90.000(    13)      3  276.077(    19)      0
      8      6  H        3   1.067800(     7)      4  125.025(    14)      5  180.000(    20)      0
      9      7  H        4   0.994100(     8)      5  120.763(    15)      6  180.000(    21)      0
 ---------------------------------------------------------------------------------------------------
                         Z-Matrix orientation:                         
 ---------------------------------------------------------------------
 Center     Atomic      Atomic             Coordinates (Angstroms)
 Number     Number       Type             X           Y           Z
 ---------------------------------------------------------------------
      1         -1           0        0.000000    0.000000    0.000000
      2         -1           0        0.000000    0.000000    1.000000
      3          6           0        1.000000    0.000000    0.000000
      4          7           0        0.387228   -1.180724    0.000000
      5          7           0       -0.920850   -0.963520    0.000000
      6          7           0       -1.079293    0.278314    0.000000
      7          7           0        0.098070    0.921194    0.000000
      8          1           0        2.058429    0.141157    0.000000
      9          1           0        0.748897   -2.106699    0.000000
 ---------------------------------------------------------------------
                    Distance matrix (angstroms):
                    1          2          3          4          5
     1  X    0.000000
     2  X    1.000000   0.000000
     3  C    1.000000   1.414214   0.000000
     4  N    1.242600   1.595009   1.330263   0.000000
     5  N    1.332792   1.666234   2.148961   1.325988   0.000000
     6  N    1.114600   1.497442   2.097837   2.068690   1.251901
     7  N    0.926400   1.363164   1.289216   2.121715   2.142509
     8  H    2.063263   2.292827   1.067800   2.130794   3.177485
     9  H    2.235851   2.449292   2.121611   0.994100   2.023589
                    6          7          8          9
     6  N    0.000000
     7  N    1.341447   0.000000
     8  H    3.140719   2.109850   0.000000
     9  H    3.005091   3.097050   2.601486   0.000000
 Stoichiometry    CH2N4
 Framework group  CS[SG(CH2N4)]
 Deg. of freedom    11
 Full point group                 CS      NOp   2
 Largest Abelian subgroup         CS      NOp   2
 Largest concise Abelian subgroup C1      NOp   1
                         Standard orientation:                         
 ---------------------------------------------------------------------
 Center     Atomic      Atomic             Coordinates (Angstroms)
 Number     Number       Type             X           Y           Z
 ---------------------------------------------------------------------
      1          6           0        1.052706    0.225601    0.000000
      2          7           0        0.000000    1.038872    0.000000
      3          7           0       -1.095246    0.291423    0.000000
      4          7           0       -0.716446   -0.901794    0.000000
      5          7           0        0.622125   -0.989585    0.000000
      6          1           0        2.072271    0.542911    0.000000
      7          1           0       -0.061535    2.031065    0.000000
 ---------------------------------------------------------------------
 Rotational constants (GHZ):     10.9201978     10.7359455      5.4136439
 Standard basis: Aug-CC-pVDZ (5D, 7F)
 There are   104 symmetry adapted cartesian basis functions of A'  symmetry.
 There are    39 symmetry adapted cartesian basis functions of A"  symmetry.
 There are    94 symmetry adapted basis functions of A'  symmetry.
 There are    39 symmetry adapted basis functions of A"  symmetry.
   133 basis functions,   237 primitive gaussians,   143 cartesian basis functions
    18 alpha electrons       18 beta electrons
       nuclear repulsion energy       169.8369424538 Hartrees.
 NAtoms=    7 NActive=    7 NUniq=    7 SFac= 1.00D+00 NAtFMM=   60 NAOKFM=F Big=F
 Integral buffers will be    131072 words long.
 Raffenetti 1 integral format.
 Two-electron integral symmetry is turned on.
 One-electron integrals computed using PRISM.
 NBasis=   133 RedAO= T EigKep=  1.19D-04  NBF=    94    39
 NBsUse=   133 1.00D-06 EigRej= -1.00D+00 NBFU=    94    39
 Initial guess from the checkpoint file:  "/tmp/rdj3/g09-13184/Gau-13240.chk"
 B after Tr=     0.000000    0.000000    0.000000
         Rot=    1.000000    0.000000    0.000000    0.000024 Ang=   0.00 deg.
 Initial guess orbital symmetries:
       Occupied  (A') (A') (A') (A') (A') (A') (A') (A') (A') (A')
                 (A') (A") (A') (A') (A') (A') (A") (A")
       Virtual   (A') (A') (A') (A') (A') (A') (A') (A') (A') (A')
                 (A') (A') (A') (A') (A') (A') (A') (A') (A') (A')
                 (A') (A') (A') (A') (A') (A') (A') (A') (A') (A')
                 (A') (A') (A') (A') (A') (A') (A') (A') (A') (A')
                 (A') (A') (A') (A') (A') (A') (A') (A') (A') (A')
                 (A') (A') (A') (A') (A') (A') (A') (A') (A') (A')
                 (A') (A') (A') (A') (A') (A') (A') (A') (A') (A')
                 (A') (A') (A') (A') (A') (A') (A') (A') (A') (A")
                 (A") (A") (A") (A") (A") (A") (A") (A") (A") (A")
                 (A") (A") (A") (A") (A") (A") (A") (A") (A") (A")
                 (A") (A") (A") (A") (A") (A") (A") (A") (A") (A")
                 (A") (A") (A") (A") (A")
 ExpMin= 2.97D-02 ExpMax= 9.05D+03 ExpMxC= 3.09D+02 IAcc=3 IRadAn=         5 AccDes= 0.00D+00
 Harris functional with IExCor=  205 and IRadAn=       5 diagonalized for initial guess.
 HarFok:  IExCor=  205 AccDes= 0.00D+00 IRadAn=         5 IDoV= 1 UseB2=F ITyADJ=14
 ICtDFT=  3500011 ScaDFX=  1.000000  1.000000  1.000000  1.000000
 FoFCou: FMM=F IPFlag=           0 FMFlag=      100000 FMFlg1=           0
         NFxFlg=           0 DoJE=T BraDBF=F KetDBF=T FulRan=T
         wScrn=  0.000000 ICntrl=     500 IOpCl=  0 I1Cent=   200000004 NGrid=           0
         NMat0=    1 NMatS0=      1 NMatT0=    0 NMatD0=    1 NMtDS0=    0 NMtDT0=    0
 Petite list used in FoFCou.
 Keep R1 ints in memory in symmetry-blocked form, NReq=60288506.
 Requested convergence on RMS density matrix=1.00D-08 within 128 cycles.
 Requested convergence on MAX density matrix=1.00D-06.
 Requested convergence on             energy=1.00D-06.
 No special actions if energy rises.
 SCF Done:  E(RHF) =  -256.797933293     A.U. after    9 cycles
            NFock=  9  Conv=0.23D-08     -V/T= 2.0004
 Range of M.O.s used for correlation:     1   133
 NBasis=   133 NAE=    18 NBE=    18 NFC=     0 NFV=     0
 NROrb=    133 NOA=    18 NOB=    18 NVA=   115 NVB=   115

 **** Warning!!: The largest alpha MO coefficient is  0.30304038D+02

 Semi-Direct transformation.
 ModeAB=           2 MOrb=            18 LenV=     435407336
 LASXX=      9993987 LTotXX=     9993987 LenRXX=     9993987
 LTotAB=    10258224 MaxLAS=    24648624 LenRXY=    24648624
 NonZer=    25137000 LenScr=    38484992 LnRSAI=           0
 LnScr1=           0 LExtra=           0 Total=     73127603
 MaxDsk=          -1 SrtSym=           F ITran=            4
 JobTyp=0 Pass  1:  I=   1 to  18.
 (rs|ai) integrals will be sorted in core.
 Spin components of T(2) and E(2):
     alpha-alpha T2 =       0.3906190403D-01 E2=     -0.1147541353D+00
     alpha-beta  T2 =       0.1941820137D+00 E2=     -0.5919936342D+00
     beta-beta   T2 =       0.3906190403D-01 E2=     -0.1147541353D+00
 ANorm=    0.1127965346D+01
 E2 =    -0.8215019047D+00 EUMP2 =    -0.25761943519766D+03
 Keep R2 and R3 ints in memory in symmetry-blocked form, NReq=61458976.
 DD1Dir will call FoFMem   1 times, MxPair=       342
 NAB=   171 NAA=     0 NBB=     0.
 MP4(D)= -0.22034430D-01
 MP4(S)= -0.87241458D-02
 MP4(R+Q)=  0.22821342D-01
 Time for triples=      805.69 seconds.
 MP4(T)=   -0.44352626D-01
 E3=        0.65402408D-03        EUMP3=      -0.25761878117D+03
 E4(DQ)=    0.78691201D-03        UMP4(DQ)=   -0.25761799426D+03
 E4(SDQ)=  -0.79372338D-02        UMP4(SDQ)=  -0.25762671841D+03
 E4(SDTQ)= -0.52289859D-01        UMP4(SDTQ)= -0.25767107103D+03
 Largest amplitude= 5.32D-02
 Discarding MO integrals.

 NEF-NEF-NEF-NEF-NEF-NEF-NEF-NEF-NEF-NEF-NEF-NEF-NEF-NEF-NEF-NEF-NEF-NEF-
 NUMERICAL EIGENVECTOR FOLLOWING MINIMUM SEARCH
 NUMERICALLY ESTIMATING GRADIENTS
 ITERATION   0 VARIABLE  3 STEP  1

 NEF-NEF-NEF-NEF-NEF-NEF-NEF-NEF-NEF-NEF-NEF-NEF-NEF-NEF-NEF-NEF-NEF-NEF-
 ---------------------------------------------------------------------------------------------------
                            Z-MATRIX (ANGSTROMS AND DEGREES)
   CD    Cent   Atom    N1       Length/X        N2       Alpha/Y        N3        Beta/Z          J
 ---------------------------------------------------------------------------------------------------
      1         X 
      2         X        1   1.000000(     1)
      3      1  C        1   1.000000(     2)      2   90.000(     9)
      4      2  N        1   1.242600(     3)      2   90.000(    10)      3   71.843(    16)      0
      5      3  N        1   1.333000(     4)      2   90.000(    11)      3  133.703(    17)      0
      6      4  N        1   1.114808(     5)      2   90.000(    12)      3  194.460(    18)      0
      7      5  N        1   0.926400(     6)      2   90.000(    13)      3  276.077(    19)      0
      8      6  H        3   1.067800(     7)      4  125.025(    14)      5  180.000(    20)      0
      9      7  H        4   0.994100(     8)      5  120.763(    15)      6  180.000(    21)      0
 ---------------------------------------------------------------------------------------------------
                         Z-Matrix orientation:                         
 ---------------------------------------------------------------------
 Center     Atomic      Atomic             Coordinates (Angstroms)
 Number     Number       Type             X           Y           Z
 ---------------------------------------------------------------------
      1         -1           0        0.000000    0.000000    0.000000
      2         -1           0        0.000000    0.000000    1.000000
      3          6           0        1.000000    0.000000    0.000000
      4          7           0        0.387228   -1.180724    0.000000
      5          7           0       -0.920993   -0.963670    0.000000
      6          7           0       -1.079495    0.278366    0.000000
      7          7           0        0.098070    0.921194    0.000000
      8          1           0        2.058429    0.141157    0.000000
      9          1           0        0.749017   -2.106652    0.000000
 ---------------------------------------------------------------------
                    Distance matrix (angstroms):
                    1          2          3          4          5
     1  X    0.000000
     2  X    1.000000   0.000000
     3  C    1.000000   1.414214   0.000000
     4  N    1.242600   1.595009   1.330263   0.000000
     5  N    1.333000   1.666400   2.149157   1.326105   0.000000
     6  N    1.114808   1.497597   2.098044   2.068869   1.252109
     7  N    0.926400   1.363164   1.289216   2.121715   2.142710
     8  H    2.063263   2.292827   1.067800   2.130794   3.177672
     9  H    2.235847   2.449288   2.121551   0.994100   2.023695
                    6          7          8          9
     6  N    0.000000
     7  N    1.341599   0.000000
     8  H    3.140922   2.109850   0.000000
     9  H    3.005291   3.097029   2.601385   0.000000
 Stoichiometry    CH2N4
 Framework group  CS[SG(CH2N4)]
 Deg. of freedom    11
 Full point group                 CS      NOp   2
 Largest Abelian subgroup         CS      NOp   2
 Largest concise Abelian subgroup C1      NOp   1
                         Standard orientation:                         
 ---------------------------------------------------------------------
 Center     Atomic      Atomic             Coordinates (Angstroms)
 Number     Number       Type             X           Y           Z
 ---------------------------------------------------------------------
      1          6           0        1.052758    0.225678    0.000000
      2          7           0        0.000000    1.038882    0.000000
      3          7           0       -1.095393    0.291441    0.000000
      4          7           0       -0.716485   -0.901960    0.000000
      5          7           0        0.622252   -0.989535    0.000000
      6          1           0        2.072302    0.543052    0.000000
      7          1           0       -0.061469    2.031080    0.000000
 ---------------------------------------------------------------------
 Rotational constants (GHZ):     10.9189079     10.7342715      5.4129013
 Standard basis: Aug-CC-pVDZ (5D, 7F)
 There are   104 symmetry adapted cartesian basis functions of A'  symmetry.
 There are    39 symmetry adapted cartesian basis functions of A"  symmetry.
 There are    94 symmetry adapted basis functions of A'  symmetry.
 There are    39 symmetry adapted basis functions of A"  symmetry.
   133 basis functions,   237 primitive gaussians,   143 cartesian basis functions
    18 alpha electrons       18 beta electrons
       nuclear repulsion energy       169.8251108866 Hartrees.
 NAtoms=    7 NActive=    7 NUniq=    7 SFac= 1.00D+00 NAtFMM=   60 NAOKFM=F Big=F
 Integral buffers will be    131072 words long.
 Raffenetti 1 integral format.
 Two-electron integral symmetry is turned on.
 One-electron integrals computed using PRISM.
 NBasis=   133 RedAO= T EigKep=  1.19D-04  NBF=    94    39
 NBsUse=   133 1.00D-06 EigRej= -1.00D+00 NBFU=    94    39
 Initial guess from the checkpoint file:  "/tmp/rdj3/g09-13184/Gau-13240.chk"
 B after Tr=     0.000000    0.000000    0.000000
         Rot=    1.000000    0.000000    0.000000   -0.000024 Ang=   0.00 deg.
 Initial guess orbital symmetries:
       Occupied  (A') (A') (A') (A') (A') (A') (A') (A') (A') (A')
                 (A') (A") (A') (A') (A') (A') (A") (A")
       Virtual   (A') (A') (A') (A') (A') (A') (A') (A') (A') (A')
                 (A') (A') (A') (A') (A') (A') (A') (A') (A') (A')
                 (A') (A') (A') (A') (A') (A') (A') (A') (A') (A')
                 (A') (A') (A') (A') (A') (A') (A') (A') (A') (A')
                 (A') (A') (A') (A') (A') (A') (A') (A') (A') (A')
                 (A') (A') (A') (A') (A') (A') (A') (A') (A') (A')
                 (A') (A') (A') (A') (A') (A') (A') (A') (A') (A')
                 (A') (A') (A') (A') (A') (A') (A') (A') (A') (A")
                 (A") (A") (A") (A") (A") (A") (A") (A") (A") (A")
                 (A") (A") (A") (A") (A") (A") (A") (A") (A") (A")
                 (A") (A") (A") (A") (A") (A") (A") (A") (A") (A")
                 (A") (A") (A") (A") (A")
 ExpMin= 2.97D-02 ExpMax= 9.05D+03 ExpMxC= 3.09D+02 IAcc=3 IRadAn=         5 AccDes= 0.00D+00
 Harris functional with IExCor=  205 and IRadAn=       5 diagonalized for initial guess.
 HarFok:  IExCor=  205 AccDes= 0.00D+00 IRadAn=         5 IDoV= 1 UseB2=F ITyADJ=14
 ICtDFT=  3500011 ScaDFX=  1.000000  1.000000  1.000000  1.000000
 FoFCou: FMM=F IPFlag=           0 FMFlag=      100000 FMFlg1=           0
         NFxFlg=           0 DoJE=T BraDBF=F KetDBF=T FulRan=T
         wScrn=  0.000000 ICntrl=     500 IOpCl=  0 I1Cent=   200000004 NGrid=           0
         NMat0=    1 NMatS0=      1 NMatT0=    0 NMatD0=    1 NMtDS0=    0 NMtDT0=    0
 Petite list used in FoFCou.
 Keep R1 ints in memory in symmetry-blocked form, NReq=60288506.
 Requested convergence on RMS density matrix=1.00D-08 within 128 cycles.
 Requested convergence on MAX density matrix=1.00D-06.
 Requested convergence on             energy=1.00D-06.
 No special actions if energy rises.
 SCF Done:  E(RHF) =  -256.797934844     A.U. after    7 cycles
            NFock=  7  Conv=0.44D-08     -V/T= 2.0004
 Range of M.O.s used for correlation:     1   133
 NBasis=   133 NAE=    18 NBE=    18 NFC=     0 NFV=     0
 NROrb=    133 NOA=    18 NOB=    18 NVA=   115 NVB=   115

 **** Warning!!: The largest alpha MO coefficient is  0.30298837D+02

 Semi-Direct transformation.
 ModeAB=           2 MOrb=            18 LenV=     435407336
 LASXX=      9993987 LTotXX=     9993987 LenRXX=     9993987
 LTotAB=    10258224 MaxLAS=    24648624 LenRXY=    24648624
 NonZer=    25137000 LenScr=    38484992 LnRSAI=           0
 LnScr1=           0 LExtra=           0 Total=     73127603
 MaxDsk=          -1 SrtSym=           F ITran=            4
 JobTyp=0 Pass  1:  I=   1 to  18.
 (rs|ai) integrals will be sorted in core.
 Spin components of T(2) and E(2):
     alpha-alpha T2 =       0.3906786956D-01 E2=     -0.1147595761D+00
     alpha-beta  T2 =       0.1942128282D+00 E2=     -0.5920271790D+00
     beta-beta   T2 =       0.3906786956D-01 E2=     -0.1147595761D+00
 ANorm=    0.1127984294D+01
 E2 =    -0.8215463313D+00 EUMP2 =    -0.25761948117538D+03
 Keep R2 and R3 ints in memory in symmetry-blocked form, NReq=61458976.
 DD1Dir will call FoFMem   1 times, MxPair=       342
 NAB=   171 NAA=     0 NBB=     0.
 MP4(D)= -0.22039798D-01
 MP4(S)= -0.87268059D-02
 MP4(R+Q)=  0.22827204D-01
 Time for triples=      821.52 seconds.
 MP4(T)=   -0.44363629D-01
 E3=        0.66421965D-03        EUMP3=      -0.25761881696D+03
 E4(DQ)=    0.78740509D-03        UMP4(DQ)=   -0.25761802955D+03
 E4(SDQ)=  -0.79394009D-02        UMP4(SDQ)=  -0.25762675636D+03
 E4(SDTQ)= -0.52303030D-01        UMP4(SDTQ)= -0.25767111999D+03
 Largest amplitude= 5.32D-02
 Discarding MO integrals.

 NEF-NEF-NEF-NEF-NEF-NEF-NEF-NEF-NEF-NEF-NEF-NEF-NEF-NEF-NEF-NEF-NEF-NEF-
 NUMERICAL EIGENVECTOR FOLLOWING MINIMUM SEARCH
 NUMERICALLY ESTIMATING GRADIENTS
 ITERATION   0 VARIABLE  3 STEP  2

 NEF-NEF-NEF-NEF-NEF-NEF-NEF-NEF-NEF-NEF-NEF-NEF-NEF-NEF-NEF-NEF-NEF-NEF-
 ---------------------------------------------------------------------------------------------------
                            Z-MATRIX (ANGSTROMS AND DEGREES)
   CD    Cent   Atom    N1       Length/X        N2       Alpha/Y        N3        Beta/Z          J
 ---------------------------------------------------------------------------------------------------
      1         X 
      2         X        1   1.000000(     1)
      3      1  C        1   1.000000(     2)      2   90.000(     9)
      4      2  N        1   1.242600(     3)      2   90.000(    10)      3   71.843(    16)      0
      5      3  N        1   1.333000(     4)      2   90.000(    11)      3  133.703(    17)      0
      6      4  N        1   1.114392(     5)      2   90.000(    12)      3  194.460(    18)      0
      7      5  N        1   0.926400(     6)      2   90.000(    13)      3  276.077(    19)      0
      8      6  H        3   1.067800(     7)      4  125.025(    14)      5  180.000(    20)      0
      9      7  H        4   0.994100(     8)      5  120.763(    15)      6  180.000(    21)      0
 ---------------------------------------------------------------------------------------------------
                         Z-Matrix orientation:                         
 ---------------------------------------------------------------------
 Center     Atomic      Atomic             Coordinates (Angstroms)
 Number     Number       Type             X           Y           Z
 ---------------------------------------------------------------------
      1         -1           0        0.000000    0.000000    0.000000
      2         -1           0        0.000000    0.000000    1.000000
      3          6           0        1.000000    0.000000    0.000000
      4          7           0        0.387228   -1.180724    0.000000
      5          7           0       -0.920993   -0.963670    0.000000
      6          7           0       -1.079092    0.278263    0.000000
      7          7           0        0.098070    0.921194    0.000000
      8          1           0        2.058429    0.141157    0.000000
      9          1           0        0.749017   -2.106652    0.000000
 ---------------------------------------------------------------------
                    Distance matrix (angstroms):
                    1          2          3          4          5
     1  X    0.000000
     2  X    1.000000   0.000000
     3  C    1.000000   1.414214   0.000000
     4  N    1.242600   1.595009   1.330263   0.000000
     5  N    1.333000   1.666400   2.149157   1.326105   0.000000
     6  N    1.114392   1.497287   2.097630   2.068510   1.251955
     7  N    0.926400   1.363164   1.289216   2.121715   2.142710
     8  H    2.063263   2.292827   1.067800   2.130794   3.177672
     9  H    2.235847   2.449288   2.121551   0.994100   2.023695
                    6          7          8          9
     6  N    0.000000
     7  N    1.341295   0.000000
     8  H    3.140515   2.109850   0.000000
     9  H    3.004963   3.097029   2.601385   0.000000
 Stoichiometry    CH2N4
 Framework group  CS[SG(CH2N4)]
 Deg. of freedom    11
 Full point group                 CS      NOp   2
 Largest Abelian subgroup         CS      NOp   2
 Largest concise Abelian subgroup C1      NOp   1
                         Standard orientation:                         
 ---------------------------------------------------------------------
 Center     Atomic      Atomic             Coordinates (Angstroms)
 Number     Number       Type             X           Y           Z
 ---------------------------------------------------------------------
      1          6           0        1.052709    0.225563    0.000000
      2          7           0        0.000000    1.038831    0.000000
      3          7           0       -1.095438    0.291456    0.000000
      4          7           0       -0.716280   -0.901704    0.000000
      5          7           0        0.622130   -0.989624    0.000000
      6          1           0        2.072272    0.542876    0.000000
      7          1           0       -0.061409    2.031032    0.000000
 ---------------------------------------------------------------------
 Rotational constants (GHZ):     10.9213991     10.7347360      5.4136315
 Standard basis: Aug-CC-pVDZ (5D, 7F)
 There are   104 symmetry adapted cartesian basis functions of A'  symmetry.
 There are    39 symmetry adapted cartesian basis functions of A"  symmetry.
 There are    94 symmetry adapted basis functions of A'  symmetry.
 There are    39 symmetry adapted basis functions of A"  symmetry.
   133 basis functions,   237 primitive gaussians,   143 cartesian basis functions
    18 alpha electrons       18 beta electrons
       nuclear repulsion energy       169.8365873315 Hartrees.
 NAtoms=    7 NActive=    7 NUniq=    7 SFac= 1.00D+00 NAtFMM=   60 NAOKFM=F Big=F
 Integral buffers will be    131072 words long.
 Raffenetti 1 integral format.
 Two-electron integral symmetry is turned on.
 One-electron integrals computed using PRISM.
 NBasis=   133 RedAO= T EigKep=  1.19D-04  NBF=    94    39
 NBsUse=   133 1.00D-06 EigRej= -1.00D+00 NBFU=    94    39
 Initial guess from the checkpoint file:  "/tmp/rdj3/g09-13184/Gau-13240.chk"
 B after Tr=     0.000000    0.000000    0.000000
         Rot=    1.000000    0.000000    0.000000    0.000023 Ang=   0.00 deg.
 Initial guess orbital symmetries:
       Occupied  (A') (A') (A') (A') (A') (A') (A') (A') (A') (A')
                 (A') (A") (A') (A') (A') (A') (A") (A")
       Virtual   (A') (A') (A') (A') (A') (A') (A') (A') (A') (A')
                 (A') (A') (A') (A') (A') (A') (A') (A') (A') (A')
                 (A') (A') (A') (A') (A') (A') (A') (A') (A') (A')
                 (A') (A') (A') (A') (A') (A') (A') (A') (A') (A')
                 (A') (A') (A') (A') (A') (A') (A') (A') (A') (A')
                 (A') (A') (A') (A') (A') (A') (A') (A') (A') (A')
                 (A') (A') (A') (A') (A') (A') (A') (A') (A') (A')
                 (A') (A') (A') (A') (A') (A') (A') (A') (A') (A")
                 (A") (A") (A") (A") (A") (A") (A") (A") (A") (A")
                 (A") (A") (A") (A") (A") (A") (A") (A") (A") (A")
                 (A") (A") (A") (A") (A") (A") (A") (A") (A") (A")
                 (A") (A") (A") (A") (A")
 ExpMin= 2.97D-02 ExpMax= 9.05D+03 ExpMxC= 3.09D+02 IAcc=3 IRadAn=         5 AccDes= 0.00D+00
 Harris functional with IExCor=  205 and IRadAn=       5 diagonalized for initial guess.
 HarFok:  IExCor=  205 AccDes= 0.00D+00 IRadAn=         5 IDoV= 1 UseB2=F ITyADJ=14
 ICtDFT=  3500011 ScaDFX=  1.000000  1.000000  1.000000  1.000000
 FoFCou: FMM=F IPFlag=           0 FMFlag=      100000 FMFlg1=           0
         NFxFlg=           0 DoJE=T BraDBF=F KetDBF=T FulRan=T
         wScrn=  0.000000 ICntrl=     500 IOpCl=  0 I1Cent=   200000004 NGrid=           0
         NMat0=    1 NMatS0=      1 NMatT0=    0 NMatD0=    1 NMtDS0=    0 NMtDT0=    0
 Petite list used in FoFCou.
 Keep R1 ints in memory in symmetry-blocked form, NReq=60288506.
 Requested convergence on RMS density matrix=1.00D-08 within 128 cycles.
 Requested convergence on MAX density matrix=1.00D-06.
 Requested convergence on             energy=1.00D-06.
 No special actions if energy rises.
 SCF Done:  E(RHF) =  -256.797932793     A.U. after    9 cycles
            NFock=  9  Conv=0.24D-08     -V/T= 2.0004
 Range of M.O.s used for correlation:     1   133
 NBasis=   133 NAE=    18 NBE=    18 NFC=     0 NFV=     0
 NROrb=    133 NOA=    18 NOB=    18 NVA=   115 NVB=   115

 **** Warning!!: The largest alpha MO coefficient is  0.30296208D+02

 Semi-Direct transformation.
 ModeAB=           2 MOrb=            18 LenV=     435407336
 LASXX=      9993987 LTotXX=     9993987 LenRXX=     9993987
 LTotAB=    10258224 MaxLAS=    24648624 LenRXY=    24648624
 NonZer=    25137000 LenScr=    38484992 LnRSAI=           0
 LnScr1=           0 LExtra=           0 Total=     73127603
 MaxDsk=          -1 SrtSym=           F ITran=            4
 JobTyp=0 Pass  1:  I=   1 to  18.
 (rs|ai) integrals will be sorted in core.
 Spin components of T(2) and E(2):
     alpha-alpha T2 =       0.3906287621D-01 E2=     -0.1147555327D+00
     alpha-beta  T2 =       0.1941849771D+00 E2=     -0.5919973299D+00
     beta-beta   T2 =       0.3906287621D-01 E2=     -0.1147555327D+00
 ANorm=    0.1127967521D+01
 E2 =    -0.8215083954D+00 EUMP2 =    -0.25761944118857D+03
 Keep R2 and R3 ints in memory in symmetry-blocked form, NReq=61458976.
 DD1Dir will call FoFMem   1 times, MxPair=       342
 NAB=   171 NAA=     0 NBB=     0.
 MP4(D)= -0.22035157D-01
 MP4(S)= -0.87244690D-02
 MP4(R+Q)=  0.22822242D-01
 Time for triples=      821.54 seconds.
 MP4(T)=   -0.44354612D-01
 E3=        0.65691959D-03        EUMP3=      -0.25761878427D+03
 E4(DQ)=    0.78708537D-03        UMP4(DQ)=   -0.25761799718D+03
 E4(SDQ)=  -0.79373836D-02        UMP4(SDQ)=  -0.25762672165D+03
 E4(SDTQ)= -0.52291995D-01        UMP4(SDTQ)= -0.25767107626D+03
 Largest amplitude= 5.32D-02
 Discarding MO integrals.

 NEF-NEF-NEF-NEF-NEF-NEF-NEF-NEF-NEF-NEF-NEF-NEF-NEF-NEF-NEF-NEF-NEF-NEF-
 NUMERICAL EIGENVECTOR FOLLOWING MINIMUM SEARCH
 NUMERICALLY ESTIMATING GRADIENTS
 ITERATION   0 VARIABLE  4 STEP  1

 NEF-NEF-NEF-NEF-NEF-NEF-NEF-NEF-NEF-NEF-NEF-NEF-NEF-NEF-NEF-NEF-NEF-NEF-
 ---------------------------------------------------------------------------------------------------
                            Z-MATRIX (ANGSTROMS AND DEGREES)
   CD    Cent   Atom    N1       Length/X        N2       Alpha/Y        N3        Beta/Z          J
 ---------------------------------------------------------------------------------------------------
      1         X 
      2         X        1   1.000000(     1)
      3      1  C        1   1.000000(     2)      2   90.000(     9)
      4      2  N        1   1.242600(     3)      2   90.000(    10)      3   71.843(    16)      0
      5      3  N        1   1.333000(     4)      2   90.000(    11)      3  133.703(    17)      0
      6      4  N        1   1.114600(     5)      2   90.000(    12)      3  194.460(    18)      0
      7      5  N        1   0.926608(     6)      2   90.000(    13)      3  276.077(    19)      0
[...]
     3  N   -0.166601
     4  N   -0.235550
     5  N   -0.466223
 Electronic spatial extent (au):  <R**2>=            257.3927
 Charge=              0.0000 electrons
 Dipole moment (field-independent basis, Debye):
    X=              2.6994    Y=              4.9244    Z=              0.0255  Tot=              5.6158
 Quadrupole moment (field-independent basis, Debye-Ang):
   XX=            -28.8975   YY=            -26.7226   ZZ=            -29.6066
   XY=              2.1780   XZ=              0.0208   YZ=              0.0470
 Traceless Quadrupole moment (field-independent basis, Debye-Ang):
   XX=             -0.4886   YY=              1.6863   ZZ=             -1.1977
   XY=              2.1780   XZ=              0.0208   YZ=              0.0470
 Octapole moment (field-independent basis, Debye-Ang**2):
  XXX=             13.4486  YYY=             23.8971  ZZZ=             -0.0269  XYY=             -0.8461
  XXY=              5.4178  XXZ=              0.0465  XZZ=             -0.4323  YZZ=              0.8342
  YYZ=              0.0911  XYZ=              0.0141
 Hexadecapole moment (field-independent basis, Debye-Ang**3):
 XXXX=           -147.8424 YYYY=           -126.0958 ZZZZ=            -29.2456 XXXY=              8.4194
 XXXZ=              0.0987 YYYX=              0.2966 YYYZ=              0.1705 ZZZX=             -0.0325
 ZZZY=             -0.0325 XXYY=            -56.5970 XXZZ=            -32.8829 YYZZ=            -31.5392
 XXYZ=              0.0217 YYXZ=             -0.0088 ZZXY=              0.2563
 N-N= 1.645153954533D+02 E-N=-9.300357508167D+02  KE= 2.559632083994D+02
 Skip step-back as it is equivalent to step-up.
 Numerical evaluation of force constants complete.
 Full mass-weighted force constant matrix:
 Low frequencies ---  -26.0733  -17.2432   10.5935   18.8084   19.0133   22.4688
 Low frequencies ---  554.1287  674.4265  711.6973
 Diagonal vibrational polarizability:
        0.0000000       0.0000000       0.0000000
 Harmonic frequencies (cm**-1), IR intensities (KM/Mole), Raman scattering
 activities (A**4/AMU), depolarization ratios for plane and unpolarized
 incident light, reduced masses (AMU), force constants (mDyne/A),
 and normal coordinates:
                      1                      2                      3
                     A"                     A"                     A"
 Frequencies --    554.1280               674.4263               711.6973
 Red. masses --      1.8138                 1.9996                 7.6271
 Frc consts  --      0.3281                 0.5359                 2.2761
 IR Inten    --      0.0000                 0.0000                 0.0000
  Atom  AN      X      Y      Z        X      Y      Z        X      Y      Z
     1   6     0.00   0.00  -0.09     0.00   0.00   0.18     0.00   0.00  -0.09
     2   7     0.00   0.00   0.22     0.00   0.00  -0.10     0.00   0.00  -0.12
     3   7     0.00   0.00  -0.09     0.00   0.00   0.09     0.00   0.00   0.41
     4   7     0.00   0.00   0.01     0.00   0.00   0.04     0.00   0.00  -0.47
     5   7     0.00   0.00   0.03     0.00   0.00  -0.17     0.00   0.00   0.32
     6   1     0.00   0.00  -0.19     0.00   0.00   0.52     0.00   0.00  -0.05
     7   1     0.00   0.00  -0.95     0.00   0.00  -0.80     0.00   0.00  -0.70
                      4                      5                      6
                     A"                     A'                     A'
 Frequencies --    813.3177               925.5098               980.7878
 Red. masses --      1.3377                 4.9646                 6.3196
 Frc consts  --      0.5214                 2.5055                 3.5817
 IR Inten    --      0.0000                 0.0000                 0.0000
  Atom  AN      X      Y      Z        X      Y      Z        X      Y      Z
     1   6     0.00   0.00   0.17     0.06   0.10   0.00    -0.37  -0.09   0.00
     2   7     0.00   0.00  -0.02     0.10   0.08   0.00     0.00   0.40   0.00
     3   7     0.00   0.00   0.00     0.13  -0.15   0.00     0.05  -0.02   0.00
     4   7     0.00   0.00  -0.02     0.11  -0.17   0.00     0.24  -0.04   0.00
     5   7     0.00   0.00  -0.03    -0.39   0.21   0.00     0.02  -0.25   0.00
     6   1     0.00   0.00  -0.98     0.31  -0.70   0.00    -0.28  -0.45   0.00
     7   1     0.00   0.00  -0.09    -0.34   0.05   0.00     0.32   0.44   0.00
                      7                      8                      9
                     A'                     A'                     A'
 Frequencies --   1020.5428              1038.3637              1121.7120
 Red. masses --      6.0850                 3.3123                 1.8674
 Frc consts  --      3.7340                 2.1042                 1.3844
 IR Inten    --      0.0000                 0.0000                 0.0000
  Atom  AN      X      Y      Z        X      Y      Z        X      Y      Z
     1   6    -0.11  -0.02   0.00    -0.05  -0.01   0.00     0.08  -0.11   0.00
     2   7    -0.14  -0.29   0.00    -0.14   0.01   0.00    -0.13   0.00   0.00
     3   7     0.06   0.24   0.00     0.36   0.07   0.00    -0.06   0.01   0.00
     4   7     0.40   0.07   0.00    -0.13  -0.02   0.00     0.09   0.15   0.00
     5   7    -0.23  -0.04   0.00     0.02  -0.06   0.00     0.04   0.00   0.00
     6   1    -0.32   0.60   0.00    -0.12   0.21   0.00     0.29  -0.76   0.00
     7   1     0.24  -0.28   0.00    -0.87  -0.03   0.00    -0.52  -0.02   0.00
                     10                     11                     12
                     A'                     A'                     A'
 Frequencies --   1193.9654              1224.2205              1440.2956
 Red. masses --      8.6192                 2.6390                 3.5879
 Frc consts  --      7.2393                 2.3303                 4.3853
 IR Inten    --      0.0000                 0.0000                 0.0000
  Atom  AN      X      Y      Z        X      Y      Z        X      Y      Z
     1   6     0.17   0.03   0.00     0.21   0.05   0.00    -0.18   0.30   0.00
     2   7    -0.12   0.08   0.00     0.03   0.12   0.00     0.20  -0.14   0.00
     3   7    -0.14   0.48   0.00    -0.10  -0.03   0.00    -0.06   0.06   0.00
     4   7     0.01  -0.53   0.00     0.05   0.03   0.00     0.00   0.02   0.00
     5   7     0.08  -0.03   0.00    -0.11  -0.21   0.00     0.05  -0.15   0.00
     6   1     0.37  -0.50   0.00     0.03   0.70   0.00     0.07  -0.54   0.00
     7   1    -0.09   0.11   0.00    -0.60   0.10   0.00    -0.66  -0.23   0.00
                     13                     14                     15
                     A'                     A'                     A'
 Frequencies --   1458.4689              3295.1936              3641.9656
 Red. masses --      2.6303                 1.1012                 1.0845
 Frc consts  --      3.2965                 7.0446                 8.4748
 IR Inten    --      0.0000                 0.0000                 0.0000
  Atom  AN      X      Y      Z        X      Y      Z        X      Y      Z
     1   6    -0.11  -0.23   0.00     0.09   0.03   0.00     0.00   0.00   0.00
     2   7     0.18   0.01   0.00     0.00   0.00   0.00    -0.01   0.08   0.00
     3   7    -0.09   0.05   0.00     0.00   0.00   0.00     0.00   0.00   0.00
     4   7     0.04  -0.04   0.00     0.00   0.00   0.00     0.00   0.00   0.00
     5   7     0.04   0.16   0.00     0.00   0.00   0.00     0.00   0.00   0.00
     6   1    -0.33   0.34   0.00    -0.95  -0.30   0.00    -0.02   0.00   0.00
     7   1    -0.80  -0.05   0.00     0.01   0.02   0.00     0.06  -0.99   0.00

 -------------------
 - Thermochemistry -
 -------------------
 Temperature   298.150 Kelvin.  Pressure   1.00000 Atm.
 Atom     1 has atomic number  6 and mass  12.00000
 Atom     2 has atomic number  7 and mass  14.00307
 Atom     3 has atomic number  7 and mass  14.00307
 Atom     4 has atomic number  7 and mass  14.00307
 Atom     5 has atomic number  7 and mass  14.00307
 Atom     6 has atomic number  1 and mass   1.00783
 Atom     7 has atomic number  1 and mass   1.00783
 Molecular mass:    70.02795 amu.
 Principal axes and moments of inertia in atomic units:
                           1         2         3
     Eigenvalues --   175.88523 179.32536 355.21060
           X            0.79265   0.60968   0.00000
           Y           -0.60968   0.79265   0.00000
           Z            0.00000   0.00000   1.00000
 This molecule is an asymmetric top.
 Rotational symmetry number  1.
 Rotational temperatures (Kelvin)      0.49245     0.48300     0.24384
 Rotational constants (GHZ):          10.26090    10.06406     5.08076
 Zero-point vibrational energy     120192.4 (Joules/Mol)
                                   28.72667 (Kcal/Mol)
 Warning -- explicit consideration of   1 degrees of freedom as
           vibrations may cause significant error
 Vibrational temperatures:    797.27   970.35  1023.97  1170.18  1331.60
          (Kelvin)           1411.13  1468.33  1493.97  1613.89  1717.85
                             1761.38  2072.26  2098.41  4741.04  5239.97
 
 Zero-point correction=                           0.045779 (Hartree/Particle)
 Thermal correction to Energy=                    0.049326
 Thermal correction to Enthalpy=                  0.050271
 Thermal correction to Gibbs Free Energy=         0.019620
 Sum of electronic and zero-point Energies=           -257.635955
 Sum of electronic and thermal Energies=              -257.632408
 Sum of electronic and thermal Enthalpies=            -257.631463
 Sum of electronic and thermal Free Energies=         -257.662114
 
                     E (Thermal)             CV                S
                      KCal/Mol        Cal/Mol-Kelvin    Cal/Mol-Kelvin
 Total                   30.953             11.804             64.509
 Electronic               0.000              0.000              0.000
 Translational            0.889              2.981             38.656
 Rotational               0.889              2.981             23.931
 Vibrational             29.175              5.842              1.922
 Vibration     1          0.910              1.131              0.536
                       Q            Log10(Q)             Ln(Q)
 Total Bot       0.944857D-09         -9.024634        -20.779987
 Total V=0       0.107679D+13         12.032133         27.705010
 Vib (Bot)       0.108263D-20        -20.965521        -48.274896
 Vib (Bot)    1  0.282083D+00         -0.549623         -1.265554
 Vib (V=0)       0.123380D+01          0.091246          0.210101
 Vib (V=0)    1  0.107408D+01          0.031038          0.071467
 Electronic      0.100000D+01          0.000000          0.000000
 Translational   0.230336D+08          7.362362         16.952466
 Rotational      0.378900D+05          4.578525         10.542443
 ***** Axes restored to original set *****
 -------------------------------------------------------------------
 Center     Atomic                   Forces (Hartrees/Bohr)
 Number     Number              X              Y              Z
 -------------------------------------------------------------------
      1        6          -0.000207978    0.000003202    0.000000000
      2        7          -0.000101098   -0.000072650    0.000000000
      3        7           0.000163579    0.000266386    0.000000000
      4        7           0.000049500   -0.000138574    0.000000000
      5        7          -0.000052624    0.000018719    0.000000000
      6        1           0.000051478   -0.000042267    0.000000000
      7        1           0.000077531   -0.000018421    0.000000000
 -------------------------------------------------------------------
 Cartesian Forces:  Max     0.000266386 RMS     0.000095629
 -----------------------------------------------------------------------------------------------
                       Internal Coordinate Forces (Hartree/Bohr or radian)
  Cent   Atom   N1       Length/X         N2         Alpha/Y        N3         Beta/Z          J
 -----------------------------------------------------------------------------------------------
         X 
         X        1   0.000000(     1)
      1  C        1  -0.000122(     2)      2   0.000000(     9)
      2  N        1   0.000009(     3)      2   0.000000(    10)      3   0.000134(    16)     0
      3  N        1  -0.000266(     4)      2   0.000000(    11)      3   0.000104(    17)     0
      4  N        1  -0.000083(     5)      2   0.000000(    12)      3  -0.000271(    18)     0
      5  N        1   0.000015(     6)      2   0.000000(    13)      3  -0.000098(    19)     0
      6  H        3   0.000046(     7)      4  -0.000100(    14)      5   0.000000(    20)     0
      7  H        4   0.000046(     8)      5   0.000125(    15)      6   0.000000(    21)     0
 -----------------------------------------------------------------------------------------------
 Internal  Forces:  Max     0.000270698 RMS     0.000105614

 GradGradGradGradGradGradGradGradGradGradGradGradGradGradGradGradGradGrad
 Berny optimization.
 Search for a local minimum.
 Step number   1 out of a maximum of    2
 All quantities printed in internal units (Hartrees-Bohrs-Radians)
 Second derivative matrix not updated -- analytic derivatives used.
 The second derivative matrix:
                          rn1       rn2       rn3       rn4       rch
           rn1          0.55303
           rn2         -0.05112   0.51368
           rn3          0.06641  -0.03389   0.49918
           rn4          0.09248   0.06979  -0.02281   0.51226
           rch         -0.00468  -0.00180   0.00040  -0.00583   0.38004
           rnh          0.00790  -0.00889  -0.00044  -0.00043   0.00019
           an1          0.12716  -0.34244  -0.19195   0.11471   0.00807
           an2          0.23776  -0.04482  -0.34780  -0.13694   0.00372
           an3          0.20473   0.37933   0.16530  -0.22840  -0.00164
           an4         -0.11176   0.14046   0.26407  -0.17334  -0.00918
           ach          0.03371   0.01310  -0.01510   0.02780   0.00265
           anh         -0.04970   0.01801   0.02555  -0.01960  -0.00137
                          rnh       an1       an2       an3       an4
           rnh          0.47029
           an1         -0.00819   2.48026
           an2          0.00957  -1.07080   2.74628
           an3         -0.00184  -0.25602  -1.26915   1.99789
           an4         -0.00104  -0.20592  -0.20425  -0.32999   1.36172
           ach          0.00055   0.00216  -0.02062  -0.00806   0.08326
           anh         -0.00068  -0.02988  -0.01510   0.00582  -0.00556
                          ach       anh
           ach          0.20589
           anh          0.00149   0.20715
 ITU=  0
     Eigenvalues ---    0.00006   0.15068   0.20445   0.25753   0.37995
     Eigenvalues ---    0.46971   0.57177   0.62219   0.77428   1.70271
     Eigenvalues ---    2.70930   4.08504
 Angle between quadratic step and forces=  88.40 degrees.
 Linear search not attempted -- first point.
 Variable       Old X    -DE/DX   Delta X   Delta X   Delta X     New X
                                 (Linear)    (Quad)   (Total)
   rn1        2.38673   0.00001   0.00000  -0.01383  -0.01383   2.37290
   rn2        2.64683  -0.00027   0.00000  -0.01117  -0.01117   2.63566
   rn3        2.22904  -0.00008   0.00000   0.00332   0.00332   2.23236
   rn4        1.81942   0.00001   0.00000   0.01475   0.01475   1.83417
   rch        2.05561   0.00005   0.00000   0.00012   0.00012   2.05574
   rnh        1.91768   0.00005   0.00000   0.00008   0.00008   1.91775
   an1        1.26931   0.00013   0.00000   0.00584   0.00584   1.27515
   an2        2.33986   0.00010   0.00000   0.01153   0.01153   2.35139
   an3        3.39859  -0.00027   0.00000   0.01408   0.01408   3.41267
   an4        4.78867  -0.00010   0.00000   0.00724   0.00724   4.79591
   ach        2.17679  -0.00010   0.00000  -0.00055  -0.00055   2.17624
   anh        2.09857   0.00012   0.00000   0.00073   0.00073   2.09930
         Item               Value     Threshold  Converged?
 Maximum Force            0.000271     0.000450     YES
 RMS     Force            0.000135     0.000300     YES
 Maximum Displacement     0.014755     0.001800     NO 
 RMS     Displacement     0.008958     0.001200     NO 
 Predicted change in Energy=-2.025911D-07
 GradGradGradGradGradGradGradGradGradGradGradGradGradGradGradGradGradGrad

 1\1\GINC-N356\Freq\RMP4SDTQ-Full\Aug-CC-pVDZ\C1H2N4\RDJ3\26-Nov-2013\1
 \\#N Geom=AllCheck Guess=TCheck SCRF=Check GenChk RMP4SDTQ-Full/Aug-CC
 -pVDZ Freq\\1H-tetrazole CH2N4 casno=288948 state=1 config=1 method=44
  basis=17\\0,1\X\X,1,1.\C,1,1.,2,90.\N,1,rn1,2,90.,3,an1,0\N,1,rn2,2,9
 0.,3,an2,0\N,1,rn3,2,90.,3,an3,0\N,1,rn4,2,90.,3,an4,0\H,3,rch,4,ach,5
 ,180.,0\H,4,rnh,5,anh,6,180.,0\\rn1=1.26300415\rn2=1.40063957\rn3=1.17
 95588\rn4=0.96279336\rch=1.0877844\rnh=1.01479121\an1=72.72615979\an2=
 134.06402912\an3=194.7248676\an4=274.37086544\ach=124.72086125\anh=120
 .23914302\\Version=EM64L-G09RevD.01\State=1-A'\HF=-256.7863647\MP2=-25
 7.6286661\MP3=-257.6228016\MP4D=-257.6475043\MP4DQ=-257.621977\MP4SDQ=
 -257.6320133\MP4SDTQ=-257.681734\RMSD=9.680e-09\RMSF=9.563e-05\ZeroPoi
 nt=0.0457789\Thermal=0.0493264\PG=CS [SG(C1H2N4)]\NImag=0\\0.91707690,
 0.02755095,0.59175269,0.,0.,0.12612373,-0.16225280,-0.08378022,0.,0.55
 870312,-0.10314435,-0.27880223,0.,-0.10526019,0.97165196,0.,0.,-0.0550
 6989,0.,0.,0.08306535,-0.08428813,-0.07667446,0.,-0.22228699,-0.034432
 87,0.,0.43370568,-0.00046781,-0.02213014,0.,0.01038075,-0.10140443,0.,
 0.06050306,0.48933148,0.,0.,0.01882526,0.,0.,-0.06256370,0.,0.,0.10586
 476,-0.11014187,0.05598634,0.,-0.06654076,0.03611821,0.,-0.10627600,-0
 .01350706,0.,0.45647513,-0.02451619,0.02265418,0.,0.09334830,-0.088422
 81,0.,0.06553680,-0.27653119,0.,-0.08838558,0.44484132,0.,0.,0.0180570
 5,0.,0.,0.02391509,0.,0.,-0.08916796,0.,0.,0.11485093,-0.21350431,0.13
 204190,0.,0.01172241,0.07533114,0.,-0.02427040,-0.09303276,0.,-0.16089
 205,-0.04967623,0.,0.39745663,0.12364453,-0.25278148,0.,-0.01823675,-0
 .09268122,0.,-0.01065647,-0.08681816,0.,0.00830317,-0.10140775,0.,-0.0
 8652798,0.52615526,0.,0.,-0.07261113,0.,0.,0.01944820,0.,0.,0.03281130
 ,0.,0.,-0.08361020,0.,0.,0.10196403,-0.36357529,-0.04279813,0.,-0.0009
 1258,0.00461231,0.,0.00037676,0.00261976,0.,-0.00141396,-0.00015290,0.
 ,-0.00839485,-0.00688408,0.,0.37432796,-0.03956552,-0.05753597,0.,-0.0
 3105535,0.00260170,0.,-0.00163409,-0.00665931,0.,0.00652971,-0.0036176
 7,0.,0.02234108,0.01100182,0.,0.04313845,0.05441257,0.,0.,-0.02591376,
 0.,0.,-0.00336162,0.,0.,0.00589638,0.,0.,0.00838429,0.,0.,-0.00528401,
 0.,0.,0.02094961,0.01660109,-0.01232868,0.,-0.11856229,0.12675502,0.,0
 .00293066,0.03351639,0.,-0.01155868,0.00402827,0.,-0.00242204,-0.00948
 898,0.,-0.00064351,0.00036952,0.,0.11329628,0.01646566,-0.00327792,0.,
 0.13463298,-0.41301868,0.,-0.00264237,0.00411718,0.,-0.00486482,0.0025
 9406,0.,-0.00032182,-0.00338832,0.,-0.00042210,-0.00016147,0.,-0.14263
 641,0.41329842,0.,0.,-0.00952368,0.,0.,-0.00553550,0.,0.,-0.01177934,0
 .,0.,0.00746167,0.,0.,0.00717425,0.,0.,-0.00076411,0.,0.,0.01288340\\0
 .00020798,-0.00000320,0.,0.00010110,0.00007265,0.,-0.00016358,-0.00026
 639,0.,-0.00004950,0.00013857,0.,0.00005262,-0.00001872,0.,-0.00005148
 ,0.00004227,0.,-0.00007753,0.00001842,0.\\\@


 IT WAS A GAME, A VERY INTERESTING GAME ONE COULD
 PLAY.  WHENEVER ONE SOLVED ONE OF THE LITTLE PROBLEMS,
 ONE COULD WRITE A PAPER ABOUT IT.  IT WAS VERY EASY IN
 THOSE DAYS FOR ANY SECOND-RATE PHYSICIST TO DO
 FIRST-RATE WORK.  THERE HAS NOT BEEN SUCH A GLORIOUS
 TIME SINCE.  IT IS VERY DIFFICULT NOW FOR A FIRST-RATE
 PHYSICIST TO DO SECOND-RATE WORK.
     P.A.M. DIRAC, ON THE EARLY DAYS OF QUANTUM MECHANICS
                   DIRECTIONS IN PHYSICS, 1978, P. 7
 Job cpu time:       3 days 23 hours  5 minutes 47.1 seconds.
 File lengths (MBytes):  RWF=   1281 Int=      0 D2E=      0 Chk=     39 Scr=      1
 Normal termination of Gaussian 09 at Tue Nov 26 10:20:50 2013.
