 Entering Gaussian System, Link 0=g09
 Initial command:
 /usr/local/gaussian/g09.d01.em64t.legacy.linda/g09/l1.exe "/tmp/rdj3/g09-7726/Gau-7781.inp" -scrdir="/tmp/rdj3/g09-7726/"
 Entering Link 1 = /usr/local/gaussian/g09.d01.em64t.legacy.linda/g09/l1.exe PID=      7782.
  
 Copyright (c) 1988,1990,1992,1993,1995,1998,2003,2009,2013,
            Gaussian, Inc.  All Rights Reserved.
  
 This is part of the Gaussian(R) 09 program.  It is based on
 the Gaussian(R) 03 system (copyright 2003, Gaussian, Inc.),
 the Gaussian(R) 98 system (copyright 1998, Gaussian, Inc.),
 the Gaussian(R) 94 system (copyright 1995, Gaussian, Inc.),
 the Gaussian 92(TM) system (copyright 1992, Gaussian, Inc.),
 the Gaussian 90(TM) system (copyright 1990, Gaussian, Inc.),
 the Gaussian 88(TM) system (copyright 1988, Gaussian, Inc.),
 the Gaussian 86(TM) system (copyright 1986, Carnegie Mellon
 University), and the Gaussian 82(TM) system (copyright 1983,
 Carnegie Mellon University). Gaussian is a federally registered
 trademark of Gaussian, Inc.
  
 This software contains proprietary and confidential information,
 including trade secrets, belonging to Gaussian, Inc.
  
 This software is provided under written license and may be
 used, copied, transmitted, or stored only in accord with that
 written license.
  
 The following legend is applicable only to US Government
 contracts under FAR:
  
                    RESTRICTED RIGHTS LEGEND
  
 Use, reproduction and disclosure by the US Government is
 subject to restrictions as set forth in subparagraphs (a)
 and (c) of the Commercial Computer Software - Restricted
 Rights clause in FAR 52.227-19.
  
 Gaussian, Inc.
 340 Quinnipiac St., Bldg. 40, Wallingford CT 06492
  
  
 ---------------------------------------------------------------
 Warning -- This program may not be used in any manner that
 competes with the business of Gaussian, Inc. or will provide
 assistance to any competitor of Gaussian, Inc.  The licensee
 of this program is prohibited from giving any competitor of
 Gaussian, Inc. access to this program.  By using this program,
 the user acknowledges that Gaussian, Inc. is engaged in the
 business of creating and licensing software in the field of
 computational chemistry and represents and warrants to the
 licensee that it is not a competitor of Gaussian, Inc. and that
 it will not use this program in any manner prohibited above.
 ---------------------------------------------------------------
  

 Cite this work as:
 Gaussian 09, Revision D.01,
 M. J. Frisch, G. W. Trucks, H. B. Schlegel, G. E. Scuseria, 
 M. A. Robb, J. R. Cheeseman, G. Scalmani, V. Barone, B. Mennucci, 
 G. A. Petersson, H. Nakatsuji, M. Caricato, X. Li, H. P. Hratchian, 
 A. F. Izmaylov, J. Bloino, G. Zheng, J. L. Sonnenberg, M. Hada, 
 M. Ehara, K. Toyota, R. Fukuda, J. Hasegawa, M. Ishida, T. Nakajima, 
 Y. Honda, O. Kitao, H. Nakai, T. Vreven, J. A. Montgomery, Jr., 
 J. E. Peralta, F. Ogliaro, M. Bearpark, J. J. Heyd, E. Brothers, 
 K. N. Kudin, V. N. Staroverov, T. Keith, R. Kobayashi, J. Normand, 
 K. Raghavachari, A. Rendell, J. C. Burant, S. S. Iyengar, J. Tomasi, 
 M. Cossi, N. Rega, J. M. Millam, M. Klene, J. E. Knox, J. B. Cross, 
 V. Bakken, C. Adamo, J. Jaramillo, R. Gomperts, R. E. Stratmann, 
 O. Yazyev, A. J. Austin, R. Cammi, C. Pomelli, J. W. Ochterski, 
 R. L. Martin, K. Morokuma, V. G. Zakrzewski, G. A. Voth, 
 P. Salvador, J. J. Dannenberg, S. Dapprich, A. D. Daniels, 
 O. Farkas, J. B. Foresman, J. V. Ortiz, J. Cioslowski, 
 and D. J. Fox, Gaussian, Inc., Wallingford CT, 2013.
 
 ******************************************
 Gaussian 09:  EM64L-G09RevD.01 24-Apr-2013
                14-Jan-2014 
 ******************************************
 %Nproc=8
 Will use up to    8 processors via shared memory.
 %mem=436000000
 ----------------------------------
 #MP4=FULL/6-31G* opt=z-matrix freq
 ----------------------------------

 Warning:  this job cannot use analytic gradients
           and so will do many energy evaluations.

 1/18=40,29=20000,38=1/1,14;
 2/12=2,17=6,18=5,29=3,40=1/2;
 3/5=1,6=6,7=1,11=9,16=1,25=1,30=1/1,2,3;
 4//1;
 5/5=2,38=5/2;
 8/6=4,9=120000,10=90/1,4;
 9/5=5/13;
 6/7=2,8=2,9=2,10=2/1;
 1/18=40/14(2);
 2/29=3/2;
 99//99;
 2/29=3/2;
 3/5=1,6=6,7=1,11=9,16=1,25=1,30=1/1,2,3;
 4/5=5,16=3,69=1/1;
 5/5=2,38=5/2;
 8/6=4,9=120000,10=90/1,4;
 9/5=5/13;
 1/18=40/14(-6);
 2/29=3/2;
 6/7=2,8=2,9=2,10=2/1;
 99//99;
 ------------------------------------------------------------------
 1H-tetrazole CH2N4 casno=288948 state=1 config=1 method=44 basis=1
 ------------------------------------------------------------------
 Symbolic Z-matrix:
 Charge =  0 Multiplicity = 1
 X
 X                    1     1. 
 C                    1     1.       2     90. 
 N                    1    rn1      2     90.      3    an1      0
 N                    1    rn2      2     90.      3    an2      0
 N                    1    rn3      2     90.      3    an3      0
 N                    1    rn4      2     90.      3    an4      0
 H                    3    rch      4    ach      5     180.     0
 H                    4    rnh      5    anh      6     180.     0
       Variables:
  rn1                   1.2602                   
  rn2                   1.3948                   
  rn3                   1.1722                   
  rn4                   0.9584                   
  rch                   1.0829                   
  rnh                   1.0152                   
  an1                  72.5154                   
  an2                 133.9998                   
  an3                 194.7705                   
  an4                 274.7342                   
  ach                 124.7017                   
  anh                 120.0061                   
 

 NEF-NEF-NEF-NEF-NEF-NEF-NEF-NEF-NEF-NEF-NEF-NEF-NEF-NEF-NEF-NEF-NEF-NEF-
 NUMERICAL EIGENVECTOR FOLLOWING MINIMUM SEARCH
 INITIALIZATION PASS
                       ----------------------------
                       !    Initial Parameters    !
                       ! (Angstroms and Degrees)  !
 ----------------------                            ----------------------
 !      Name          Value   Derivative information (Atomic Units)     !
 ------------------------------------------------------------------------
 !       rn1         1.2602   estimate D2E/DX2                          !
 !       rn2         1.3948   estimate D2E/DX2                          !
 !       rn3         1.1722   estimate D2E/DX2                          !
 !       rn4         0.9584   estimate D2E/DX2                          !
 !       rch         1.0829   estimate D2E/DX2                          !
 !       rnh         1.0152   estimate D2E/DX2                          !
 !       an1        72.5154   estimate D2E/DX2                          !
 !       an2       133.9998   estimate D2E/DX2                          !
 !       an3       194.7705   estimate D2E/DX2                          !
 !       an4       274.7342   estimate D2E/DX2                          !
 !       ach       124.7017   estimate D2E/DX2                          !
 !       anh       120.0061   estimate D2E/DX2                          !
 ------------------------------------------------------------------------


 ***************************************************
 ** O P T I M I Z A T I O N   P A R A M E T E R S **
 **  MAXIMUM NO. OF ITERATIONS      :          32 **
 **  MAXIMUM ALLOWED STEP LENGTH    :    0.300000 **
 ***************************************************



 NEF-NEF-NEF-NEF-NEF-NEF-NEF-NEF-NEF-NEF-NEF-NEF-NEF-NEF-NEF-NEF-NEF-NEF-
 ---------------------------------------------------------------------------------------------------
                            Z-MATRIX (ANGSTROMS AND DEGREES)
   CD    Cent   Atom    N1       Length/X        N2       Alpha/Y        N3        Beta/Z          J
 ---------------------------------------------------------------------------------------------------
      1         X 
      2         X        1   1.000000(     1)
      3      1  C        1   1.000000(     2)      2   90.000(     9)
      4      2  N        1   1.260200(     3)      2   90.000(    10)      3   72.515(    16)      0
      5      3  N        1   1.394800(     4)      2   90.000(    11)      3  134.000(    17)      0
      6      4  N        1   1.172200(     5)      2   90.000(    12)      3  194.771(    18)      0
      7      5  N        1   0.958400(     6)      2   90.000(    13)      3  274.734(    19)      0
      8      6  H        3   1.082900(     7)      4  124.702(    14)      5  180.000(    20)      0
      9      7  H        4   1.015200(     8)      5  120.006(    15)      6  180.000(    21)      0
 ---------------------------------------------------------------------------------------------------
                         Z-Matrix orientation:                         
 ---------------------------------------------------------------------
 Center     Atomic      Atomic             Coordinates (Angstroms)
 Number     Number       Type             X           Y           Z
 ---------------------------------------------------------------------
      1         -1           0        0.000000    0.000000    0.000000
      2         -1           0        0.000000    0.000000    1.000000
      3          6           0        1.000000    0.000000    0.000000
      4          7           0        0.378626   -1.201976    0.000000
      5          7           0       -0.968906   -1.003339    0.000000
      6          7           0       -1.133464    0.298850    0.000000
      7          7           0        0.079100    0.955130    0.000000
      8          1           0        2.073967    0.138808    0.000000
      9          1           0        0.752686   -2.145750    0.000000
 ---------------------------------------------------------------------
                    Distance matrix (angstroms):
                    1          2          3          4          5
     1  X    0.000000
     2  X    1.000000   0.000000
     3  C    1.000000   1.414214   0.000000
     4  N    1.260200   1.608759   1.353090   0.000000
     5  N    1.394800   1.716236   2.209814   1.362094   0.000000
     6  N    1.172200   1.540796   2.154294   2.130469   1.312545
     7  N    0.958400   1.385110   1.326774   2.177802   2.221242
     8  H    2.078607   2.306644   1.082900   2.161453   3.250165
     9  H    2.273935   2.484106   2.159956   1.015200   2.066152
                    6          7          8          9
     6  N    0.000000
     7  N    1.378773   0.000000
     8  H    3.211422   2.155429   0.000000
     9  H    3.087658   3.173197   2.639127   0.000000
 Stoichiometry    CH2N4
 Framework group  CS[SG(CH2N4)]
 Deg. of freedom    11
 Full point group                 CS      NOp   2
 Largest Abelian subgroup         CS      NOp   2
 Largest concise Abelian subgroup C1      NOp   1
                         Standard orientation:                         
 ---------------------------------------------------------------------
 Center     Atomic      Atomic             Coordinates (Angstroms)
 Number     Number       Type             X           Y           Z
 ---------------------------------------------------------------------
      1          6           0        1.074646    0.240555    0.000000
      2          7           0        0.000000    1.062739    0.000000
      3          7           0       -1.134127    0.308381    0.000000
      4          7           0       -0.727617   -0.939627    0.000000
      5          7           0        0.649034   -1.016101    0.000000
      6          1           0        2.105246    0.573025    0.000000
      7          1           0       -0.064161    2.075909    0.000000
 ---------------------------------------------------------------------
 Rotational constants (GHZ):     10.3284298     10.1276574      5.1135292
 Standard basis: 6-31G(d) (6D, 7F)
 There are    59 symmetry adapted cartesian basis functions of A'  symmetry.
 There are    20 symmetry adapted cartesian basis functions of A"  symmetry.
 There are    59 symmetry adapted basis functions of A'  symmetry.
 There are    20 symmetry adapted basis functions of A"  symmetry.
    79 basis functions,   148 primitive gaussians,    79 cartesian basis functions
    18 alpha electrons       18 beta electrons
       nuclear repulsion energy       165.0372151530 Hartrees.
 NAtoms=    7 NActive=    7 NUniq=    7 SFac= 1.00D+00 NAtFMM=   60 NAOKFM=F Big=F
 Integral buffers will be    131072 words long.
 Raffenetti 1 integral format.
 Two-electron integral symmetry is turned on.
 One-electron integrals computed using PRISM.
 NBasis=    79 RedAO= T EigKep=  3.97D-03  NBF=    59    20
 NBsUse=    79 1.00D-06 EigRej= -1.00D+00 NBFU=    59    20
 ExpMin= 1.61D-01 ExpMax= 4.17D+03 ExpMxC= 6.27D+02 IAcc=1 IRadAn=         1 AccDes= 0.00D+00
 Harris functional with IExCor=  205 and IRadAn=       1 diagonalized for initial guess.
 HarFok:  IExCor=  205 AccDes= 0.00D+00 IRadAn=         1 IDoV= 1 UseB2=F ITyADJ=14
 ICtDFT=  3500011 ScaDFX=  1.000000  1.000000  1.000000  1.000000
 FoFCou: FMM=F IPFlag=           0 FMFlag=      100000 FMFlg1=           0
         NFxFlg=           0 DoJE=T BraDBF=F KetDBF=T FulRan=T
         wScrn=  0.000000 ICntrl=     500 IOpCl=  0 I1Cent=   200000004 NGrid=           0
         NMat0=    1 NMatS0=      1 NMatT0=    0 NMatD0=    1 NMtDS0=    0 NMtDT0=    0
 Petite list used in FoFCou.
 Initial guess orbital symmetries:
       Occupied  (A') (A') (A') (A') (A') (A') (A') (A') (A') (A')
                 (A') (A') (A") (A') (A") (A') (A') (A")
       Virtual   (A") (A") (A') (A') (A') (A') (A') (A') (A') (A')
                 (A") (A') (A') (A') (A') (A") (A') (A") (A') (A")
                 (A") (A') (A') (A') (A') (A') (A') (A') (A') (A")
                 (A") (A") (A') (A') (A") (A") (A') (A') (A') (A')
                 (A') (A') (A") (A") (A') (A') (A") (A") (A') (A')
                 (A") (A') (A') (A') (A') (A') (A') (A') (A') (A')
                 (A')
 The electronic state of the initial guess is 1-A'.
 Keep R1 ints in memory in symmetry-blocked form, NReq=7698310.
 Requested convergence on RMS density matrix=1.00D-08 within 128 cycles.
 Requested convergence on MAX density matrix=1.00D-06.
 Requested convergence on             energy=1.00D-06.
 No special actions if energy rises.
 SCF Done:  E(RHF) =  -256.743476872     A.U. after   15 cycles
            NFock= 15  Conv=0.84D-08     -V/T= 2.0043
 Range of M.O.s used for correlation:     1    79
 NBasis=    79 NAE=    18 NBE=    18 NFC=     0 NFV=     0
 NROrb=     79 NOA=    18 NOB=    18 NVA=    61 NVB=    61
 Semi-Direct transformation.
 ModeAB=           2 MOrb=            18 LenV=     435733858
 LASXX=      1965708 LTotXX=     1965708 LenRXX=     1965708
 LTotAB=     2060019 MaxLAS=     4493520 LenRXY=     4493520
 NonZer=     4678380 LenScr=     7792640 LnRSAI=           0
 LnScr1=           0 LExtra=           0 Total=     14251868
 MaxDsk=          -1 SrtSym=           F ITran=            4
 JobTyp=0 Pass  1:  I=   1 to  18.
 (rs|ai) integrals will be sorted in core.
 Spin components of T(2) and E(2):
     alpha-alpha T2 =       0.3862874611D-01 E2=     -0.1125904795D+00
     alpha-beta  T2 =       0.1949844899D+00 E2=     -0.5853789142D+00
     beta-beta   T2 =       0.3862874611D-01 E2=     -0.1125904795D+00
 ANorm=    0.1127937047D+01
 E2 =    -0.8105598732D+00 EUMP2 =    -0.25755403674503D+03
 Keep R2 and R3 ints in memory in symmetry-blocked form, NReq=7982750.
 DD1Dir will call FoFMem   1 times, MxPair=       342
 NAB=   171 NAA=     0 NBB=     0.
 MP4(D)= -0.23063310D-01
 MP4(S)= -0.98323474D-02
 MP4(R+Q)=  0.22178555D-01
 Time for triples=       80.56 seconds.
 MP4(T)=   -0.42964336D-01
 E3=        0.52868441D-02        EUMP3=      -0.25754874990D+03
 E4(DQ)=   -0.88475505D-03        UMP4(DQ)=   -0.25754963466D+03
 E4(SDQ)=  -0.10717102D-01        UMP4(SDQ)=  -0.25755946700D+03
 E4(SDTQ)= -0.53681439D-01        UMP4(SDTQ)= -0.25760243134D+03
 Largest amplitude= 7.10D-02
 Discarding MO integrals.

 **********************************************************************

            Population analysis using the SCF density.

 **********************************************************************

 Orbital symmetries:
       Occupied  (A') (A') (A') (A') (A') (A') (A') (A') (A') (A')
                 (A') (A') (A") (A') (A') (A') (A") (A")
       Virtual   (A") (A") (A') (A') (A') (A') (A') (A') (A') (A')
                 (A") (A') (A') (A') (A') (A") (A') (A') (A") (A")
                 (A') (A') (A") (A') (A') (A') (A') (A') (A') (A")
                 (A") (A") (A') (A') (A") (A") (A') (A') (A') (A')
                 (A') (A') (A") (A") (A') (A') (A") (A") (A') (A')
                 (A") (A') (A') (A') (A') (A') (A') (A') (A') (A')
                 (A')
 The electronic state is 1-A'.
 Alpha  occ. eigenvalues --  -15.69160 -15.67345 -15.65661 -15.61320 -11.34661
 Alpha  occ. eigenvalues --   -1.47904  -1.24897  -1.18785  -0.90344  -0.88409
 Alpha  occ. eigenvalues --   -0.79408  -0.67121  -0.66641  -0.56533  -0.47908
 Alpha  occ. eigenvalues --   -0.47302  -0.45067  -0.41408
 Alpha virt. eigenvalues --    0.13281   0.18186   0.19523   0.24851   0.36265
 Alpha virt. eigenvalues --    0.37195   0.46397   0.49472   0.63363   0.73388
 Alpha virt. eigenvalues --    0.74034   0.82206   0.82393   0.88817   0.91202
 Alpha virt. eigenvalues --    0.92130   0.92242   0.95086   0.96445   1.04684
 Alpha virt. eigenvalues --    1.05410   1.08284   1.09163   1.12199   1.16284
 Alpha virt. eigenvalues --    1.22960   1.27244   1.30608   1.46696   1.55770
 Alpha virt. eigenvalues --    1.59344   1.63279   1.63962   1.68181   1.81875
 Alpha virt. eigenvalues --    1.84173   1.92736   2.14298   2.21792   2.32250
 Alpha virt. eigenvalues --    2.35088   2.44674   2.51150   2.55029   2.59354
 Alpha virt. eigenvalues --    2.63703   2.68447   2.74129   2.89757   2.90046
 Alpha virt. eigenvalues --    2.93248   3.00330   3.04629   3.24756   3.31362
 Alpha virt. eigenvalues --    3.37227   3.88437   4.01327   4.35227   4.43107
 Alpha virt. eigenvalues --    4.57009
          Condensed to atoms (all electrons):
               1          2          3          4          5          6
     1  C    4.747054   0.310126  -0.097800  -0.106949   0.466511   0.390181
     2  N    0.310126   6.927882   0.202558  -0.097517  -0.072317  -0.034865
     3  N   -0.097800   0.202558   6.692553   0.333038  -0.083274   0.001257
     4  N   -0.106949  -0.097517   0.333038   6.638228   0.290848   0.002974
     5  N    0.466511  -0.072317  -0.083274   0.290848   6.773627  -0.021391
     6  H    0.390181  -0.034865   0.001257   0.002974  -0.021391   0.399940
     7  H   -0.014966   0.314177  -0.018192   0.004029   0.003004   0.001069
               7
     1  C   -0.014966
     2  N    0.314177
     3  N   -0.018192
     4  N    0.004029
     5  N    0.003004
     6  H    0.001069
     7  H    0.275712
 Mulliken charges:
               1
     1  C    0.305843
     2  N   -0.550044
     3  N   -0.030140
     4  N   -0.064652
     5  N   -0.357008
     6  H    0.260835
     7  H    0.435167
 Sum of Mulliken charges =   0.00000
 Mulliken charges with hydrogens summed into heavy atoms:
               1
     1  C    0.566677
     2  N   -0.114877
     3  N   -0.030140
     4  N   -0.064652
     5  N   -0.357008
 Electronic spatial extent (au):  <R**2>=            255.3951
 Charge=              0.0000 electrons
 Dipole moment (field-independent basis, Debye):
    X=              2.7422    Y=              5.0238    Z=              0.0000  Tot=              5.7235
 Quadrupole moment (field-independent basis, Debye-Ang):
   XX=            -28.6861   YY=            -26.5118   ZZ=            -29.0025
   XY=              2.1449   XZ=              0.0000   YZ=              0.0000
 Traceless Quadrupole moment (field-independent basis, Debye-Ang):
   XX=             -0.6193   YY=              1.5550   ZZ=             -0.9357
   XY=              2.1449   XZ=              0.0000   YZ=              0.0000
 Octapole moment (field-independent basis, Debye-Ang**2):
  XXX=             13.2626  YYY=             24.0327  ZZZ=              0.0000  XYY=             -0.6908
  XXY=              5.2895  XXZ=              0.0000  XZZ=             -0.4657  YZZ=              0.6206
  YYZ=              0.0000  XYZ=              0.0000
 Hexadecapole moment (field-independent basis, Debye-Ang**3):
 XXXX=           -143.5200 YYYY=           -121.4075 ZZZZ=            -26.0451 XXXY=              7.8883
 XXXZ=              0.0000 YYYX=              0.0151 YYYZ=              0.0000 ZZZX=              0.0000
 ZZZY=              0.0000 XXYY=            -54.7200 XXZZ=            -31.0465 YYZZ=            -29.7588
 XXYZ=              0.0000 YYXZ=              0.0000 ZZXY=              0.1097
 N-N= 1.650372151530D+02 E-N=-9.308177354062D+02  KE= 2.556538015003D+02
 Symmetry A'   KE= 2.467351874465D+02
 Symmetry A"   KE= 8.918614053831D+00

 NEF-NEF-NEF-NEF-NEF-NEF-NEF-NEF-NEF-NEF-NEF-NEF-NEF-NEF-NEF-NEF-NEF-NEF-
 NUMERICAL EIGENVECTOR FOLLOWING MINIMUM SEARCH
 NUMERICALLY ESTIMATING GRADIENTS
 ITERATION   0 VARIABLE  1 STEP  1

 NEF-NEF-NEF-NEF-NEF-NEF-NEF-NEF-NEF-NEF-NEF-NEF-NEF-NEF-NEF-NEF-NEF-NEF-
 ---------------------------------------------------------------------------------------------------
                            Z-MATRIX (ANGSTROMS AND DEGREES)
   CD    Cent   Atom    N1       Length/X        N2       Alpha/Y        N3        Beta/Z          J
 ---------------------------------------------------------------------------------------------------
      1         X 
      2         X        1   1.000000(     1)
      3      1  C        1   1.000000(     2)      2   90.000(     9)
      4      2  N        1   1.260408(     3)      2   90.000(    10)      3   72.515(    16)      0
      5      3  N        1   1.394800(     4)      2   90.000(    11)      3  134.000(    17)      0
      6      4  N        1   1.172200(     5)      2   90.000(    12)      3  194.771(    18)      0
      7      5  N        1   0.958400(     6)      2   90.000(    13)      3  274.734(    19)      0
      8      6  H        3   1.082900(     7)      4  124.702(    14)      5  180.000(    20)      0
      9      7  H        4   1.015200(     8)      5  120.006(    15)      6  180.000(    21)      0
 ---------------------------------------------------------------------------------------------------
                         Z-Matrix orientation:                         
 ---------------------------------------------------------------------
 Center     Atomic      Atomic             Coordinates (Angstroms)
 Number     Number       Type             X           Y           Z
 ---------------------------------------------------------------------
      1         -1           0        0.000000    0.000000    0.000000
      2         -1           0        0.000000    0.000000    1.000000
      3          6           0        1.000000    0.000000    0.000000
      4          7           0        0.378689   -1.202174    0.000000
      5          7           0       -0.968906   -1.003339    0.000000
      6          7           0       -1.133464    0.298850    0.000000
      7          7           0        0.079100    0.955130    0.000000
      8          1           0        2.073952    0.138925    0.000000
      9          1           0        0.752619   -2.146000    0.000000
 ---------------------------------------------------------------------
                    Distance matrix (angstroms):
                    1          2          3          4          5
     1  X    0.000000
     2  X    1.000000   0.000000
     3  C    1.000000   1.414214   0.000000
     4  N    1.260408   1.608922   1.353237   0.000000
     5  N    1.394800   1.716236   2.209814   1.362185   0.000000
     6  N    1.172200   1.540796   2.154294   2.130653   1.312545
     7  N    0.958400   1.385110   1.326774   2.178008   2.221242
     8  H    2.078600   2.306637   1.082900   2.161588   3.250192
     9  H    2.274149   2.484301   2.160212   1.015200   2.066234
                    6          7          8          9
     6  N    0.000000
     7  N    1.378773   0.000000
     8  H    3.211401   2.155371   0.000000
     9  H    3.087815   3.173427   2.639470   0.000000
 Stoichiometry    CH2N4
 Framework group  CS[SG(CH2N4)]
 Deg. of freedom    11
 Full point group                 CS      NOp   2
 Largest Abelian subgroup         CS      NOp   2
 Largest concise Abelian subgroup C1      NOp   1
                         Standard orientation:                         
 ---------------------------------------------------------------------
 Center     Atomic      Atomic             Coordinates (Angstroms)
 Number     Number       Type             X           Y           Z
 ---------------------------------------------------------------------
      1          6           0        1.074660    0.240493    0.000000
      2          7           0        0.000000    1.062903    0.000000
      3          7           0       -1.134112    0.308358    0.000000
      4          7           0       -0.727624   -0.939657    0.000000
      5          7           0        0.649025   -1.016155    0.000000
      6          1           0        2.105302    0.572833    0.000000
      7          1           0       -0.064283    2.076065    0.000000
 ---------------------------------------------------------------------
 Rotational constants (GHZ):     10.3275869     10.1270061      5.1131565
 Standard basis: 6-31G(d) (6D, 7F)
 There are    59 symmetry adapted cartesian basis functions of A'  symmetry.
 There are    20 symmetry adapted cartesian basis functions of A"  symmetry.
 There are    59 symmetry adapted basis functions of A'  symmetry.
 There are    20 symmetry adapted basis functions of A"  symmetry.
    79 basis functions,   148 primitive gaussians,    79 cartesian basis functions
    18 alpha electrons       18 beta electrons
       nuclear repulsion energy       165.0315004012 Hartrees.
 NAtoms=    7 NActive=    7 NUniq=    7 SFac= 1.00D+00 NAtFMM=   60 NAOKFM=F Big=F
 Integral buffers will be    131072 words long.
 Raffenetti 1 integral format.
 Two-electron integral symmetry is turned on.
 One-electron integrals computed using PRISM.
 NBasis=    79 RedAO= T EigKep=  3.97D-03  NBF=    59    20
 NBsUse=    79 1.00D-06 EigRej= -1.00D+00 NBFU=    59    20
 Initial guess from the checkpoint file:  "/tmp/rdj3/g09-7726/Gau-7782.chk"
 B after Tr=     0.000000    0.000000    0.000000
         Rot=    1.000000    0.000000    0.000000    0.000006 Ang=   0.00 deg.
 Initial guess orbital symmetries:
       Occupied  (A') (A') (A') (A') (A') (A') (A') (A') (A') (A')
                 (A') (A') (A") (A') (A') (A') (A") (A")
       Virtual   (A') (A') (A') (A') (A') (A') (A') (A') (A') (A')
                 (A') (A') (A') (A') (A') (A') (A') (A') (A') (A')
                 (A') (A') (A') (A') (A') (A') (A') (A') (A') (A')
                 (A') (A') (A') (A') (A') (A') (A') (A') (A') (A')
                 (A') (A') (A') (A') (A") (A") (A") (A") (A") (A")
                 (A") (A") (A") (A") (A") (A") (A") (A") (A") (A")
                 (A")
 ExpMin= 1.61D-01 ExpMax= 4.17D+03 ExpMxC= 6.27D+02 IAcc=1 IRadAn=         1 AccDes= 0.00D+00
 Harris functional with IExCor=  205 and IRadAn=       1 diagonalized for initial guess.
 HarFok:  IExCor=  205 AccDes= 0.00D+00 IRadAn=         1 IDoV= 1 UseB2=F ITyADJ=14
 ICtDFT=  3500011 ScaDFX=  1.000000  1.000000  1.000000  1.000000
 FoFCou: FMM=F IPFlag=           0 FMFlag=      100000 FMFlg1=           0
         NFxFlg=           0 DoJE=T BraDBF=F KetDBF=T FulRan=T
         wScrn=  0.000000 ICntrl=     500 IOpCl=  0 I1Cent=   200000004 NGrid=           0
         NMat0=    1 NMatS0=      1 NMatT0=    0 NMatD0=    1 NMtDS0=    0 NMtDT0=    0
 Petite list used in FoFCou.
 Keep R1 ints in memory in symmetry-blocked form, NReq=7698310.
 Requested convergence on RMS density matrix=1.00D-08 within 128 cycles.
 Requested convergence on MAX density matrix=1.00D-06.
 Requested convergence on             energy=1.00D-06.
 No special actions if energy rises.
 SCF Done:  E(RHF) =  -256.743461529     A.U. after    8 cycles
            NFock=  8  Conv=0.61D-08     -V/T= 2.0043
 Range of M.O.s used for correlation:     1    79
 NBasis=    79 NAE=    18 NBE=    18 NFC=     0 NFV=     0
 NROrb=     79 NOA=    18 NOB=    18 NVA=    61 NVB=    61
 Semi-Direct transformation.
 ModeAB=           2 MOrb=            18 LenV=     435733858
 LASXX=      1965708 LTotXX=     1965708 LenRXX=     1965708
 LTotAB=     2060019 MaxLAS=     4493520 LenRXY=     4493520
 NonZer=     4678380 LenScr=     7792640 LnRSAI=           0
 LnScr1=           0 LExtra=           0 Total=     14251868
 MaxDsk=          -1 SrtSym=           F ITran=            4
 JobTyp=0 Pass  1:  I=   1 to  18.
 (rs|ai) integrals will be sorted in core.
 Spin components of T(2) and E(2):
     alpha-alpha T2 =       0.3863023528D-01 E2=     -0.1125911166D+00
     alpha-beta  T2 =       0.1949950416D+00 E2=     -0.5853888714D+00
     beta-beta   T2 =       0.3863023528D-01 E2=     -0.1125911166D+00
 ANorm=    0.1127943045D+01
 E2 =    -0.8105711046D+00 EUMP2 =    -0.25755403263390D+03
 Keep R2 and R3 ints in memory in symmetry-blocked form, NReq=7982750.
 DD1Dir will call FoFMem   1 times, MxPair=       342
 NAB=   171 NAA=     0 NBB=     0.
 MP4(D)= -0.23065043D-01
 MP4(S)= -0.98343264D-02
 MP4(R+Q)=  0.22179921D-01
 Time for triples=       78.50 seconds.
 MP4(T)=   -0.42967529D-01
 E3=        0.52889508D-02        EUMP3=      -0.25754874368D+03
 E4(DQ)=   -0.88512163D-03        UMP4(DQ)=   -0.25754962880D+03
 E4(SDQ)=  -0.10719448D-01        UMP4(SDQ)=  -0.25755946313D+03
 E4(SDTQ)= -0.53686977D-01        UMP4(SDTQ)= -0.25760243066D+03
 Largest amplitude= 7.10D-02
 Discarding MO integrals.

 NEF-NEF-NEF-NEF-NEF-NEF-NEF-NEF-NEF-NEF-NEF-NEF-NEF-NEF-NEF-NEF-NEF-NEF-
 NUMERICAL EIGENVECTOR FOLLOWING MINIMUM SEARCH
 NUMERICALLY ESTIMATING GRADIENTS
 ITERATION   0 VARIABLE  1 STEP  2

 NEF-NEF-NEF-NEF-NEF-NEF-NEF-NEF-NEF-NEF-NEF-NEF-NEF-NEF-NEF-NEF-NEF-NEF-
 ---------------------------------------------------------------------------------------------------
                            Z-MATRIX (ANGSTROMS AND DEGREES)
   CD    Cent   Atom    N1       Length/X        N2       Alpha/Y        N3        Beta/Z          J
 ---------------------------------------------------------------------------------------------------
      1         X 
      2         X        1   1.000000(     1)
      3      1  C        1   1.000000(     2)      2   90.000(     9)
      4      2  N        1   1.259992(     3)      2   90.000(    10)      3   72.515(    16)      0
      5      3  N        1   1.394800(     4)      2   90.000(    11)      3  134.000(    17)      0
      6      4  N        1   1.172200(     5)      2   90.000(    12)      3  194.771(    18)      0
      7      5  N        1   0.958400(     6)      2   90.000(    13)      3  274.734(    19)      0
      8      6  H        3   1.082900(     7)      4  124.702(    14)      5  180.000(    20)      0
      9      7  H        4   1.015200(     8)      5  120.006(    15)      6  180.000(    21)      0
 ---------------------------------------------------------------------------------------------------
                         Z-Matrix orientation:                         
 ---------------------------------------------------------------------
 Center     Atomic      Atomic             Coordinates (Angstroms)
 Number     Number       Type             X           Y           Z
 ---------------------------------------------------------------------
      1         -1           0        0.000000    0.000000    0.000000
      2         -1           0        0.000000    0.000000    1.000000
      3          6           0        1.000000    0.000000    0.000000
      4          7           0        0.378564   -1.201777    0.000000
      5          7           0       -0.968906   -1.003339    0.000000
      6          7           0       -1.133464    0.298850    0.000000
      7          7           0        0.079100    0.955130    0.000000
      8          1           0        2.073982    0.138692    0.000000
      9          1           0        0.752753   -2.145501    0.000000
 ---------------------------------------------------------------------
                    Distance matrix (angstroms):
                    1          2          3          4          5
     1  X    0.000000
     2  X    1.000000   0.000000
     3  C    1.000000   1.414214   0.000000
     4  N    1.259992   1.608596   1.352942   0.000000
     5  N    1.394800   1.716236   2.209814   1.362003   0.000000
     6  N    1.172200   1.540796   2.154294   2.130284   1.312545
     7  N    0.958400   1.385110   1.326774   2.177597   2.221242
     8  H    2.078614   2.306650   1.082900   2.161319   3.250138
     9  H    2.273722   2.483910   2.159700   1.015200   2.066070
                    6          7          8          9
     6  N    0.000000
     7  N    1.378773   0.000000
     8  H    3.211442   2.155487   0.000000
     9  H    3.087502   3.172967   2.638784   0.000000
 Stoichiometry    CH2N4
 Framework group  CS[SG(CH2N4)]
 Deg. of freedom    11
 Full point group                 CS      NOp   2
 Largest Abelian subgroup         CS      NOp   2
 Largest concise Abelian subgroup C1      NOp   1
                         Standard orientation:                         
 ---------------------------------------------------------------------
 Center     Atomic      Atomic             Coordinates (Angstroms)
 Number     Number       Type             X           Y           Z
 ---------------------------------------------------------------------
      1          6           0        1.074633    0.240617    0.000000
      2          7           0        0.000000    1.062575    0.000000
      3          7           0       -1.134141    0.308403    0.000000
      4          7           0       -0.727609   -0.939598    0.000000
      5          7           0        0.649043   -1.016047    0.000000
      6          1           0        2.105191    0.573217    0.000000
      7          1           0       -0.064040    2.075753    0.000000
 ---------------------------------------------------------------------
 Rotational constants (GHZ):     10.3292781     10.1283034      5.1139018
 Standard basis: 6-31G(d) (6D, 7F)
 There are    59 symmetry adapted cartesian basis functions of A'  symmetry.
 There are    20 symmetry adapted cartesian basis functions of A"  symmetry.
 There are    59 symmetry adapted basis functions of A'  symmetry.
 There are    20 symmetry adapted basis functions of A"  symmetry.
    79 basis functions,   148 primitive gaussians,    79 cartesian basis functions
    18 alpha electrons       18 beta electrons
       nuclear repulsion energy       165.0429303601 Hartrees.
 NAtoms=    7 NActive=    7 NUniq=    7 SFac= 1.00D+00 NAtFMM=   60 NAOKFM=F Big=F
 Integral buffers will be    131072 words long.
 Raffenetti 1 integral format.
 Two-electron integral symmetry is turned on.
 One-electron integrals computed using PRISM.
 NBasis=    79 RedAO= T EigKep=  3.97D-03  NBF=    59    20
 NBsUse=    79 1.00D-06 EigRej= -1.00D+00 NBFU=    59    20
 Initial guess from the checkpoint file:  "/tmp/rdj3/g09-7726/Gau-7782.chk"
 B after Tr=     0.000000    0.000000    0.000000
         Rot=    1.000000    0.000000    0.000000   -0.000013 Ang=   0.00 deg.
 Initial guess orbital symmetries:
       Occupied  (A') (A') (A') (A') (A') (A') (A') (A') (A') (A')
                 (A') (A') (A") (A') (A') (A') (A") (A")
       Virtual   (A') (A') (A') (A') (A') (A') (A') (A') (A') (A')
                 (A') (A') (A') (A') (A') (A') (A') (A') (A') (A')
                 (A') (A') (A') (A') (A') (A') (A') (A') (A') (A')
                 (A') (A') (A') (A') (A') (A') (A') (A') (A') (A')
                 (A') (A') (A') (A') (A") (A") (A") (A") (A") (A")
                 (A") (A") (A") (A") (A") (A") (A") (A") (A") (A")
                 (A")
 ExpMin= 1.61D-01 ExpMax= 4.17D+03 ExpMxC= 6.27D+02 IAcc=1 IRadAn=         1 AccDes= 0.00D+00
 Harris functional with IExCor=  205 and IRadAn=       1 diagonalized for initial guess.
 HarFok:  IExCor=  205 AccDes= 0.00D+00 IRadAn=         1 IDoV= 1 UseB2=F ITyADJ=14
 ICtDFT=  3500011 ScaDFX=  1.000000  1.000000  1.000000  1.000000
 FoFCou: FMM=F IPFlag=           0 FMFlag=      100000 FMFlg1=           0
         NFxFlg=           0 DoJE=T BraDBF=F KetDBF=T FulRan=T
         wScrn=  0.000000 ICntrl=     500 IOpCl=  0 I1Cent=   200000004 NGrid=           0
         NMat0=    1 NMatS0=      1 NMatT0=    0 NMatD0=    1 NMtDS0=    0 NMtDT0=    0
 Petite list used in FoFCou.
 Keep R1 ints in memory in symmetry-blocked form, NReq=7698310.
 Requested convergence on RMS density matrix=1.00D-08 within 128 cycles.
 Requested convergence on MAX density matrix=1.00D-06.
 Requested convergence on             energy=1.00D-06.
 No special actions if energy rises.
 SCF Done:  E(RHF) =  -256.743492117     A.U. after    9 cycles
            NFock=  9  Conv=0.35D-08     -V/T= 2.0043
 Range of M.O.s used for correlation:     1    79
 NBasis=    79 NAE=    18 NBE=    18 NFC=     0 NFV=     0
 NROrb=     79 NOA=    18 NOB=    18 NVA=    61 NVB=    61
 Semi-Direct transformation.
 ModeAB=           2 MOrb=            18 LenV=     435733858
 LASXX=      1965708 LTotXX=     1965708 LenRXX=     1965708
 LTotAB=     2060019 MaxLAS=     4493520 LenRXY=     4493520
 NonZer=     4678380 LenScr=     7792640 LnRSAI=           0
 LnScr1=           0 LExtra=           0 Total=     14251868
 MaxDsk=          -1 SrtSym=           F ITran=            4
 JobTyp=0 Pass  1:  I=   1 to  18.
 (rs|ai) integrals will be sorted in core.
 Spin components of T(2) and E(2):
     alpha-alpha T2 =       0.3862725809D-01 E2=     -0.1125898440D+00
     alpha-beta  T2 =       0.1949739426D+00 E2=     -0.5853689616D+00
     beta-beta   T2 =       0.3862725809D-01 E2=     -0.1125898440D+00
 ANorm=    0.1127931052D+01
 E2 =    -0.8105486495D+00 EUMP2 =    -0.25755404076677D+03
 Keep R2 and R3 ints in memory in symmetry-blocked form, NReq=7982750.
 DD1Dir will call FoFMem   1 times, MxPair=       342
 NAB=   171 NAA=     0 NBB=     0.
 MP4(D)= -0.23061579D-01
 MP4(S)= -0.98303695D-02
 MP4(R+Q)=  0.22177190D-01
 Time for triples=       79.43 seconds.
 MP4(T)=   -0.42961147D-01
 E3=        0.52847417D-02        EUMP3=      -0.25754875603D+03
 E4(DQ)=   -0.88438876D-03        UMP4(DQ)=   -0.25754964041D+03
 E4(SDQ)=  -0.10714758D-01        UMP4(SDQ)=  -0.25755947078D+03
 E4(SDTQ)= -0.53675905D-01        UMP4(SDTQ)= -0.25760243193D+03
 Largest amplitude= 7.10D-02
 Discarding MO integrals.

 NEF-NEF-NEF-NEF-NEF-NEF-NEF-NEF-NEF-NEF-NEF-NEF-NEF-NEF-NEF-NEF-NEF-NEF-
 NUMERICAL EIGENVECTOR FOLLOWING MINIMUM SEARCH
 NUMERICALLY ESTIMATING GRADIENTS
 ITERATION   0 VARIABLE  2 STEP  1

 NEF-NEF-NEF-NEF-NEF-NEF-NEF-NEF-NEF-NEF-NEF-NEF-NEF-NEF-NEF-NEF-NEF-NEF-
 ---------------------------------------------------------------------------------------------------
                            Z-MATRIX (ANGSTROMS AND DEGREES)
   CD    Cent   Atom    N1       Length/X        N2       Alpha/Y        N3        Beta/Z          J
 ---------------------------------------------------------------------------------------------------
      1         X 
      2         X        1   1.000000(     1)
      3      1  C        1   1.000000(     2)      2   90.000(     9)
      4      2  N        1   1.260200(     3)      2   90.000(    10)      3   72.515(    16)      0
      5      3  N        1   1.395008(     4)      2   90.000(    11)      3  134.000(    17)      0
      6      4  N        1   1.172200(     5)      2   90.000(    12)      3  194.771(    18)      0
      7      5  N        1   0.958400(     6)      2   90.000(    13)      3  274.734(    19)      0
      8      6  H        3   1.082900(     7)      4  124.702(    14)      5  180.000(    20)      0
      9      7  H        4   1.015200(     8)      5  120.006(    15)      6  180.000(    21)      0
 ---------------------------------------------------------------------------------------------------
                         Z-Matrix orientation:                         
 ---------------------------------------------------------------------
 Center     Atomic      Atomic             Coordinates (Angstroms)
 Number     Number       Type             X           Y           Z
 ---------------------------------------------------------------------
      1         -1           0        0.000000    0.000000    0.000000
      2         -1           0        0.000000    0.000000    1.000000
      3          6           0        1.000000    0.000000    0.000000
      4          7           0        0.378626   -1.201976    0.000000
      5          7           0       -0.969051   -1.003488    0.000000
      6          7           0       -1.133464    0.298850    0.000000
      7          7           0        0.079100    0.955130    0.000000
      8          1           0        2.073967    0.138808    0.000000
      9          1           0        0.752803   -2.145704    0.000000
 ---------------------------------------------------------------------
                    Distance matrix (angstroms):
                    1          2          3          4          5
     1  X    0.000000
     2  X    1.000000   0.000000
     3  C    1.000000   1.414214   0.000000
     4  N    1.260200   1.608759   1.353090   0.000000
     5  N    1.395008   1.716405   2.210011   1.362215   0.000000
     6  N    1.172200   1.540796   2.154294   2.130469   1.312675
     7  N    0.958400   1.385110   1.326774   2.177802   2.221442
     8  H    2.078607   2.306644   1.082900   2.161453   3.250353
     9  H    2.273930   2.484101   2.159896   1.015200   2.066262
                    6          7          8          9
     6  N    0.000000
     7  N    1.378773   0.000000
     8  H    3.211422   2.155429   0.000000
     9  H    3.087693   3.173176   2.639028   0.000000
 Stoichiometry    CH2N4
 Framework group  CS[SG(CH2N4)]
 Deg. of freedom    11
 Full point group                 CS      NOp   2
 Largest Abelian subgroup         CS      NOp   2
 Largest concise Abelian subgroup C1      NOp   1
                         Standard orientation:                         
 ---------------------------------------------------------------------
 Center     Atomic      Atomic             Coordinates (Angstroms)
 Number     Number       Type             X           Y           Z
 ---------------------------------------------------------------------
      1          6           0        1.074673    0.240575    0.000000
      2          7           0        0.000000    1.062724    0.000000
      3          7           0       -1.134297    0.308403    0.000000
      4          7           0       -0.727552   -0.939665    0.000000
      5          7           0        0.649102   -1.016095    0.000000
      6          1           0        2.105262    0.573079    0.000000
      7          1           0       -0.064068    2.075901    0.000000
 ---------------------------------------------------------------------
 Rotational constants (GHZ):     10.3282776     10.1264312      5.1131792
 Standard basis: 6-31G(d) (6D, 7F)
 There are    59 symmetry adapted cartesian basis functions of A'  symmetry.
 There are    20 symmetry adapted cartesian basis functions of A"  symmetry.
 There are    59 symmetry adapted basis functions of A'  symmetry.
 There are    20 symmetry adapted basis functions of A"  symmetry.
    79 basis functions,   148 primitive gaussians,    79 cartesian basis functions
    18 alpha electrons       18 beta electrons
       nuclear repulsion energy       165.0314920378 Hartrees.
 NAtoms=    7 NActive=    7 NUniq=    7 SFac= 1.00D+00 NAtFMM=   60 NAOKFM=F Big=F
 Integral buffers will be    131072 words long.
 Raffenetti 1 integral format.
 Two-electron integral symmetry is turned on.
 One-electron integrals computed using PRISM.
 NBasis=    79 RedAO= T EigKep=  3.97D-03  NBF=    59    20
 NBsUse=    79 1.00D-06 EigRej= -1.00D+00 NBFU=    59    20
 Initial guess from the checkpoint file:  "/tmp/rdj3/g09-7726/Gau-7782.chk"
 B after Tr=     0.000000    0.000000    0.000000
         Rot=    1.000000    0.000000    0.000000   -0.000006 Ang=   0.00 deg.
 Initial guess orbital symmetries:
       Occupied  (A') (A') (A') (A') (A') (A') (A') (A') (A') (A')
                 (A') (A') (A") (A') (A') (A') (A") (A")
       Virtual   (A') (A') (A') (A') (A') (A') (A') (A') (A') (A')
                 (A') (A') (A') (A') (A') (A') (A') (A') (A') (A')
                 (A') (A') (A') (A') (A') (A') (A') (A') (A') (A')
                 (A') (A') (A') (A') (A') (A') (A') (A') (A') (A')
                 (A') (A') (A') (A') (A") (A") (A") (A") (A") (A")
                 (A") (A") (A") (A") (A") (A") (A") (A") (A") (A")
                 (A")
 ExpMin= 1.61D-01 ExpMax= 4.17D+03 ExpMxC= 6.27D+02 IAcc=1 IRadAn=         1 AccDes= 0.00D+00
 Harris functional with IExCor=  205 and IRadAn=       1 diagonalized for initial guess.
 HarFok:  IExCor=  205 AccDes= 0.00D+00 IRadAn=         1 IDoV= 1 UseB2=F ITyADJ=14
 ICtDFT=  3500011 ScaDFX=  1.000000  1.000000  1.000000  1.000000
 FoFCou: FMM=F IPFlag=           0 FMFlag=      100000 FMFlg1=           0
         NFxFlg=           0 DoJE=T BraDBF=F KetDBF=T FulRan=T
         wScrn=  0.000000 ICntrl=     500 IOpCl=  0 I1Cent=   200000004 NGrid=           0
         NMat0=    1 NMatS0=      1 NMatT0=    0 NMatD0=    1 NMtDS0=    0 NMtDT0=    0
 Petite list used in FoFCou.
 Keep R1 ints in memory in symmetry-blocked form, NReq=7698310.
 Requested convergence on RMS density matrix=1.00D-08 within 128 cycles.
 Requested convergence on MAX density matrix=1.00D-06.
 Requested convergence on             energy=1.00D-06.
 No special actions if energy rises.
 SCF Done:  E(RHF) =  -256.743448562     A.U. after    8 cycles
            NFock=  8  Conv=0.91D-08     -V/T= 2.0043
 Range of M.O.s used for correlation:     1    79
 NBasis=    79 NAE=    18 NBE=    18 NFC=     0 NFV=     0
 NROrb=     79 NOA=    18 NOB=    18 NVA=    61 NVB=    61
 Semi-Direct transformation.
 ModeAB=           2 MOrb=            18 LenV=     435733858
 LASXX=      1965708 LTotXX=     1965708 LenRXX=     1965708
 LTotAB=     2060019 MaxLAS=     4493520 LenRXY=     4493520
 NonZer=     4678380 LenScr=     7792640 LnRSAI=           0
 LnScr1=           0 LExtra=           0 Total=     14251868
 MaxDsk=          -1 SrtSym=           F ITran=            4
 JobTyp=0 Pass  1:  I=   1 to  18.
 (rs|ai) integrals will be sorted in core.
 Spin components of T(2) and E(2):
     alpha-alpha T2 =       0.3863238835D-01 E2=     -0.1125940849D+00
     alpha-beta  T2 =       0.1950027272D+00 E2=     -0.5853982778D+00
     beta-beta   T2 =       0.3863238835D-01 E2=     -0.1125940849D+00
 ANorm=    0.1127948360D+01
 E2 =    -0.8105864477D+00 EUMP2 =    -0.25755403500990D+03
 Keep R2 and R3 ints in memory in symmetry-blocked form, NReq=7982750.
 DD1Dir will call FoFMem   1 times, MxPair=       342
 NAB=   171 NAA=     0 NBB=     0.
 MP4(D)= -0.23066903D-01
 MP4(S)= -0.98344091D-02
 MP4(R+Q)=  0.22182156D-01
 Time for triples=       79.06 seconds.
 MP4(T)=   -0.42971448D-01
 E3=        0.52950951D-02        EUMP3=      -0.25754873991D+03
 E4(DQ)=   -0.88474692D-03        UMP4(DQ)=   -0.25754962466D+03
 E4(SDQ)=  -0.10719156D-01        UMP4(SDQ)=  -0.25755945907D+03
 E4(SDTQ)= -0.53690604D-01        UMP4(SDTQ)= -0.25760243052D+03
 Largest amplitude= 7.10D-02
 Discarding MO integrals.

 NEF-NEF-NEF-NEF-NEF-NEF-NEF-NEF-NEF-NEF-NEF-NEF-NEF-NEF-NEF-NEF-NEF-NEF-
 NUMERICAL EIGENVECTOR FOLLOWING MINIMUM SEARCH
 NUMERICALLY ESTIMATING GRADIENTS
 ITERATION   0 VARIABLE  2 STEP  2

 NEF-NEF-NEF-NEF-NEF-NEF-NEF-NEF-NEF-NEF-NEF-NEF-NEF-NEF-NEF-NEF-NEF-NEF-
 ---------------------------------------------------------------------------------------------------
                            Z-MATRIX (ANGSTROMS AND DEGREES)
   CD    Cent   Atom    N1       Length/X        N2       Alpha/Y        N3        Beta/Z          J
 ---------------------------------------------------------------------------------------------------
      1         X 
      2         X        1   1.000000(     1)
      3      1  C        1   1.000000(     2)      2   90.000(     9)
      4      2  N        1   1.260200(     3)      2   90.000(    10)      3   72.515(    16)      0
      5      3  N        1   1.394592(     4)      2   90.000(    11)      3  134.000(    17)      0
      6      4  N        1   1.172200(     5)      2   90.000(    12)      3  194.771(    18)      0
      7      5  N        1   0.958400(     6)      2   90.000(    13)      3  274.734(    19)      0
      8      6  H        3   1.082900(     7)      4  124.702(    14)      5  180.000(    20)      0
      9      7  H        4   1.015200(     8)      5  120.006(    15)      6  180.000(    21)      0
 ---------------------------------------------------------------------------------------------------
                         Z-Matrix orientation:                         
 ---------------------------------------------------------------------
 Center     Atomic      Atomic             Coordinates (Angstroms)
 Number     Number       Type             X           Y           Z
 ---------------------------------------------------------------------
      1         -1           0        0.000000    0.000000    0.000000
      2         -1           0        0.000000    0.000000    1.000000
      3          6           0        1.000000    0.000000    0.000000
      4          7           0        0.378626   -1.201976    0.000000
      5          7           0       -0.968761   -1.003189    0.000000
      6          7           0       -1.133464    0.298850    0.000000
      7          7           0        0.079100    0.955130    0.000000
      8          1           0        2.073967    0.138808    0.000000
      9          1           0        0.752569   -2.145797    0.000000
 ---------------------------------------------------------------------
                    Distance matrix (angstroms):
                    1          2          3          4          5
     1  X    0.000000
     2  X    1.000000   0.000000
     3  C    1.000000   1.414214   0.000000
     4  N    1.260200   1.608759   1.353090   0.000000
     5  N    1.394592   1.716067   2.209617   1.361973   0.000000
     6  N    1.172200   1.540796   2.154294   2.130469   1.312415
     7  N    0.958400   1.385110   1.326774   2.177802   2.221042
     8  H    2.078607   2.306644   1.082900   2.161453   3.249977
     9  H    2.273940   2.484110   2.160015   1.015200   2.066042
                    6          7          8          9
     6  N    0.000000
     7  N    1.378773   0.000000
     8  H    3.211422   2.155429   0.000000
     9  H    3.087624   3.173218   2.639226   0.000000
 Stoichiometry    CH2N4
 Framework group  CS[SG(CH2N4)]
 Deg. of freedom    11
 Full point group                 CS      NOp   2
 Largest Abelian subgroup         CS      NOp   2
 Largest concise Abelian subgroup C1      NOp   1
                         Standard orientation:                         
 ---------------------------------------------------------------------
 Center     Atomic      Atomic             Coordinates (Angstroms)
 Number     Number       Type             X           Y           Z
 ---------------------------------------------------------------------
      1          6           0        1.074620    0.240535    0.000000
      2          7           0        0.000000    1.062754    0.000000
      3          7           0       -1.133957    0.308358    0.000000
      4          7           0       -0.727681   -0.939589    0.000000
      5          7           0        0.648967   -1.016108    0.000000
      6          1           0        2.105230    0.572972    0.000000
      7          1           0       -0.064255    2.075918    0.000000
 ---------------------------------------------------------------------
 Rotational constants (GHZ):     10.3285834     10.1288824      5.1138791
 Standard basis: 6-31G(d) (6D, 7F)
 There are    59 symmetry adapted cartesian basis functions of A'  symmetry.
 There are    20 symmetry adapted cartesian basis functions of A"  symmetry.
 There are    59 symmetry adapted basis functions of A'  symmetry.
 There are    20 symmetry adapted basis functions of A"  symmetry.
    79 basis functions,   148 primitive gaussians,    79 cartesian basis functions
    18 alpha electrons       18 beta electrons
       nuclear repulsion energy       165.0429387052 Hartrees.
 NAtoms=    7 NActive=    7 NUniq=    7 SFac= 1.00D+00 NAtFMM=   60 NAOKFM=F Big=F
 Integral buffers will be    131072 words long.
 Raffenetti 1 integral format.
 Two-electron integral symmetry is turned on.
 One-electron integrals computed using PRISM.
 NBasis=    79 RedAO= T EigKep=  3.97D-03  NBF=    59    20
 NBsUse=    79 1.00D-06 EigRej= -1.00D+00 NBFU=    59    20
 Initial guess from the checkpoint file:  "/tmp/rdj3/g09-7726/Gau-7782.chk"
 B after Tr=     0.000000    0.000000    0.000000
         Rot=    1.000000    0.000000    0.000000    0.000024 Ang=   0.00 deg.
 Initial guess orbital symmetries:
       Occupied  (A') (A') (A') (A') (A') (A') (A') (A') (A') (A')
                 (A') (A') (A") (A') (A') (A') (A") (A")
       Virtual   (A') (A') (A') (A') (A') (A') (A') (A') (A') (A')
                 (A') (A') (A') (A') (A') (A') (A') (A') (A') (A')
                 (A') (A') (A') (A') (A') (A') (A') (A') (A') (A')
                 (A') (A') (A') (A') (A') (A') (A') (A') (A') (A')
                 (A') (A') (A') (A') (A") (A") (A") (A") (A") (A")
                 (A") (A") (A") (A") (A") (A") (A") (A") (A") (A")
                 (A")
 ExpMin= 1.61D-01 ExpMax= 4.17D+03 ExpMxC= 6.27D+02 IAcc=1 IRadAn=         1 AccDes= 0.00D+00
 Harris functional with IExCor=  205 and IRadAn=       1 diagonalized for initial guess.
 HarFok:  IExCor=  205 AccDes= 0.00D+00 IRadAn=         1 IDoV= 1 UseB2=F ITyADJ=14
 ICtDFT=  3500011 ScaDFX=  1.000000  1.000000  1.000000  1.000000
 FoFCou: FMM=F IPFlag=           0 FMFlag=      100000 FMFlg1=           0
         NFxFlg=           0 DoJE=T BraDBF=F KetDBF=T FulRan=T
         wScrn=  0.000000 ICntrl=     500 IOpCl=  0 I1Cent=   200000004 NGrid=           0
         NMat0=    1 NMatS0=      1 NMatT0=    0 NMatD0=    1 NMtDS0=    0 NMtDT0=    0
 Petite list used in FoFCou.
 Keep R1 ints in memory in symmetry-blocked form, NReq=7698310.
 Requested convergence on RMS density matrix=1.00D-08 within 128 cycles.
 Requested convergence on MAX density matrix=1.00D-06.
 Requested convergence on             energy=1.00D-06.
 No special actions if energy rises.
 SCF Done:  E(RHF) =  -256.743505088     A.U. after    9 cycles
            NFock=  9  Conv=0.38D-08     -V/T= 2.0043
 Range of M.O.s used for correlation:     1    79
 NBasis=    79 NAE=    18 NBE=    18 NFC=     0 NFV=     0
 NROrb=     79 NOA=    18 NOB=    18 NVA=    61 NVB=    61
 Semi-Direct transformation.
 ModeAB=           2 MOrb=            18 LenV=     435733858
 LASXX=      1965708 LTotXX=     1965708 LenRXX=     1965708
 LTotAB=     2060019 MaxLAS=     4493520 LenRXY=     4493520
 NonZer=     4678380 LenScr=     7792640 LnRSAI=           0
 LnScr1=           0 LExtra=           0 Total=     14251868
 MaxDsk=          -1 SrtSym=           F ITran=            4
 JobTyp=0 Pass  1:  I=   1 to  18.
 (rs|ai) integrals will be sorted in core.
 Spin components of T(2) and E(2):
     alpha-alpha T2 =       0.3862510361D-01 E2=     -0.1125868728D+00
     alpha-beta  T2 =       0.1949662558D+00 E2=     -0.5853595505D+00
     beta-beta   T2 =       0.3862510361D-01 E2=     -0.1125868728D+00
 ANorm=    0.1127925735D+01
 E2 =    -0.8105332960D+00 EUMP2 =    -0.25755403838387D+03
 Keep R2 and R3 ints in memory in symmetry-blocked form, NReq=7982750.
 DD1Dir will call FoFMem   1 times, MxPair=       342
 NAB=   171 NAA=     0 NBB=     0.
 MP4(D)= -0.23059718D-01
 MP4(S)= -0.98302878D-02
 MP4(R+Q)=  0.22174954D-01
 Time for triples=       80.34 seconds.
 MP4(T)=   -0.42957225D-01
 E3=        0.52785938D-02        EUMP3=      -0.25754875979D+03
 E4(DQ)=   -0.88476399D-03        UMP4(DQ)=   -0.25754964455D+03
 E4(SDQ)=  -0.10715052D-01        UMP4(SDQ)=  -0.25755947484D+03
 E4(SDTQ)= -0.53672277D-01        UMP4(SDTQ)= -0.25760243207D+03
 Largest amplitude= 7.10D-02
 Discarding MO integrals.

 NEF-NEF-NEF-NEF-NEF-NEF-NEF-NEF-NEF-NEF-NEF-NEF-NEF-NEF-NEF-NEF-NEF-NEF-
 NUMERICAL EIGENVECTOR FOLLOWING MINIMUM SEARCH
 NUMERICALLY ESTIMATING GRADIENTS
 ITERATION   0 VARIABLE  3 STEP  1

 NEF-NEF-NEF-NEF-NEF-NEF-NEF-NEF-NEF-NEF-NEF-NEF-NEF-NEF-NEF-NEF-NEF-NEF-
 ---------------------------------------------------------------------------------------------------
                            Z-MATRIX (ANGSTROMS AND DEGREES)
   CD    Cent   Atom    N1       Length/X        N2       Alpha/Y        N3        Beta/Z          J
 ---------------------------------------------------------------------------------------------------
      1         X 
      2         X        1   1.000000(     1)
      3      1  C        1   1.000000(     2)      2   90.000(     9)
      4      2  N        1   1.260200(     3)      2   90.000(    10)      3   72.515(    16)      0
      5      3  N        1   1.394800(     4)      2   90.000(    11)      3  134.000(    17)      0
      6      4  N        1   1.172408(     5)      2   90.000(    12)      3  194.771(    18)      0
      7      5  N        1   0.958400(     6)      2   90.000(    13)      3  274.734(    19)      0
      8      6  H        3   1.082900(     7)      4  124.702(    14)      5  180.000(    20)      0
      9      7  H        4   1.015200(     8)      5  120.006(    15)      6  180.000(    21)      0
 ---------------------------------------------------------------------------------------------------
                         Z-Matrix orientation:                         
 ---------------------------------------------------------------------
 Center     Atomic      Atomic             Coordinates (Angstroms)
 Number     Number       Type             X           Y           Z
 ---------------------------------------------------------------------
      1         -1           0        0.000000    0.000000    0.000000
      2         -1           0        0.000000    0.000000    1.000000
      3          6           0        1.000000    0.000000    0.000000
      4          7           0        0.378626   -1.201976    0.000000
      5          7           0       -0.968906   -1.003339    0.000000
      6          7           0       -1.133666    0.298903    0.000000
      7          7           0        0.079100    0.955130    0.000000
      8          1           0        2.073967    0.138808    0.000000
      9          1           0        0.752686   -2.145750    0.000000
 ---------------------------------------------------------------------
                    Distance matrix (angstroms):
                    1          2          3          4          5
     1  X    0.000000
     2  X    1.000000   0.000000
     3  C    1.000000   1.414214   0.000000
     4  N    1.260200   1.608759   1.353090   0.000000
     5  N    1.394800   1.716236   2.209814   1.362094   0.000000
     6  N    1.172408   1.540955   2.154500   2.130649   1.312623
     7  N    0.958400   1.385110   1.326774   2.177802   2.221242
     8  H    2.078607   2.306644   1.082900   2.161453   3.250165
     9  H    2.273935   2.484106   2.159956   1.015200   2.066152
                    6          7          8          9
     6  N    0.000000
     7  N    1.378925   0.000000
     8  H    3.211625   2.155429   0.000000
     9  H    3.087823   3.173197   2.639127   0.000000
 Stoichiometry    CH2N4
 Framework group  CS[SG(CH2N4)]
 Deg. of freedom    11
 Full point group                 CS      NOp   2
 Largest Abelian subgroup         CS      NOp   2
 Largest concise Abelian subgroup C1      NOp   1
                         Standard orientation:                         
 ---------------------------------------------------------------------
 Center     Atomic      Atomic             Coordinates (Angstroms)
 Number     Number       Type             X           Y           Z
 ---------------------------------------------------------------------
      1          6           0        1.074670    0.240612    0.000000
      2          7           0        0.000000    1.062765    0.000000
      3          7           0       -1.134105    0.308373    0.000000
      4          7           0       -0.727718   -0.939756    0.000000
      5          7           0        0.649095   -1.016056    0.000000
      6          1           0        2.105260    0.573113    0.000000
      7          1           0       -0.064191    2.075934    0.000000
 ---------------------------------------------------------------------
 Rotational constants (GHZ):     10.3270818     10.1276345      5.1131929
 Standard basis: 6-31G(d) (6D, 7F)
 There are    59 symmetry adapted cartesian basis functions of A'  symmetry.
 There are    20 symmetry adapted cartesian basis functions of A"  symmetry.
 There are    59 symmetry adapted basis functions of A'  symmetry.
 There are    20 symmetry adapted basis functions of A"  symmetry.
    79 basis functions,   148 primitive gaussians,    79 cartesian basis functions
    18 alpha electrons       18 beta electrons
       nuclear repulsion energy       165.0318173000 Hartrees.
 NAtoms=    7 NActive=    7 NUniq=    7 SFac= 1.00D+00 NAtFMM=   60 NAOKFM=F Big=F
 Integral buffers will be    131072 words long.
 Raffenetti 1 integral format.
 Two-electron integral symmetry is turned on.
 One-electron integrals computed using PRISM.
 NBasis=    79 RedAO= T EigKep=  3.97D-03  NBF=    59    20
 NBsUse=    79 1.00D-06 EigRej= -1.00D+00 NBFU=    59    20
 Initial guess from the checkpoint file:  "/tmp/rdj3/g09-7726/Gau-7782.chk"
 B after Tr=     0.000000    0.000000    0.000000
         Rot=    1.000000    0.000000    0.000000   -0.000023 Ang=   0.00 deg.
 Initial guess orbital symmetries:
       Occupied  (A') (A') (A') (A') (A') (A') (A') (A') (A') (A')
                 (A') (A') (A") (A') (A') (A') (A") (A")
       Virtual   (A') (A') (A') (A') (A') (A') (A') (A') (A') (A')
                 (A') (A') (A') (A') (A') (A') (A') (A') (A') (A')
                 (A') (A') (A') (A') (A') (A') (A') (A') (A') (A')
                 (A') (A') (A') (A') (A') (A') (A') (A') (A') (A')
                 (A') (A') (A') (A') (A") (A") (A") (A") (A") (A")
                 (A") (A") (A") (A") (A") (A") (A") (A") (A") (A")
                 (A")
 ExpMin= 1.61D-01 ExpMax= 4.17D+03 ExpMxC= 6.27D+02 IAcc=1 IRadAn=         1 AccDes= 0.00D+00
 Harris functional with IExCor=  205 and IRadAn=       1 diagonalized for initial guess.
 HarFok:  IExCor=  205 AccDes= 0.00D+00 IRadAn=         1 IDoV= 1 UseB2=F ITyADJ=14
 ICtDFT=  3500011 ScaDFX=  1.000000  1.000000  1.000000  1.000000
 FoFCou: FMM=F IPFlag=           0 FMFlag=      100000 FMFlg1=           0
         NFxFlg=           0 DoJE=T BraDBF=F KetDBF=T FulRan=T
         wScrn=  0.000000 ICntrl=     500 IOpCl=  0 I1Cent=   200000004 NGrid=           0
         NMat0=    1 NMatS0=      1 NMatT0=    0 NMatD0=    1 NMtDS0=    0 NMtDT0=    0
 Petite list used in FoFCou.
 Keep R1 ints in memory in symmetry-blocked form, NReq=7698310.
 Requested convergence on RMS density matrix=1.00D-08 within 128 cycles.
 Requested convergence on MAX density matrix=1.00D-06.
 Requested convergence on             energy=1.00D-06.
 No special actions if energy rises.
 SCF Done:  E(RHF) =  -256.743454491     A.U. after    7 cycles
            NFock=  7  Conv=0.67D-08     -V/T= 2.0043
 Range of M.O.s used for correlation:     1    79
 NBasis=    79 NAE=    18 NBE=    18 NFC=     0 NFV=     0
 NROrb=     79 NOA=    18 NOB=    18 NVA=    61 NVB=    61
 Semi-Direct transformation.
 ModeAB=           2 MOrb=            18 LenV=     435733858
 LASXX=      1965708 LTotXX=     1965708 LenRXX=     1965708
 LTotAB=     2060019 MaxLAS=     4493520 LenRXY=     4493520
 NonZer=     4678380 LenScr=     7792640 LnRSAI=           0
 LnScr1=           0 LExtra=           0 Total=     14251868
 MaxDsk=          -1 SrtSym=           F ITran=            4
 JobTyp=0 Pass  1:  I=   1 to  18.
 (rs|ai) integrals will be sorted in core.
 Spin components of T(2) and E(2):
     alpha-alpha T2 =       0.3863137645D-01 E2=     -0.1125927015D+00
     alpha-beta  T2 =       0.1949996073D+00 E2=     -0.5853947829D+00
     beta-beta   T2 =       0.3863137645D-01 E2=     -0.1125927015D+00
 ANorm=    0.1127946080D+01
 E2 =    -0.8105801859D+00 EUMP2 =    -0.25755403467670D+03
 Keep R2 and R3 ints in memory in symmetry-blocked form, NReq=7982750.
 DD1Dir will call FoFMem   1 times, MxPair=       342
 NAB=   171 NAA=     0 NBB=     0.
 MP4(D)= -0.23066127D-01
 MP4(S)= -0.98338087D-02
 MP4(R+Q)=  0.22181225D-01
 Time for triples=       79.65 seconds.
 MP4(T)=   -0.42969312D-01
 E3=        0.52919290D-02        EUMP3=      -0.25754874275D+03
 E4(DQ)=   -0.88490203D-03        UMP4(DQ)=   -0.25754962765D+03
 E4(SDQ)=  -0.10718711D-01        UMP4(SDQ)=  -0.25755946146D+03
 E4(SDTQ)= -0.53688023D-01        UMP4(SDTQ)= -0.25760243077D+03
 Largest amplitude= 7.10D-02
 Discarding MO integrals.

 NEF-NEF-NEF-NEF-NEF-NEF-NEF-NEF-NEF-NEF-NEF-NEF-NEF-NEF-NEF-NEF-NEF-NEF-
 NUMERICAL EIGENVECTOR FOLLOWING MINIMUM SEARCH
 NUMERICALLY ESTIMATING GRADIENTS
 ITERATION   0 VARIABLE  3 STEP  2

 NEF-NEF-NEF-NEF-NEF-NEF-NEF-NEF-NEF-NEF-NEF-NEF-NEF-NEF-NEF-NEF-NEF-NEF-
 ---------------------------------------------------------------------------------------------------
                            Z-MATRIX (ANGSTROMS AND DEGREES)
   CD    Cent   Atom    N1       Length/X        N2       Alpha/Y        N3        Beta/Z          J
 ---------------------------------------------------------------------------------------------------
      1         X 
      2         X        1   1.000000(     1)
      3      1  C        1   1.000000(     2)      2   90.000(     9)
      4      2  N        1   1.260200(     3)      2   90.000(    10)      3   72.515(    16)      0
      5      3  N        1   1.394800(     4)      2   90.000(    11)      3  134.000(    17)      0
      6      4  N        1   1.171992(     5)      2   90.000(    12)      3  194.771(    18)      0
      7      5  N        1   0.958400(     6)      2   90.000(    13)      3  274.734(    19)      0
      8      6  H        3   1.082900(     7)      4  124.702(    14)      5  180.000(    20)      0
      9      7  H        4   1.015200(     8)      5  120.006(    15)      6  180.000(    21)      0
 ---------------------------------------------------------------------------------------------------
                         Z-Matrix orientation:                         
 ---------------------------------------------------------------------
 Center     Atomic      Atomic             Coordinates (Angstroms)
 Number     Number       Type             X           Y           Z
 ---------------------------------------------------------------------
      1         -1           0        0.000000    0.000000    0.000000
      2         -1           0        0.000000    0.000000    1.000000
      3          6           0        1.000000    0.000000    0.000000
      4          7           0        0.378626   -1.201976    0.000000
      5          7           0       -0.968906   -1.003339    0.000000
      6          7           0       -1.133263    0.298797    0.000000
      7          7           0        0.079100    0.955130    0.000000
      8          1           0        2.073967    0.138808    0.000000
      9          1           0        0.752686   -2.145750    0.000000
 ---------------------------------------------------------------------
                    Distance matrix (angstroms):
                    1          2          3          4          5
     1  X    0.000000
     2  X    1.000000   0.000000
     3  C    1.000000   1.414214   0.000000
     4  N    1.260200   1.608759   1.353090   0.000000
     5  N    1.394800   1.716236   2.209814   1.362094   0.000000
     6  N    1.171992   1.540638   2.154087   2.130288   1.312467
     7  N    0.958400   1.385110   1.326774   2.177802   2.221242
     8  H    2.078607   2.306644   1.082900   2.161453   3.250165
     9  H    2.273935   2.484106   2.159956   1.015200   2.066152
                    6          7          8          9
     6  N    0.000000
     7  N    1.378622   0.000000
     8  H    3.211218   2.155429   0.000000
     9  H    3.087494   3.173197   2.639127   0.000000
 Stoichiometry    CH2N4
 Framework group  CS[SG(CH2N4)]
 Deg. of freedom    11
 Full point group                 CS      NOp   2
 Largest Abelian subgroup         CS      NOp   2
 Largest concise Abelian subgroup C1      NOp   1
                         Standard orientation:                         
 ---------------------------------------------------------------------
 Center     Atomic      Atomic             Coordinates (Angstroms)
 Number     Number       Type             X           Y           Z
 ---------------------------------------------------------------------
      1          6           0        1.074622    0.240498    0.000000
      2          7           0        0.000000    1.062713    0.000000
      3          7           0       -1.134149    0.308388    0.000000
      4          7           0       -0.727516   -0.939498    0.000000
      5          7           0        0.648974   -1.016146    0.000000
      6          1           0        2.105232    0.572938    0.000000
      7          1           0       -0.064132    2.075885    0.000000
 ---------------------------------------------------------------------
 Rotational constants (GHZ):     10.3297785     10.1276798      5.1138654
 Standard basis: 6-31G(d) (6D, 7F)
 There are    59 symmetry adapted cartesian basis functions of A'  symmetry.
 There are    20 symmetry adapted cartesian basis functions of A"  symmetry.
 There are    59 symmetry adapted basis functions of A'  symmetry.
 There are    20 symmetry adapted basis functions of A"  symmetry.
    79 basis functions,   148 primitive gaussians,    79 cartesian basis functions
    18 alpha electrons       18 beta electrons
       nuclear repulsion energy       165.0426133201 Hartrees.
 NAtoms=    7 NActive=    7 NUniq=    7 SFac= 1.00D+00 NAtFMM=   60 NAOKFM=F Big=F
 Integral buffers will be    131072 words long.
 Raffenetti 1 integral format.
 Two-electron integral symmetry is turned on.
 One-electron integrals computed using PRISM.
 NBasis=    79 RedAO= T EigKep=  3.97D-03  NBF=    59    20
 NBsUse=    79 1.00D-06 EigRej= -1.00D+00 NBFU=    59    20
 Initial guess from the checkpoint file:  "/tmp/rdj3/g09-7726/Gau-7782.chk"
 B after Tr=     0.000000    0.000000    0.000000
         Rot=    1.000000    0.000000    0.000000    0.000022 Ang=   0.00 deg.
 Initial guess orbital symmetries:
       Occupied  (A') (A') (A') (A') (A') (A') (A') (A') (A') (A')
                 (A') (A') (A") (A') (A') (A') (A") (A")
       Virtual   (A') (A') (A') (A') (A') (A') (A') (A') (A') (A')
                 (A') (A') (A') (A') (A') (A') (A') (A') (A') (A')
                 (A') (A') (A') (A') (A') (A') (A') (A') (A') (A')
                 (A') (A') (A') (A') (A') (A') (A') (A') (A') (A')
                 (A') (A') (A') (A') (A") (A") (A") (A") (A") (A")
                 (A") (A") (A") (A") (A") (A") (A") (A") (A") (A")
                 (A")
 ExpMin= 1.61D-01 ExpMax= 4.17D+03 ExpMxC= 6.27D+02 IAcc=1 IRadAn=         1 AccDes= 0.00D+00
 Harris functional with IExCor=  205 and IRadAn=       1 diagonalized for initial guess.
 HarFok:  IExCor=  205 AccDes= 0.00D+00 IRadAn=         1 IDoV= 1 UseB2=F ITyADJ=14
 ICtDFT=  3500011 ScaDFX=  1.000000  1.000000  1.000000  1.000000
 FoFCou: FMM=F IPFlag=           0 FMFlag=      100000 FMFlg1=           0
         NFxFlg=           0 DoJE=T BraDBF=F KetDBF=T FulRan=T
         wScrn=  0.000000 ICntrl=     500 IOpCl=  0 I1Cent=   200000004 NGrid=           0
         NMat0=    1 NMatS0=      1 NMatT0=    0 NMatD0=    1 NMtDS0=    0 NMtDT0=    0
 Petite list used in FoFCou.
 Keep R1 ints in memory in symmetry-blocked form, NReq=7698310.
 Requested convergence on RMS density matrix=1.00D-08 within 128 cycles.
 Requested convergence on MAX density matrix=1.00D-06.
 Requested convergence on             energy=1.00D-06.
 No special actions if energy rises.
 SCF Done:  E(RHF) =  -256.743499161     A.U. after    9 cycles
            NFock=  9  Conv=0.34D-08     -V/T= 2.0043
 Range of M.O.s used for correlation:     1    79
 NBasis=    79 NAE=    18 NBE=    18 NFC=     0 NFV=     0
 NROrb=     79 NOA=    18 NOB=    18 NVA=    61 NVB=    61
 Semi-Direct transformation.
 ModeAB=           2 MOrb=            18 LenV=     435733858
 LASXX=      1965708 LTotXX=     1965708 LenRXX=     1965708
 LTotAB=     2060019 MaxLAS=     4493520 LenRXY=     4493520
 NonZer=     4678380 LenScr=     7792640 LnRSAI=           0
 LnScr1=           0 LExtra=           0 Total=     14251868
 MaxDsk=          -1 SrtSym=           F ITran=            4
 JobTyp=0 Pass  1:  I=   1 to  18.
 (rs|ai) integrals will be sorted in core.
 Spin components of T(2) and E(2):
     alpha-alpha T2 =       0.3862611800D-01 E2=     -0.1125882603D+00
     alpha-beta  T2 =       0.1949693822D+00 E2=     -0.5853630543D+00
     beta-beta   T2 =       0.3862611800D-01 E2=     -0.1125882603D+00
 ANorm=    0.1127928020D+01
 E2 =    -0.8105395749D+00 EUMP2 =    -0.25755403873610D+03
 Keep R2 and R3 ints in memory in symmetry-blocked form, NReq=7982750.
 DD1Dir will call FoFMem   1 times, MxPair=       342
 NAB=   171 NAA=     0 NBB=     0.
 MP4(D)= -0.23060495D-01
 MP4(S)= -0.98308865D-02
 MP4(R+Q)=  0.22175887D-01
 Time for triples=       79.60 seconds.
 MP4(T)=   -0.42959365D-01
 E3=        0.52817656D-02        EUMP3=      -0.25754875697D+03
 E4(DQ)=   -0.88460786D-03        UMP4(DQ)=   -0.25754964158D+03
 E4(SDQ)=  -0.10715494D-01        UMP4(SDQ)=  -0.25755947246D+03
 E4(SDTQ)= -0.53674859D-01        UMP4(SDTQ)= -0.25760243183D+03
 Largest amplitude= 7.10D-02
 Discarding MO integrals.

 NEF-NEF-NEF-NEF-NEF-NEF-NEF-NEF-NEF-NEF-NEF-NEF-NEF-NEF-NEF-NEF-NEF-NEF-
 NUMERICAL EIGENVECTOR FOLLOWING MINIMUM SEARCH
 NUMERICALLY ESTIMATING GRADIENTS
 ITERATION   0 VARIABLE  4 STEP  1

 NEF-NEF-NEF-NEF-NEF-NEF-NEF-NEF-NEF-NEF-NEF-NEF-NEF-NEF-NEF-NEF-NEF-NEF-
 ---------------------------------------------------------------------------------------------------
                            Z-MATRIX (ANGSTROMS AND DEGREES)
   CD    Cent   Atom    N1       Length/X        N2       Alpha/Y        N3        Beta/Z          J
 ---------------------------------------------------------------------------------------------------
      1         X 
      2         X        1   1.000000(     1)
      3      1  C        1   1.000000(     2)      2   90.000(     9)
      4      2  N        1   1.260200(     3)      2   90.000(    10)      3   72.515(    16)      0
      5      3  N        1   1.394800(     4)      2   90.000(    11)      3  134.000(    17)      0
      6      4  N        1   1.172200(     5)      2   90.000(    12)      3  194.771(    18)      0
      7      5  N        1   0.958608(     6)      2   90.000(    13)      3  274.734(    19)      0
      8      6  H        3   1.082900(     7)      4  124.702(    14)      5  180.000(    20)      0
      9      7  H        4   1.015200(     8)      5  120.006(    15)      6  180.000(    21)      0
 ---------------------------------------------------------------------------------------------------
                         Z-Matrix orientation:                         
 ---------------------------------------------------------------------
 Center     Atomic      Atomic             Coordinates (Angstroms)
 Number     Number       Type             X           Y           Z
 ---------------------------------------------------------------------
      1         -1           0        0.000000    0.000000    0.000000
      2         -1           0        0.000000    0.000000    1.000000
      3          6           0        1.000000    0.000000    0.000000
      4          7           0        0.378626   -1.201976    0.000000
      5          7           0       -0.968906   -1.003339    0.000000
      6          7           0       -1.133464    0.298850    0.000000
      7          7           0        0.079117    0.955338    0.000000
      8          1           0        2.073967    0.138808    0.000000
      9          1           0        0.752686   -2.145750    0.000000
 ---------------------------------------------------------------------
                    Distance matrix (angstroms):
                    1          2          3          4          5
     1  X    0.000000
     2  X    1.000000   0.000000
     3  C    1.000000   1.414214   0.000000
     4  N    1.260200   1.608759   1.353090   0.000000
     5  N    1.394800   1.716236   2.209814   1.362094   0.000000
     6  N    1.172200   1.540796   2.154294   2.130469   1.312545
     7  N    0.958608   1.385254   1.326912   2.178005   2.221433
     8  H    2.078607   2.306644   1.082900   2.161453   3.250165
     9  H    2.273935   2.484106   2.159956   1.015200   2.066152
                    6          7          8          9
     6  N    0.000000
     7  N    1.378887   0.000000
     8  H    3.211422   2.155492   0.000000
     9  H    3.087658   3.173396   2.639127   0.000000
 Stoichiometry    CH2N4
 Framework group  CS[SG(CH2N4)]
 Deg. of freedom    11
 Full point group                 CS      NOp   2
 Largest Abelian subgroup         CS      NOp   2
 Largest concise Abelian subgroup C1      NOp   1
                         Standard orientation:                         
 ---------------------------------------------------------------------
 Center     Atomic      Atomic             Coordinates (Angstroms)
 Number     Number       Type             X           Y           Z
 ---------------------------------------------------------------------
      1          6           0        1.074631    0.240570    0.000000
      2          7           0        0.000000    1.062774    0.000000
      3          7           0       -1.134141    0.308437    0.000000
      4          7           0       -0.727655   -0.939578    0.000000
      5          7           0        0.649099   -1.016259    0.000000
      6          1           0        2.105237    0.573020    0.000000
      7          1           0       -0.064142    2.075946    0.000000
 ---------------------------------------------------------------------
 Rotational constants (GHZ):     10.3282019     10.1264730      5.1131714
 Standard basis: 6-31G(d) (6D, 7F)
 There are    59 symmetry adapted cartesian basis functions of A'  symmetry.
 There are    20 symmetry adapted cartesian basis functions of A"  symmetry.
 There are    59 symmetry adapted basis functions of A'  symmetry.
 There are    20 symmetry adapted basis functions of A"  symmetry.
    79 basis functions,   148 primitive gaussians,    79 cartesian basis functions
    18 alpha electrons       18 beta electrons
       nuclear repulsion energy       165.0316909821 Hartrees.
 NAtoms=    7 NActive=    7 NUniq=    7 SFac= 1.00D+00 NAtFMM=   60 NAOKFM=F Big=F
 Integral buffers will be    131072 words long.
 Raffenetti 1 integral format.
 Two-electron integral symmetry is turned on.
 One-electron integrals computed using PRISM.
 NBasis=    79 RedAO= T EigKep=  3.97D-03  NBF=    59    20
 NBsUse=    79 1.00D-06 EigRej= -1.00D+00 NBFU=    59    20
[...]
 Quadrupole moment (field-independent basis, Debye-Ang):
   XX=            -28.6954   YY=            -26.5039   ZZ=            -28.9854
   XY=              2.1427   XZ=              0.0195   YZ=              0.0494
 Traceless Quadrupole moment (field-independent basis, Debye-Ang):
   XX=             -0.6338   YY=              1.5577   ZZ=             -0.9238
   XY=              2.1427   XZ=              0.0195   YZ=              0.0494
 Octapole moment (field-independent basis, Debye-Ang**2):
  XXX=             13.2308  YYY=             24.0102  ZZZ=             -0.0262  XYY=             -0.6851
  XXY=              5.2731  XXZ=              0.0431  XZZ=             -0.4646  YZZ=              0.6218
  YYZ=              0.0919  XYZ=              0.0131
 Hexadecapole moment (field-independent basis, Debye-Ang**3):
 XXXX=           -143.2760 YYYY=           -121.1824 ZZZZ=            -26.0188 XXXY=              7.8347
 XXXZ=              0.0858 YYYX=              0.0089 YYYZ=              0.1715 ZZZX=             -0.0360
 ZZZY=             -0.0291 XXYY=            -54.6268 XXZZ=            -30.9848 YYZZ=            -29.7031
 XXYZ=              0.0210 YYXZ=             -0.0101 ZZXY=              0.1041
 N-N= 1.652122542659D+02 E-N=-9.311836787894D+02  KE= 2.556756105736D+02
 Skip step-back as it is equivalent to step-up.
 Numerical evaluation of force constants complete.
 Full mass-weighted force constant matrix:
 Low frequencies ---  -13.3011   -9.8213   -6.7606    3.8657    9.3813   14.2177
 Low frequencies ---  559.8037  683.9046  724.6128
 Diagonal vibrational polarizability:
        0.0000000       0.0000000       0.0000000
 Harmonic frequencies (cm**-1), IR intensities (KM/Mole), Raman scattering
 activities (A**4/AMU), depolarization ratios for plane and unpolarized
 incident light, reduced masses (AMU), force constants (mDyne/A),
 and normal coordinates:
                      1                      2                      3
                     A"                     A"                     A"
 Frequencies --    559.8037               683.9046               724.6128
 Red. masses --      1.8956                 1.9969                 7.1454
 Frc consts  --      0.3500                 0.5503                 2.2105
 IR Inten    --      0.0000                 0.0000                 0.0000
  Atom  AN      X      Y      Z        X      Y      Z        X      Y      Z
     1   6     0.00   0.00  -0.10     0.00   0.00   0.18     0.00   0.00  -0.09
     2   7     0.00   0.00   0.22     0.00   0.00  -0.09     0.00   0.00  -0.12
     3   7     0.00   0.00  -0.09     0.00   0.00   0.09     0.00   0.00   0.40
     4   7     0.00   0.00   0.01     0.00   0.00   0.05     0.00   0.00  -0.45
     5   7     0.00   0.00   0.03     0.00   0.00  -0.18     0.00   0.00   0.30
     6   1     0.00   0.00  -0.16     0.00   0.00   0.52     0.00   0.00   0.03
     7   1     0.00   0.00  -0.95     0.00   0.00  -0.81     0.00   0.00  -0.73
                      4                      5                      6
                     A"                     A'                     A'
 Frequencies --    818.9103               949.8529               998.9265
 Red. masses --      1.3130                 5.3564                 6.2789
 Frc consts  --      0.5188                 2.8473                 3.6915
 IR Inten    --      0.0000                 0.0000                 0.0000
  Atom  AN      X      Y      Z        X      Y      Z        X      Y      Z
     1   6     0.00   0.00   0.16     0.07   0.11   0.00    -0.36  -0.08   0.00
     2   7     0.00   0.00  -0.02     0.10   0.06   0.00     0.01   0.42   0.00
     3   7     0.00   0.00   0.00     0.15  -0.16   0.00     0.08  -0.05   0.00
     4   7     0.00   0.00  -0.02     0.10  -0.18   0.00     0.21  -0.05   0.00
     5   7     0.00   0.00  -0.02    -0.41   0.23   0.00     0.00  -0.24   0.00
     6   1     0.00   0.00  -0.98     0.31  -0.66   0.00    -0.25  -0.49   0.00
     7   1     0.00   0.00  -0.12    -0.37   0.02   0.00     0.25   0.45   0.00
                      7                      8                      9
                     A'                     A'                     A'
 Frequencies --   1045.6023              1059.5082              1154.0415
 Red. masses --      7.1647                 3.3304                 1.7984
 Frc consts  --      4.6151                 2.2027                 1.4112
 IR Inten    --      0.0000                 0.0000                 0.0000
  Atom  AN      X      Y      Z        X      Y      Z        X      Y      Z
     1   6    -0.15  -0.03   0.00    -0.03  -0.01   0.00     0.09  -0.10   0.00
     2   7    -0.18  -0.29   0.00    -0.13   0.02   0.00    -0.12   0.01   0.00
     3   7     0.12   0.26   0.00     0.35   0.06   0.00    -0.05  -0.01   0.00
     4   7     0.44   0.10   0.00    -0.16  -0.03   0.00     0.08   0.15   0.00
     5   7    -0.23  -0.06   0.00     0.04  -0.05   0.00     0.04  -0.01   0.00
     6   1    -0.36   0.55   0.00    -0.11   0.21   0.00     0.29  -0.73   0.00
     7   1     0.12  -0.29   0.00    -0.87  -0.03   0.00    -0.56  -0.01   0.00
                     10                     11                     12
                     A'                     A'                     A'
 Frequencies --   1227.3875              1256.4961              1467.6314
 Red. masses --      8.8187                 2.4825                 3.0157
 Frc consts  --      7.8274                 2.3092                 3.8271
 IR Inten    --      0.0000                 0.0000                 0.0000
  Atom  AN      X      Y      Z        X      Y      Z        X      Y      Z
     1   6     0.19   0.02   0.00     0.19   0.05   0.00    -0.19   0.21   0.00
     2   7    -0.14   0.10   0.00     0.05   0.10   0.00     0.22  -0.12   0.00
     3   7    -0.15   0.49   0.00    -0.09  -0.04   0.00    -0.07   0.07   0.00
     4   7     0.04  -0.52   0.00     0.04   0.03   0.00     0.01   0.00   0.00
     5   7     0.06  -0.06   0.00    -0.12  -0.20   0.00     0.06  -0.09   0.00
     6   1     0.38  -0.46   0.00     0.00   0.74   0.00    -0.01  -0.42   0.00
     7   1    -0.14   0.12   0.00    -0.57   0.08   0.00    -0.78  -0.22   0.00
                     13                     14                     15
                     A'                     A'                     A'
 Frequencies --   1490.9219              3306.3583              3643.7434
 Red. masses --      3.0769                 1.1008                 1.0842
 Frc consts  --      4.0297                 7.0902                 8.4813
 IR Inten    --      0.0000                 0.0000                 0.0000
  Atom  AN      X      Y      Z        X      Y      Z        X      Y      Z
     1   6     0.08   0.31   0.00     0.09   0.03   0.00     0.00   0.00   0.00
     2   7    -0.14  -0.04   0.00     0.00   0.00   0.00    -0.01   0.08   0.00
     3   7     0.08  -0.04   0.00     0.00   0.00   0.00     0.00   0.00   0.00
     4   7    -0.05   0.05   0.00     0.00   0.00   0.00     0.00   0.00   0.00
     5   7    -0.03  -0.20   0.00     0.00   0.00   0.00     0.00   0.00   0.00
     6   1     0.36  -0.47   0.00    -0.95  -0.30   0.00    -0.02   0.00   0.00
     7   1     0.69   0.01   0.00     0.01   0.02   0.00     0.07  -0.99   0.00

 -------------------
 - Thermochemistry -
 -------------------
 Temperature   298.150 Kelvin.  Pressure   1.00000 Atm.
 Atom     1 has atomic number  6 and mass  12.00000
 Atom     2 has atomic number  7 and mass  14.00307
 Atom     3 has atomic number  7 and mass  14.00307
 Atom     4 has atomic number  7 and mass  14.00307
 Atom     5 has atomic number  7 and mass  14.00307
 Atom     6 has atomic number  1 and mass   1.00783
 Atom     7 has atomic number  1 and mass   1.00783
 Molecular mass:    70.02795 amu.
 Principal axes and moments of inertia in atomic units:
                           1         2         3
     Eigenvalues --   174.42308 177.74796 352.17104
           X            0.82302   0.56802   0.00000
           Y           -0.56802   0.82302   0.00000
           Z            0.00000   0.00000   1.00000
 This molecule is an asymmetric top.
 Rotational symmetry number  1.
 Rotational temperatures (Kelvin)      0.49657     0.48728     0.24594
 Rotational constants (GHZ):          10.34692    10.15337     5.12462
 Zero-point vibrational energy     121945.5 (Joules/Mol)
                                   29.14568 (Kcal/Mol)
 Warning -- explicit consideration of   1 degrees of freedom as
           vibrations may cause significant error
 Vibrational temperatures:    805.43   983.98  1042.55  1178.23  1366.62
          (Kelvin)           1437.23  1504.39  1524.39  1660.41  1765.93
                             1807.82  2111.59  2145.10  4757.11  5242.53
 
 Zero-point correction=                           0.046447 (Hartree/Particle)
 Thermal correction to Energy=                    0.049959
 Thermal correction to Enthalpy=                  0.050903
 Thermal correction to Gibbs Free Energy=         0.020311
 Sum of electronic and zero-point Energies=           -257.555996
 Sum of electronic and thermal Energies=              -257.552483
 Sum of electronic and thermal Enthalpies=            -257.551539
 Sum of electronic and thermal Free Energies=         -257.582132
 
                     E (Thermal)             CV                S
                      KCal/Mol        Cal/Mol-Kelvin    Cal/Mol-Kelvin
 Total                   31.350             11.560             64.387
 Electronic               0.000              0.000              0.000
 Translational            0.889              2.981             38.656
 Rotational               0.889              2.981             23.905
 Vibrational             29.572              5.598              1.826
 Vibration     1          0.915              1.118              0.524
                       Q            Log10(Q)             Ln(Q)
 Total Bot       0.454554D-09         -9.342415        -21.511705
 Total V=0       0.105073D+13         12.021493         27.680511
 Vib (Bot)       0.527589D-21        -21.277705        -48.993725
 Vib (Bot)    1  0.277691D+00         -0.556439         -1.281248
 Vib (V=0)       0.121956D+01          0.086203          0.198490
 Vib (V=0)    1  0.107194D+01          0.030169          0.069467
 Electronic      0.100000D+01          0.000000          0.000000
 Translational   0.230336D+08          7.362362         16.952466
 Rotational      0.374048D+05          4.572928         10.529555
 ***** Axes restored to original set *****
 -------------------------------------------------------------------
 Center     Atomic                   Forces (Hartrees/Bohr)
 Number     Number              X              Y              Z
 -------------------------------------------------------------------
      1        6           0.000017775   -0.000063218    0.000000000
      2        7          -0.000072636    0.000018843    0.000000000
      3        7           0.000101829   -0.000054542    0.000000000
      4        7          -0.000061500    0.000043120    0.000000000
      5        7          -0.000094937    0.000163792    0.000000000
      6        1           0.000071909   -0.000025710    0.000000000
      7        1           0.000019268   -0.000065790    0.000000000
 -------------------------------------------------------------------
 Cartesian Forces:  Max     0.000163792 RMS     0.000059881
 -----------------------------------------------------------------------------------------------
                       Internal Coordinate Forces (Hartree/Bohr or radian)
  Cent   Atom   N1       Length/X         N2         Alpha/Y        N3         Beta/Z          J
 -----------------------------------------------------------------------------------------------
         X 
         X        1   0.000000(     1)
      1  C        1   0.000114(     2)      2   0.000000(     9)
      2  N        1   0.000013(     3)      2   0.000000(    10)      3   0.000207(    16)     0
      3  N        1  -0.000035(     4)      2   0.000000(    11)      3  -0.000285(    17)     0
      4  N        1   0.000070(     5)      2   0.000000(    12)      3   0.000057(    18)     0
      5  N        1   0.000155(     6)      2   0.000000(    13)      3  -0.000196(    19)     0
      6  H        3   0.000068(     7)      4  -0.000071(    14)      5   0.000000(    20)     0
      7  H        4   0.000068(     8)      5  -0.000012(    15)      6   0.000000(    21)     0
 -----------------------------------------------------------------------------------------------
 Internal  Forces:  Max     0.000285046 RMS     0.000103232

 GradGradGradGradGradGradGradGradGradGradGradGradGradGradGradGradGradGrad
 Berny optimization.
 Search for a local minimum.
 Step number   1 out of a maximum of    2
 All quantities printed in internal units (Hartrees-Bohrs-Radians)
 Second derivative matrix not updated -- analytic derivatives used.
 The second derivative matrix:
                          rn1       rn2       rn3       rn4       rch
           rn1          0.57383
           rn2         -0.05217   0.53587
           rn3          0.06685  -0.03387   0.51798
           rn4          0.09345   0.07218  -0.02010   0.53096
           rch         -0.00366  -0.00176   0.00071  -0.00481   0.38290
           rnh          0.01027  -0.00880  -0.00004  -0.00019   0.00024
           an1          0.13601  -0.35377  -0.19865   0.12232   0.01084
           an2          0.24756  -0.05757  -0.36326  -0.14585   0.00352
           an3          0.21244   0.40467   0.16749  -0.23734  -0.00186
           an4         -0.11779   0.14509   0.27577  -0.18026  -0.01141
           ach          0.03830   0.01257  -0.01478   0.02837   0.00253
           anh         -0.05337   0.01941   0.02594  -0.02058  -0.00132
                          rnh       an1       an2       an3       an4
           rnh          0.47094
           an1         -0.00861   2.57491
           an2          0.01183  -1.10421   2.86381
           an3         -0.00153  -0.26117  -1.33873   2.09477
           an4         -0.00120  -0.21647  -0.20804  -0.35100   1.43452
           ach          0.00082   0.00311  -0.01977  -0.00788   0.08945
           anh         -0.00144  -0.03584  -0.01563   0.00710  -0.00587
                          ach       anh
           ach          0.21882
           anh          0.00009   0.21496
 ITU=  0
     Eigenvalues ---    0.00000   0.15786   0.21302   0.26857   0.38292
     Eigenvalues ---    0.47030   0.59275   0.64486   0.80923   1.78878
     Eigenvalues ---    2.82144   4.26454
 Eigenvalue     1 is  -3.49D-06 should be greater than     0.000000 Eigenvector:
                          rn4       an3       rn1       an2       rn2
   1                    0.47262   0.45833  -0.45244   0.37620  -0.34166
                          an4       an1       rn3       anh       rnh
   1                    0.22898   0.19093   0.12136  -0.00057  -0.00020
 Quadratic step=4.652D-01 exceeds max=3.000D-01 adjusted using Lamda=-1.911D-06.
 Angle between NR and scaled steps=   0.03 degrees.
 Angle between quadratic step and forces=  89.74 degrees.
 Linear search not attempted -- first point.
 Variable       Old X    -DE/DX   Delta X   Delta X   Delta X     New X
                                 (Linear)    (Quad)   (Total)
   rn1        2.37918   0.00001   0.00000  -0.13597  -0.13597   2.24320
   rn2        2.63017  -0.00004   0.00000  -0.10267  -0.10267   2.52751
   rn3        2.21094   0.00007   0.00000   0.03665   0.03665   2.24760
   rn4        1.80983   0.00016   0.00000   0.14225   0.14225   1.95208
   rch        2.04593   0.00007   0.00000   0.00018   0.00018   2.04611
   rnh        1.91813   0.00007   0.00000   0.00009   0.00009   1.91822
   an1        1.26460   0.00021   0.00000   0.05741   0.05741   1.32201
   an2        2.33853  -0.00029   0.00000   0.11297   0.11297   2.45150
   an3        3.40027   0.00006   0.00000   0.13770   0.13770   3.53797
   an4        4.79631  -0.00020   0.00000   0.06867   0.06867   4.86498
   ach        2.17741  -0.00007   0.00000  -0.00032  -0.00032   2.17709
   anh        2.09573  -0.00001   0.00000  -0.00023  -0.00023   2.09550
         Item               Value     Threshold  Converged?
 Maximum Force            0.000285     0.000450     YES
 RMS     Force            0.000133     0.000300     YES
 Maximum Displacement     0.142248     0.001800     NO 
 RMS     Displacement     0.086768     0.001200     NO 
 Predicted change in Energy=-7.187490D-07
 GradGradGradGradGradGradGradGradGradGradGradGradGradGradGradGradGradGrad

 1\1\GINC-N339\Freq\RMP4SDTQ-Full\6-31G(d)\C1H2N4\RDJ3\14-Jan-2014\1\\#
 N Geom=AllCheck Guess=TCheck SCRF=Check GenChk RMP4SDTQ-Full/6-31G(d) 
 Freq\\1H-tetrazole CH2N4 casno=288948 state=1 config=1 method=44 basis
 =1\\0,1\X\X,1,1.\C,1,1.,2,90.\N,1,rn1,2,90.,3,an1,0\N,1,rn2,2,90.,3,an
 2,0\N,1,rn3,2,90.,3,an3,0\N,1,rn4,2,90.,3,an4,0\H,3,rch,4,ach,5,180.,0
 \H,4,rnh,5,anh,6,180.,0\\rn1=1.25900661\rn2=1.391828\rn3=1.16998098\rn
 4=0.95772213\rch=1.08266069\rnh=1.01503006\an1=72.45606867\an2=133.987
 71884\an3=194.82128454\an4=274.80833816\ach=124.75644884\anh=120.07647
 234\\Version=EM64L-G09RevD.01\State=1-A'\HF=-256.7441529\MP2=-257.5541
 078\MP3=-257.5489814\MP4D=-257.5719622\MP4DQ=-257.5498618\MP4SDQ=-257.
 5596395\MP4SDTQ=-257.6024427\RMSD=9.919e-09\RMSF=5.988e-05\ZeroPoint=0
 .0464466\Thermal=0.0499592\PG=CS [SG(C1H2N4)]\NImag=0\\0.94060810,0.02
 449911,0.61980985,0.,0.,0.12662832,-0.16820750,-0.08743126,0.,0.575986
 41,-0.10565398,-0.28878346,0.,-0.10041259,0.98972182,0.,0.,-0.05383711
 ,0.,0.,0.08397863,-0.08699187,-0.08076099,0.,-0.23062570,-0.03597774,0
 .,0.45051056,0.00252586,-0.02387572,0.,0.01188286,-0.10368412,0.,0.060
 26426,0.51689338,0.,0.,0.01865171,0.,0.,-0.06387226,0.,0.,0.10927466,-
 0.11264238,0.06076856,0.,-0.06839508,0.03395577,0.,-0.11032844,-0.0147
 4535,0.,0.47464759,-0.02748798,0.02197881,0.,0.09677750,-0.09152268,0.
 ,0.06922974,-0.29642601,0.,-0.08797808,0.47182689,0.,0.,0.01838493,0.,
 0.,0.02477049,0.,0.,-0.09245174,0.,0.,0.11883459,-0.22570802,0.1389705
 5,0.,0.01144235,0.07968733,0.,-0.02528481,-0.09721034,0.,-0.16981598,-
 0.05479154,0.,0.42187429,0.12974815,-0.26424122,0.,-0.02053798,-0.0948
 0553,0.,-0.00931240,-0.09053115,0.,0.00622558,-0.10469423,0.,-0.090483
 46,0.54694967,0.,0.,-0.07353680,0.,0.,0.01893104,0.,0.,0.03446322,0.,0
 .,-0.08631130,0.,0.,0.10471617,-0.36374972,-0.04310853,0.,-0.00147675,
 0.00332307,0.,0.00039380,0.00257551,0.,-0.00173775,-0.00017104,0.,-0.0
 0988926,-0.00575650,0.,0.37706677,-0.03977166,-0.06051042,0.,-0.032810
 40,0.00198554,0.,-0.00158196,-0.00667728,0.,0.00636554,-0.00358393,0.,
 0.02415860,0.01114116,0.,0.04353885,0.05807518,0.,0.,-0.02585465,0.,0.
 ,-0.00435054,0.,0.,0.00636947,0.,0.,0.00873904,0.,0.,-0.00576138,0.,0.
 ,0.02138870,0.01686959,-0.01305576,0.,-0.11853819,0.12484269,0.,0.0024
 9643,0.03458734,0.,-0.01180076,0.00446744,0.,-0.00265223,-0.00985519,0
 .,-0.00056782,0.00009651,0.,0.11410436,0.01596874,-0.00453356,0.,0.132
 41683,-0.41304151,0.,-0.00201058,0.00416662,0.,-0.00453880,0.00250795,
 0.,-0.00032577,-0.00377195,0.,-0.00042510,-0.00042440,0.,-0.14100089,0
 .41523097,0.,0.,-0.01040849,0.,0.,-0.00559978,0.,0.,-0.01241073,0.,0.,
 0.00805366,0.,0.,0.00750837,0.,0.,-0.00049441,0.,0.,0.01337426\\-0.000
 01778,0.00006322,0.,0.00007264,-0.00001884,0.,-0.00010183,0.00005454,0
 .,0.00006150,-0.00004312,0.,0.00009494,-0.00016379,0.,-0.00007191,0.00
 002571,0.,-0.00001927,0.00006579,0.\\\@


 GARLIC THEN HAVE POWER TO SAVE FROM DEATH
 BEAR WITH IT THOUGH IT MAKETH UNSAVORY BREATH,
 AND SCORN NOT GARLIC LIKE SOME THAT THINK
 IT ONLY MAKETH MEN WINK AND DRINK AND STINK.
   --  SIR JOHN HARRINGTON,
       "THE ENGLISHMAN'S DOCTOR", 1609
 Job cpu time:       0 days 13 hours  1 minutes 17.6 seconds.
 File lengths (MBytes):  RWF=    277 Int=      0 D2E=      0 Chk=     38 Scr=      1
 Normal termination of Gaussian 09 at Tue Jan 14 19:17:49 2014.
