 Entering Gaussian System, Link 0=g09
 Initial command:
 /usr/local/gaussian/g09.d01.em64t.legacy.linda/g09/l1.exe "/tmp/rdj3/g09-13184/Gau-21041.inp" -scrdir="/tmp/rdj3/g09-13184/"
 Entering Link 1 = /usr/local/gaussian/g09.d01.em64t.legacy.linda/g09/l1.exe PID=     21042.
  
 Copyright (c) 1988,1990,1992,1993,1995,1998,2003,2009,2013,
            Gaussian, Inc.  All Rights Reserved.
  
 This is part of the Gaussian(R) 09 program.  It is based on
 the Gaussian(R) 03 system (copyright 2003, Gaussian, Inc.),
 the Gaussian(R) 98 system (copyright 1998, Gaussian, Inc.),
 the Gaussian(R) 94 system (copyright 1995, Gaussian, Inc.),
 the Gaussian 92(TM) system (copyright 1992, Gaussian, Inc.),
 the Gaussian 90(TM) system (copyright 1990, Gaussian, Inc.),
 the Gaussian 88(TM) system (copyright 1988, Gaussian, Inc.),
 the Gaussian 86(TM) system (copyright 1986, Carnegie Mellon
 University), and the Gaussian 82(TM) system (copyright 1983,
 Carnegie Mellon University). Gaussian is a federally registered
 trademark of Gaussian, Inc.
  
 This software contains proprietary and confidential information,
 including trade secrets, belonging to Gaussian, Inc.
  
 This software is provided under written license and may be
 used, copied, transmitted, or stored only in accord with that
 written license.
  
 The following legend is applicable only to US Government
 contracts under FAR:
  
                    RESTRICTED RIGHTS LEGEND
  
 Use, reproduction and disclosure by the US Government is
 subject to restrictions as set forth in subparagraphs (a)
 and (c) of the Commercial Computer Software - Restricted
 Rights clause in FAR 52.227-19.
  
 Gaussian, Inc.
 340 Quinnipiac St., Bldg. 40, Wallingford CT 06492
  
  
 ---------------------------------------------------------------
 Warning -- This program may not be used in any manner that
 competes with the business of Gaussian, Inc. or will provide
 assistance to any competitor of Gaussian, Inc.  The licensee
 of this program is prohibited from giving any competitor of
 Gaussian, Inc. access to this program.  By using this program,
 the user acknowledges that Gaussian, Inc. is engaged in the
 business of creating and licensing software in the field of
 computational chemistry and represents and warrants to the
 licensee that it is not a competitor of Gaussian, Inc. and that
 it will not use this program in any manner prohibited above.
 ---------------------------------------------------------------
  

 Cite this work as:
 Gaussian 09, Revision D.01,
 M. J. Frisch, G. W. Trucks, H. B. Schlegel, G. E. Scuseria, 
 M. A. Robb, J. R. Cheeseman, G. Scalmani, V. Barone, B. Mennucci, 
 G. A. Petersson, H. Nakatsuji, M. Caricato, X. Li, H. P. Hratchian, 
 A. F. Izmaylov, J. Bloino, G. Zheng, J. L. Sonnenberg, M. Hada, 
 M. Ehara, K. Toyota, R. Fukuda, J. Hasegawa, M. Ishida, T. Nakajima, 
 Y. Honda, O. Kitao, H. Nakai, T. Vreven, J. A. Montgomery, Jr., 
 J. E. Peralta, F. Ogliaro, M. Bearpark, J. J. Heyd, E. Brothers, 
 K. N. Kudin, V. N. Staroverov, T. Keith, R. Kobayashi, J. Normand, 
 K. Raghavachari, A. Rendell, J. C. Burant, S. S. Iyengar, J. Tomasi, 
 M. Cossi, N. Rega, J. M. Millam, M. Klene, J. E. Knox, J. B. Cross, 
 V. Bakken, C. Adamo, J. Jaramillo, R. Gomperts, R. E. Stratmann, 
 O. Yazyev, A. J. Austin, R. Cammi, C. Pomelli, J. W. Ochterski, 
 R. L. Martin, K. Morokuma, V. G. Zakrzewski, G. A. Voth, 
 P. Salvador, J. J. Dannenberg, S. Dapprich, A. D. Daniels, 
 O. Farkas, J. B. Foresman, J. V. Ortiz, J. Cioslowski, 
 and D. J. Fox, Gaussian, Inc., Wallingford CT, 2013.
 
 ******************************************
 Gaussian 09:  EM64L-G09RevD.01 24-Apr-2013
                29-Nov-2013 
 ******************************************
 %Nproc=8
 Will use up to    8 processors via shared memory.
 %mem=436000000
 ----------------------------
 #MP4/3-21G opt=z-matrix freq
 ----------------------------

 Warning:  this job cannot use analytic gradients
           and so will do many energy evaluations.

 1/18=40,29=20000,38=1/1,14;
 2/12=2,17=6,18=5,29=3,40=1/2;
 3/5=5,11=9,16=1,25=1,30=1/1,2,3;
 4//1;
 5/5=2,38=5/2;
 8/6=4,9=120000,10=1/1,4;
 9/5=5/13;
 6/7=2,8=2,9=2,10=2/1;
 1/18=40/14(2);
 2/29=3/2;
 99//99;
 2/29=3/2;
 3/5=5,11=9,16=1,25=1,30=1/1,2,3;
 4/5=5,16=3,69=1/1;
 5/5=2,38=5/2;
 8/6=4,9=120000,10=1/1,4;
 9/5=5/13;
 1/18=40/14(-6);
 2/29=3/2;
 6/7=2,8=2,9=2,10=2/1;
 99//99;
 -----------------------------------------------------------------
 1H-tetrazole CH2N4 casno=288948 state=1 config=1 method=4 basis=2
 -----------------------------------------------------------------
 Symbolic Z-matrix:
 Charge =  0 Multiplicity = 1
 X
 X                    1     1. 
 C                    1     1.       2     90. 
 N                    1    rn1      2     90.      3    an1      0
 N                    1    rn2      2     90.      3    an2      0
 N                    1    rn3      2     90.      3    an3      0
 N                    1    rn4      2     90.      3    an4      0
 H                    3    rch      4    ach      5     180.     0
 H                    4    rnh      5    anh      6     180.     0
       Variables:
  rn1                   1.2426                   
  rn2                   1.333                    
  rn3                   1.1146                   
  rn4                   0.9264                   
  rch                   1.0678                   
  rnh                   0.9941                   
  an1                  71.8427                   
  an2                 133.7028                   
  an3                 194.4597                   
  an4                 276.0768                   
  ach                 125.0248                   
  anh                 120.7626                   
 

 NEF-NEF-NEF-NEF-NEF-NEF-NEF-NEF-NEF-NEF-NEF-NEF-NEF-NEF-NEF-NEF-NEF-NEF-
 NUMERICAL EIGENVECTOR FOLLOWING MINIMUM SEARCH
 INITIALIZATION PASS
                       ----------------------------
                       !    Initial Parameters    !
                       ! (Angstroms and Degrees)  !
 ----------------------                            ----------------------
 !      Name          Value   Derivative information (Atomic Units)     !
 ------------------------------------------------------------------------
 !       rn1         1.2426   estimate D2E/DX2                          !
 !       rn2         1.333    estimate D2E/DX2                          !
 !       rn3         1.1146   estimate D2E/DX2                          !
 !       rn4         0.9264   estimate D2E/DX2                          !
 !       rch         1.0678   estimate D2E/DX2                          !
 !       rnh         0.9941   estimate D2E/DX2                          !
 !       an1        71.8427   estimate D2E/DX2                          !
 !       an2       133.7028   estimate D2E/DX2                          !
 !       an3       194.4597   estimate D2E/DX2                          !
 !       an4       276.0768   estimate D2E/DX2                          !
 !       ach       125.0248   estimate D2E/DX2                          !
 !       anh       120.7626   estimate D2E/DX2                          !
 ------------------------------------------------------------------------


 ***************************************************
 ** O P T I M I Z A T I O N   P A R A M E T E R S **
 **  MAXIMUM NO. OF ITERATIONS      :          32 **
 **  MAXIMUM ALLOWED STEP LENGTH    :    0.300000 **
 ***************************************************



 NEF-NEF-NEF-NEF-NEF-NEF-NEF-NEF-NEF-NEF-NEF-NEF-NEF-NEF-NEF-NEF-NEF-NEF-
 ---------------------------------------------------------------------------------------------------
                            Z-MATRIX (ANGSTROMS AND DEGREES)
   CD    Cent   Atom    N1       Length/X        N2       Alpha/Y        N3        Beta/Z          J
 ---------------------------------------------------------------------------------------------------
      1         X 
      2         X        1   1.000000(     1)
      3      1  C        1   1.000000(     2)      2   90.000(     9)
      4      2  N        1   1.242600(     3)      2   90.000(    10)      3   71.843(    16)      0
      5      3  N        1   1.333000(     4)      2   90.000(    11)      3  133.703(    17)      0
      6      4  N        1   1.114600(     5)      2   90.000(    12)      3  194.460(    18)      0
      7      5  N        1   0.926400(     6)      2   90.000(    13)      3  276.077(    19)      0
      8      6  H        3   1.067800(     7)      4  125.025(    14)      5  180.000(    20)      0
      9      7  H        4   0.994100(     8)      5  120.763(    15)      6  180.000(    21)      0
 ---------------------------------------------------------------------------------------------------
                         Z-Matrix orientation:                         
 ---------------------------------------------------------------------
 Center     Atomic      Atomic             Coordinates (Angstroms)
 Number     Number       Type             X           Y           Z
 ---------------------------------------------------------------------
      1         -1           0        0.000000    0.000000    0.000000
      2         -1           0        0.000000    0.000000    1.000000
      3          6           0        1.000000    0.000000    0.000000
      4          7           0        0.387228   -1.180724    0.000000
      5          7           0       -0.920993   -0.963670    0.000000
      6          7           0       -1.079293    0.278314    0.000000
      7          7           0        0.098070    0.921194    0.000000
      8          1           0        2.058429    0.141157    0.000000
      9          1           0        0.749017   -2.106652    0.000000
 ---------------------------------------------------------------------
                    Distance matrix (angstroms):
                    1          2          3          4          5
     1  X    0.000000
     2  X    1.000000   0.000000
     3  C    1.000000   1.414214   0.000000
     4  N    1.242600   1.595009   1.330263   0.000000
     5  N    1.333000   1.666400   2.149157   1.326105   0.000000
     6  N    1.114600   1.497442   2.097837   2.068690   1.252032
     7  N    0.926400   1.363164   1.289216   2.121715   2.142710
     8  H    2.063263   2.292827   1.067800   2.130794   3.177672
     9  H    2.235847   2.449288   2.121551   0.994100   2.023695
                    6          7          8          9
     6  N    0.000000
     7  N    1.341447   0.000000
     8  H    3.140719   2.109850   0.000000
     9  H    3.005127   3.097029   2.601385   0.000000
 Stoichiometry    CH2N4
 Framework group  CS[SG(CH2N4)]
 Deg. of freedom    11
 Full point group                 CS      NOp   2
 Largest Abelian subgroup         CS      NOp   2
 Largest concise Abelian subgroup C1      NOp   1
                         Standard orientation:                         
 ---------------------------------------------------------------------
 Center     Atomic      Atomic             Coordinates (Angstroms)
 Number     Number       Type             X           Y           Z
 ---------------------------------------------------------------------
      1          6           0        1.052733    0.225621    0.000000
      2          7           0        0.000000    1.038857    0.000000
      3          7           0       -1.095416    0.291448    0.000000
      4          7           0       -0.716382   -0.901832    0.000000
      5          7           0        0.622191   -0.989579    0.000000
      6          1           0        2.072287    0.542964    0.000000
      7          1           0       -0.061439    2.031056    0.000000
 ---------------------------------------------------------------------
 Rotational constants (GHZ):     10.9201517     10.7345054      5.4132664
 Standard basis: 3-21G (6D, 7F)
 There are    39 symmetry adapted cartesian basis functions of A'  symmetry.
 There are    10 symmetry adapted cartesian basis functions of A"  symmetry.
 There are    39 symmetry adapted basis functions of A'  symmetry.
 There are    10 symmetry adapted basis functions of A"  symmetry.
    49 basis functions,    81 primitive gaussians,    49 cartesian basis functions
    18 alpha electrons       18 beta electrons
       nuclear repulsion energy       169.8308489506 Hartrees.
 NAtoms=    7 NActive=    7 NUniq=    7 SFac= 1.00D+00 NAtFMM=   60 NAOKFM=F Big=F
 Integral buffers will be    131072 words long.
 Raffenetti 1 integral format.
 Two-electron integral symmetry is turned on.
 One-electron integrals computed using PRISM.
 NBasis=    49 RedAO= T EigKep=  1.68D-02  NBF=    39    10
 NBsUse=    49 1.00D-06 EigRej= -1.00D+00 NBFU=    39    10
 ExpMin= 1.83D-01 ExpMax= 2.43D+02 ExpMxC= 2.43D+02 IAcc=1 IRadAn=         1 AccDes= 0.00D+00
 Harris functional with IExCor=  205 and IRadAn=       1 diagonalized for initial guess.
 HarFok:  IExCor=  205 AccDes= 0.00D+00 IRadAn=         1 IDoV= 1 UseB2=F ITyADJ=14
 ICtDFT=  3500011 ScaDFX=  1.000000  1.000000  1.000000  1.000000
 FoFCou: FMM=F IPFlag=           0 FMFlag=      100000 FMFlg1=           0
         NFxFlg=           0 DoJE=T BraDBF=F KetDBF=T FulRan=T
         wScrn=  0.000000 ICntrl=     500 IOpCl=  0 I1Cent=   200000004 NGrid=           0
         NMat0=    1 NMatS0=      1 NMatT0=    0 NMatD0=    1 NMtDS0=    0 NMtDT0=    0
 Petite list used in FoFCou.
 Initial guess orbital symmetries:
       Occupied  (A') (A') (A') (A') (A') (A') (A') (A') (A') (A')
                 (A') (A') (A") (A') (A") (A") (A') (A')
       Virtual   (A") (A") (A') (A') (A') (A') (A') (A') (A') (A')
                 (A") (A') (A') (A') (A') (A") (A') (A") (A') (A")
                 (A') (A") (A') (A') (A') (A') (A') (A') (A') (A')
                 (A')
 The electronic state of the initial guess is 1-A'.
 Keep R1 ints in memory in symmetry-blocked form, NReq=1592300.
 Requested convergence on RMS density matrix=1.00D-08 within 128 cycles.
 Requested convergence on MAX density matrix=1.00D-06.
 Requested convergence on             energy=1.00D-06.
 No special actions if energy rises.
 SCF Done:  E(RHF) =  -255.261114440     A.U. after   14 cycles
            NFock= 14  Conv=0.56D-08     -V/T= 2.0004
 ExpMin= 1.83D-01 ExpMax= 2.43D+02 ExpMxC= 2.43D+02 IAcc=3 IRadAn=         5 AccDes= 0.00D+00
 HarFok:  IExCor=  205 AccDes= 0.00D+00 IRadAn=         5 IDoV=-2 UseB2=F ITyADJ=14
 ICtDFT= 12500011 ScaDFX=  1.000000  1.000000  1.000000  1.000000
 Range of M.O.s used for correlation:     6    49
 NBasis=    49 NAE=    18 NBE=    18 NFC=     5 NFV=     0
 NROrb=     44 NOA=    13 NOB=    13 NVA=    31 NVB=    31
 Semi-Direct transformation.
 ModeAB=           2 MOrb=            13 LenV=     435861806
 LASXX=       227383 LTotXX=      227383 LenRXX=      227383
 LTotAB=      247599 MaxLAS=      700700 LenRXY=      700700
 NonZer=      732160 LenScr=     1646592 LnRSAI=           0
 LnScr1=           0 LExtra=           0 Total=      2574675
 MaxDsk=          -1 SrtSym=           F ITran=            4
 JobTyp=0 Pass  1:  I=   1 to  13.
 (rs|ai) integrals will be sorted in core.
 Spin components of T(2) and E(2):
     alpha-alpha T2 =       0.2569790223D-01 E2=     -0.7001014118D-01
     alpha-beta  T2 =       0.1394433962D+00 E2=     -0.3840565458D+00
     beta-beta   T2 =       0.2569790223D-01 E2=     -0.7001014118D-01
 ANorm=    0.1091255791D+01
 E2 =    -0.5240768282D+00 EUMP2 =    -0.25578519126841D+03
 Keep R2 and R3 ints in memory in symmetry-blocked form, NReq=1654951.
 DD1Dir will call FoFMem   1 times, MxPair=       182
 NAB=    91 NAA=     0 NBB=     0.
 MP4(D)= -0.14937689D-01
 MP4(S)= -0.81360520D-02
 MP4(R+Q)=  0.73917057D-02
 Time for triples=        3.22 seconds.
 MP4(T)=   -0.25401765D-01
 E3=        0.76328866D-02        EUMP3=      -0.25577755838D+03
 E4(DQ)=   -0.75459832D-02        UMP4(DQ)=   -0.25578510436D+03
 E4(SDQ)=  -0.15682035D-01        UMP4(SDQ)=  -0.25579324042D+03
 E4(SDTQ)= -0.41083800D-01        UMP4(SDTQ)= -0.25581864218D+03
 Largest amplitude= 6.76D-02
 Discarding MO integrals.

 **********************************************************************

            Population analysis using the SCF density.

 **********************************************************************

 Orbital symmetries:
       Occupied  (A') (A') (A') (A') (A') (A') (A') (A') (A') (A')
                 (A') (A") (A') (A') (A") (A') (A') (A")
       Virtual   (A") (A") (A') (A') (A') (A') (A') (A') (A') (A")
                 (A') (A') (A') (A') (A") (A') (A') (A") (A') (A")
                 (A') (A") (A') (A') (A') (A') (A') (A') (A') (A')
                 (A')
 The electronic state is 1-A'.
 Alpha  occ. eigenvalues --  -15.61939 -15.59728 -15.57344 -15.53664 -11.29263
 Alpha  occ. eigenvalues --   -1.56604  -1.28794  -1.23647  -0.92126  -0.90654
 Alpha  occ. eigenvalues --   -0.82215  -0.70640  -0.68746  -0.57036  -0.47109
 Alpha  occ. eigenvalues --   -0.47064  -0.45414  -0.43574
 Alpha virt. eigenvalues --    0.14680   0.20552   0.23545   0.28011   0.40590
 Alpha virt. eigenvalues --    0.41799   0.55279   0.58002   0.71429   0.93304
 Alpha virt. eigenvalues --    0.95217   1.06185   1.10335   1.21844   1.32054
 Alpha virt. eigenvalues --    1.33618   1.37244   1.38544   1.41758   1.46076
 Alpha virt. eigenvalues --    1.46644   1.51174   1.52797   1.65022   1.69060
 Alpha virt. eigenvalues --    1.75935   1.96570   2.40711   2.70611   2.99162
 Alpha virt. eigenvalues --    3.06310
          Condensed to atoms (all electrons):
               1          2          3          4          5          6
     1  C    4.857121   0.176425  -0.115987  -0.145662   0.405949   0.369148
     2  N    0.176425   7.317239   0.152512  -0.156472  -0.082906  -0.038170
     3  N   -0.115987   0.152512   6.850031   0.283726  -0.146986   0.001240
     4  N   -0.145662  -0.156472   0.283726   6.806832   0.285460   0.003068
     5  N    0.405949  -0.082906  -0.146986   0.285460   6.987127  -0.025712
     6  H    0.369148  -0.038170   0.001240   0.003068  -0.025712   0.371087
     7  H   -0.010816   0.324884  -0.017847   0.003209   0.002394   0.000692
               7
     1  C   -0.010816
     2  N    0.324884
     3  N   -0.017847
     4  N    0.003209
     5  N    0.002394
     6  H    0.000692
     7  H    0.274264
 Mulliken charges:
               1
     1  C    0.463821
     2  N   -0.693512
     3  N   -0.006690
     4  N   -0.080162
     5  N   -0.425325
     6  H    0.318647
     7  H    0.423221
 Sum of Mulliken charges =   0.00000
 Mulliken charges with hydrogens summed into heavy atoms:
               1
     1  C    0.782468
     2  N   -0.270292
     3  N   -0.006690
     4  N   -0.080162
     5  N   -0.425325
 Electronic spatial extent (au):  <R**2>=            245.8481
 Charge=              0.0000 electrons
 Dipole moment (field-independent basis, Debye):
    X=              2.8618    Y=              5.2296    Z=              0.0000  Tot=              5.9615
 Quadrupole moment (field-independent basis, Debye-Ang):
   XX=            -29.3868   YY=            -27.3719   ZZ=            -28.6062
   XY=              2.0380   XZ=              0.0000   YZ=              0.0000
 Traceless Quadrupole moment (field-independent basis, Debye-Ang):
   XX=             -0.9318   YY=              1.0830   ZZ=             -0.1512
   XY=              2.0380   XZ=              0.0000   YZ=              0.0000
 Octapole moment (field-independent basis, Debye-Ang**2):
  XXX=             13.0732  YYY=             23.8879  ZZZ=              0.0000  XYY=             -0.6444
  XXY=              5.1777  XXZ=              0.0000  XZZ=             -0.8806  YZZ=              0.3719
  YYZ=              0.0000  XYZ=              0.0000
 Hexadecapole moment (field-independent basis, Debye-Ang**3):
 XXXX=           -134.2804 YYYY=           -112.4735 ZZZZ=            -23.4283 XXXY=              6.8791
 XXXZ=              0.0000 YYYX=             -0.3965 YYYZ=              0.0000 ZZZX=              0.0000
 ZZZY=              0.0000 XXYY=            -51.3327 XXZZ=            -28.7363 YYZZ=            -27.0999
 XXYZ=              0.0000 YYXZ=              0.0000 ZZXY=             -0.1536
 N-N= 1.698308489506D+02 E-N=-9.370435685300D+02  KE= 2.551708595335D+02
 Symmetry A'   KE= 2.462243066478D+02
 Symmetry A"   KE= 8.946552885638D+00

 NEF-NEF-NEF-NEF-NEF-NEF-NEF-NEF-NEF-NEF-NEF-NEF-NEF-NEF-NEF-NEF-NEF-NEF-
 NUMERICAL EIGENVECTOR FOLLOWING MINIMUM SEARCH
 NUMERICALLY ESTIMATING GRADIENTS
 ITERATION   0 VARIABLE  1 STEP  1

 NEF-NEF-NEF-NEF-NEF-NEF-NEF-NEF-NEF-NEF-NEF-NEF-NEF-NEF-NEF-NEF-NEF-NEF-
 ---------------------------------------------------------------------------------------------------
                            Z-MATRIX (ANGSTROMS AND DEGREES)
   CD    Cent   Atom    N1       Length/X        N2       Alpha/Y        N3        Beta/Z          J
 ---------------------------------------------------------------------------------------------------
      1         X 
      2         X        1   1.000000(     1)
      3      1  C        1   1.000000(     2)      2   90.000(     9)
      4      2  N        1   1.242809(     3)      2   90.000(    10)      3   71.843(    16)      0
      5      3  N        1   1.333000(     4)      2   90.000(    11)      3  133.703(    17)      0
      6      4  N        1   1.114600(     5)      2   90.000(    12)      3  194.460(    18)      0
      7      5  N        1   0.926400(     6)      2   90.000(    13)      3  276.077(    19)      0
      8      6  H        3   1.067800(     7)      4  125.025(    14)      5  180.000(    20)      0
      9      7  H        4   0.994100(     8)      5  120.763(    15)      6  180.000(    21)      0
 ---------------------------------------------------------------------------------------------------
                         Z-Matrix orientation:                         
 ---------------------------------------------------------------------
 Center     Atomic      Atomic             Coordinates (Angstroms)
 Number     Number       Type             X           Y           Z
 ---------------------------------------------------------------------
      1         -1           0        0.000000    0.000000    0.000000
      2         -1           0        0.000000    0.000000    1.000000
      3          6           0        1.000000    0.000000    0.000000
      4          7           0        0.387293   -1.180923    0.000000
      5          7           0       -0.920993   -0.963670    0.000000
      6          7           0       -1.079293    0.278314    0.000000
      7          7           0        0.098070    0.921194    0.000000
      8          1           0        2.058413    0.141275    0.000000
      9          1           0        0.748953   -2.106901    0.000000
 ---------------------------------------------------------------------
                    Distance matrix (angstroms):
                    1          2          3          4          5
     1  X    0.000000
     2  X    1.000000   0.000000
     3  C    1.000000   1.414214   0.000000
     4  N    1.242809   1.595172   1.330409   0.000000
     5  N    1.333000   1.666400   2.149157   1.326202   0.000000
     6  N    1.114600   1.497442   2.097837   2.068876   1.252032
     7  N    0.926400   1.363164   1.289216   2.121920   2.142710
     8  H    2.063255   2.292820   1.067800   2.130927   3.177698
     9  H    2.236060   2.449482   2.121805   0.994100   2.023783
                    6          7          8          9
     6  N    0.000000
     7  N    1.341447   0.000000
     8  H    3.140698   2.109791   0.000000
     9  H    3.005285   3.097259   2.601727   0.000000
 Stoichiometry    CH2N4
 Framework group  CS[SG(CH2N4)]
 Deg. of freedom    11
 Full point group                 CS      NOp   2
 Largest Abelian subgroup         CS      NOp   2
 Largest concise Abelian subgroup C1      NOp   1
                         Standard orientation:                         
 ---------------------------------------------------------------------
 Center     Atomic      Atomic             Coordinates (Angstroms)
 Number     Number       Type             X           Y           Z
 ---------------------------------------------------------------------
      1          6           0        1.052745    0.225562    0.000000
      2          7           0        0.000000    1.039021    0.000000
      3          7           0       -1.095403    0.291423    0.000000
      4          7           0       -0.716388   -0.901864    0.000000
      5          7           0        0.622184   -0.989632    0.000000
      6          1           0        2.072339    0.542775    0.000000
      7          1           0       -0.061562    2.031213    0.000000
 ---------------------------------------------------------------------
 Rotational constants (GHZ):     10.9188397     10.7341583      5.4128557
 Standard basis: 3-21G (6D, 7F)
 There are    39 symmetry adapted cartesian basis functions of A'  symmetry.
 There are    10 symmetry adapted cartesian basis functions of A"  symmetry.
 There are    39 symmetry adapted basis functions of A'  symmetry.
 There are    10 symmetry adapted basis functions of A"  symmetry.
    49 basis functions,    81 primitive gaussians,    49 cartesian basis functions
    18 alpha electrons       18 beta electrons
       nuclear repulsion energy       169.8247755601 Hartrees.
 NAtoms=    7 NActive=    7 NUniq=    7 SFac= 1.00D+00 NAtFMM=   60 NAOKFM=F Big=F
 Integral buffers will be    131072 words long.
 Raffenetti 1 integral format.
 Two-electron integral symmetry is turned on.
 One-electron integrals computed using PRISM.
 NBasis=    49 RedAO= T EigKep=  1.68D-02  NBF=    39    10
 NBsUse=    49 1.00D-06 EigRej= -1.00D+00 NBFU=    39    10
 Initial guess from the checkpoint file:  "/tmp/rdj3/g09-13184/Gau-21042.chk"
 B after Tr=     0.000000    0.000000    0.000000
         Rot=    1.000000    0.000000    0.000000    0.000005 Ang=   0.00 deg.
 Initial guess orbital symmetries:
       Occupied  (A') (A') (A') (A') (A') (A') (A') (A') (A') (A')
                 (A') (A") (A') (A') (A") (A') (A') (A")
       Virtual   (A') (A') (A') (A') (A') (A') (A') (A') (A') (A')
                 (A') (A') (A') (A') (A') (A') (A') (A') (A') (A')
                 (A') (A') (A') (A') (A") (A") (A") (A") (A") (A")
                 (A")
 ExpMin= 1.83D-01 ExpMax= 2.43D+02 ExpMxC= 2.43D+02 IAcc=1 IRadAn=         1 AccDes= 0.00D+00
 Harris functional with IExCor=  205 and IRadAn=       1 diagonalized for initial guess.
 HarFok:  IExCor=  205 AccDes= 0.00D+00 IRadAn=         1 IDoV= 1 UseB2=F ITyADJ=14
 ICtDFT=  3500011 ScaDFX=  1.000000  1.000000  1.000000  1.000000
 FoFCou: FMM=F IPFlag=           0 FMFlag=      100000 FMFlg1=           0
         NFxFlg=           0 DoJE=T BraDBF=F KetDBF=T FulRan=T
         wScrn=  0.000000 ICntrl=     500 IOpCl=  0 I1Cent=   200000004 NGrid=           0
         NMat0=    1 NMatS0=      1 NMatT0=    0 NMatD0=    1 NMtDS0=    0 NMtDT0=    0
 Petite list used in FoFCou.
 Keep R1 ints in memory in symmetry-blocked form, NReq=1592300.
 Requested convergence on RMS density matrix=1.00D-08 within 128 cycles.
 Requested convergence on MAX density matrix=1.00D-06.
 Requested convergence on             energy=1.00D-06.
 No special actions if energy rises.
 SCF Done:  E(RHF) =  -255.261128885     A.U. after    8 cycles
            NFock=  8  Conv=0.52D-08     -V/T= 2.0004
 ExpMin= 1.83D-01 ExpMax= 2.43D+02 ExpMxC= 2.43D+02 IAcc=3 IRadAn=         5 AccDes= 0.00D+00
 HarFok:  IExCor=  205 AccDes= 0.00D+00 IRadAn=         5 IDoV=-2 UseB2=F ITyADJ=14
 ICtDFT= 12500011 ScaDFX=  1.000000  1.000000  1.000000  1.000000
 Range of M.O.s used for correlation:     6    49
 NBasis=    49 NAE=    18 NBE=    18 NFC=     5 NFV=     0
 NROrb=     44 NOA=    13 NOB=    13 NVA=    31 NVB=    31
 Semi-Direct transformation.
 ModeAB=           2 MOrb=            13 LenV=     435861806
 LASXX=       227383 LTotXX=      227383 LenRXX=      227383
 LTotAB=      247599 MaxLAS=      700700 LenRXY=      700700
 NonZer=      732160 LenScr=     1646592 LnRSAI=           0
 LnScr1=           0 LExtra=           0 Total=      2574675
 MaxDsk=          -1 SrtSym=           F ITran=            4
 JobTyp=0 Pass  1:  I=   1 to  13.
 (rs|ai) integrals will be sorted in core.
 Spin components of T(2) and E(2):
     alpha-alpha T2 =       0.2569969695D-01 E2=     -0.7001203648D-01
     alpha-beta  T2 =       0.1394539636D+00 E2=     -0.3840685499D+00
     beta-beta   T2 =       0.2569969695D-01 E2=     -0.7001203648D-01
 ANorm=    0.1091262277D+01
 E2 =    -0.5240926229D+00 EUMP2 =    -0.25578522150829D+03
 Keep R2 and R3 ints in memory in symmetry-blocked form, NReq=1654951.
 DD1Dir will call FoFMem   1 times, MxPair=       182
 NAB=    91 NAA=     0 NBB=     0.
 MP4(D)= -0.14939510D-01
 MP4(S)= -0.81380832D-02
 MP4(R+Q)=  0.73923261D-02
 Time for triples=        3.19 seconds.
 MP4(T)=   -0.25404982D-01
 E3=        0.76370462D-02        EUMP3=      -0.25577758446D+03
 E4(DQ)=   -0.75471837D-02        UMP4(DQ)=   -0.25578513165D+03
 E4(SDQ)=  -0.15685267D-01        UMP4(SDQ)=  -0.25579326973D+03
 E4(SDTQ)= -0.41090249D-01        UMP4(SDTQ)= -0.25581867471D+03
 Largest amplitude= 6.76D-02
 Discarding MO integrals.

 NEF-NEF-NEF-NEF-NEF-NEF-NEF-NEF-NEF-NEF-NEF-NEF-NEF-NEF-NEF-NEF-NEF-NEF-
 NUMERICAL EIGENVECTOR FOLLOWING MINIMUM SEARCH
 NUMERICALLY ESTIMATING GRADIENTS
 ITERATION   0 VARIABLE  1 STEP  2

 NEF-NEF-NEF-NEF-NEF-NEF-NEF-NEF-NEF-NEF-NEF-NEF-NEF-NEF-NEF-NEF-NEF-NEF-
 ---------------------------------------------------------------------------------------------------
                            Z-MATRIX (ANGSTROMS AND DEGREES)
   CD    Cent   Atom    N1       Length/X        N2       Alpha/Y        N3        Beta/Z          J
 ---------------------------------------------------------------------------------------------------
      1         X 
      2         X        1   1.000000(     1)
      3      1  C        1   1.000000(     2)      2   90.000(     9)
      4      2  N        1   1.242391(     3)      2   90.000(    10)      3   71.843(    16)      0
      5      3  N        1   1.333000(     4)      2   90.000(    11)      3  133.703(    17)      0
      6      4  N        1   1.114600(     5)      2   90.000(    12)      3  194.460(    18)      0
      7      5  N        1   0.926400(     6)      2   90.000(    13)      3  276.077(    19)      0
      8      6  H        3   1.067800(     7)      4  125.025(    14)      5  180.000(    20)      0
      9      7  H        4   0.994100(     8)      5  120.763(    15)      6  180.000(    21)      0
 ---------------------------------------------------------------------------------------------------
                         Z-Matrix orientation:                         
 ---------------------------------------------------------------------
 Center     Atomic      Atomic             Coordinates (Angstroms)
 Number     Number       Type             X           Y           Z
 ---------------------------------------------------------------------
      1         -1           0        0.000000    0.000000    0.000000
      2         -1           0        0.000000    0.000000    1.000000
      3          6           0        1.000000    0.000000    0.000000
      4          7           0        0.387162   -1.180526    0.000000
      5          7           0       -0.920993   -0.963670    0.000000
      6          7           0       -1.079293    0.278314    0.000000
      7          7           0        0.098070    0.921194    0.000000
      8          1           0        2.058445    0.141038    0.000000
      9          1           0        0.749081   -2.106403    0.000000
 ---------------------------------------------------------------------
                    Distance matrix (angstroms):
                    1          2          3          4          5
     1  X    0.000000
     2  X    1.000000   0.000000
     3  C    1.000000   1.414214   0.000000
     4  N    1.242391   1.594847   1.330117   0.000000
     5  N    1.333000   1.666400   2.149157   1.326008   0.000000
     6  N    1.114600   1.497442   2.097837   2.068504   1.252032
     7  N    0.926400   1.363164   1.289216   2.121509   2.142710
     8  H    2.063271   2.292834   1.067800   2.130661   3.177645
     9  H    2.235634   2.449093   2.121296   0.994100   2.023608
                    6          7          8          9
     6  N    0.000000
     7  N    1.341447   0.000000
     8  H    3.140740   2.109908   0.000000
     9  H    3.004968   3.096799   2.601043   0.000000
 Stoichiometry    CH2N4
 Framework group  CS[SG(CH2N4)]
 Deg. of freedom    11
 Full point group                 CS      NOp   2
 Largest Abelian subgroup         CS      NOp   2
 Largest concise Abelian subgroup C1      NOp   1
                         Standard orientation:                         
 ---------------------------------------------------------------------
 Center     Atomic      Atomic             Coordinates (Angstroms)
 Number     Number       Type             X           Y           Z
 ---------------------------------------------------------------------
      1          6           0        1.052721    0.225680    0.000000
      2          7           0        0.000000    1.038692    0.000000
      3          7           0       -1.095428    0.291474    0.000000
      4          7           0       -0.716377   -0.901801    0.000000
      5          7           0        0.622198   -0.989527    0.000000
      6          1           0        2.072235    0.543153    0.000000
      7          1           0       -0.061316    2.030899    0.000000
 ---------------------------------------------------------------------
 Rotational constants (GHZ):     10.9214687     10.7348479      5.4136771
 Standard basis: 3-21G (6D, 7F)
 There are    39 symmetry adapted cartesian basis functions of A'  symmetry.
 There are    10 symmetry adapted cartesian basis functions of A"  symmetry.
 There are    39 symmetry adapted basis functions of A'  symmetry.
 There are    10 symmetry adapted basis functions of A"  symmetry.
    49 basis functions,    81 primitive gaussians,    49 cartesian basis functions
    18 alpha electrons       18 beta electrons
       nuclear repulsion energy       169.8369228517 Hartrees.
 NAtoms=    7 NActive=    7 NUniq=    7 SFac= 1.00D+00 NAtFMM=   60 NAOKFM=F Big=F
 Integral buffers will be    131072 words long.
 Raffenetti 1 integral format.
 Two-electron integral symmetry is turned on.
 One-electron integrals computed using PRISM.
 NBasis=    49 RedAO= T EigKep=  1.68D-02  NBF=    39    10
 NBsUse=    49 1.00D-06 EigRej= -1.00D+00 NBFU=    39    10
 Initial guess from the checkpoint file:  "/tmp/rdj3/g09-13184/Gau-21042.chk"
 B after Tr=     0.000000    0.000000    0.000000
         Rot=    1.000000    0.000000    0.000000   -0.000011 Ang=   0.00 deg.
 Initial guess orbital symmetries:
       Occupied  (A') (A') (A') (A') (A') (A') (A') (A') (A') (A')
                 (A') (A") (A') (A') (A") (A') (A') (A")
       Virtual   (A') (A') (A') (A') (A') (A') (A') (A') (A') (A')
                 (A') (A') (A') (A') (A') (A') (A') (A') (A') (A')
                 (A') (A') (A') (A') (A") (A") (A") (A") (A") (A")
                 (A")
 ExpMin= 1.83D-01 ExpMax= 2.43D+02 ExpMxC= 2.43D+02 IAcc=1 IRadAn=         1 AccDes= 0.00D+00
 Harris functional with IExCor=  205 and IRadAn=       1 diagonalized for initial guess.
 HarFok:  IExCor=  205 AccDes= 0.00D+00 IRadAn=         1 IDoV= 1 UseB2=F ITyADJ=14
 ICtDFT=  3500011 ScaDFX=  1.000000  1.000000  1.000000  1.000000
 FoFCou: FMM=F IPFlag=           0 FMFlag=      100000 FMFlg1=           0
         NFxFlg=           0 DoJE=T BraDBF=F KetDBF=T FulRan=T
         wScrn=  0.000000 ICntrl=     500 IOpCl=  0 I1Cent=   200000004 NGrid=           0
         NMat0=    1 NMatS0=      1 NMatT0=    0 NMatD0=    1 NMtDS0=    0 NMtDT0=    0
 Petite list used in FoFCou.
 Keep R1 ints in memory in symmetry-blocked form, NReq=1592300.
 Requested convergence on RMS density matrix=1.00D-08 within 128 cycles.
 Requested convergence on MAX density matrix=1.00D-06.
 Requested convergence on             energy=1.00D-06.
 No special actions if energy rises.
 SCF Done:  E(RHF) =  -255.261099883     A.U. after    9 cycles
            NFock=  9  Conv=0.33D-08     -V/T= 2.0004
 ExpMin= 1.83D-01 ExpMax= 2.43D+02 ExpMxC= 2.43D+02 IAcc=3 IRadAn=         5 AccDes= 0.00D+00
 HarFok:  IExCor=  205 AccDes= 0.00D+00 IRadAn=         5 IDoV=-2 UseB2=F ITyADJ=14
 ICtDFT= 12500011 ScaDFX=  1.000000  1.000000  1.000000  1.000000
 Range of M.O.s used for correlation:     6    49
 NBasis=    49 NAE=    18 NBE=    18 NFC=     5 NFV=     0
 NROrb=     44 NOA=    13 NOB=    13 NVA=    31 NVB=    31
 Semi-Direct transformation.
 ModeAB=           2 MOrb=            13 LenV=     435861806
 LASXX=       227383 LTotXX=      227383 LenRXX=      227383
 LTotAB=      247599 MaxLAS=      700700 LenRXY=      700700
 NonZer=      732160 LenScr=     1646592 LnRSAI=           0
 LnScr1=           0 LExtra=           0 Total=      2574675
 MaxDsk=          -1 SrtSym=           F ITran=            4
 JobTyp=0 Pass  1:  I=   1 to  13.
 (rs|ai) integrals will be sorted in core.
 Spin components of T(2) and E(2):
     alpha-alpha T2 =       0.2569610872D-01 E2=     -0.7000824741D-01
     alpha-beta  T2 =       0.1394328342D+00 E2=     -0.3840445475D+00
     beta-beta   T2 =       0.2569610872D-01 E2=     -0.7000824741D-01
 ANorm=    0.1091249308D+01
 E2 =    -0.5240610423D+00 EUMP2 =    -0.25578516092554D+03
 Keep R2 and R3 ints in memory in symmetry-blocked form, NReq=1654951.
 DD1Dir will call FoFMem   1 times, MxPair=       182
 NAB=    91 NAA=     0 NBB=     0.
 MP4(D)= -0.14935869D-01
 MP4(S)= -0.81340224D-02
 MP4(R+Q)=  0.73910858D-02
 Time for triples=        3.17 seconds.
 MP4(T)=   -0.25398549D-01
 E3=        0.76287305D-02        EUMP3=      -0.25577753220D+03
 E4(DQ)=   -0.75447834D-02        UMP4(DQ)=   -0.25578507698D+03
 E4(SDQ)=  -0.15678806D-01        UMP4(SDQ)=  -0.25579321100D+03
 E4(SDTQ)= -0.41077355D-01        UMP4(SDTQ)= -0.25581860955D+03
 Largest amplitude= 6.76D-02
 Discarding MO integrals.

 NEF-NEF-NEF-NEF-NEF-NEF-NEF-NEF-NEF-NEF-NEF-NEF-NEF-NEF-NEF-NEF-NEF-NEF-
 NUMERICAL EIGENVECTOR FOLLOWING MINIMUM SEARCH
 NUMERICALLY ESTIMATING GRADIENTS
 ITERATION   0 VARIABLE  2 STEP  1

 NEF-NEF-NEF-NEF-NEF-NEF-NEF-NEF-NEF-NEF-NEF-NEF-NEF-NEF-NEF-NEF-NEF-NEF-
 ---------------------------------------------------------------------------------------------------
                            Z-MATRIX (ANGSTROMS AND DEGREES)
   CD    Cent   Atom    N1       Length/X        N2       Alpha/Y        N3        Beta/Z          J
 ---------------------------------------------------------------------------------------------------
      1         X 
      2         X        1   1.000000(     1)
      3      1  C        1   1.000000(     2)      2   90.000(     9)
      4      2  N        1   1.242600(     3)      2   90.000(    10)      3   71.843(    16)      0
      5      3  N        1   1.333209(     4)      2   90.000(    11)      3  133.703(    17)      0
      6      4  N        1   1.114600(     5)      2   90.000(    12)      3  194.460(    18)      0
      7      5  N        1   0.926400(     6)      2   90.000(    13)      3  276.077(    19)      0
      8      6  H        3   1.067800(     7)      4  125.025(    14)      5  180.000(    20)      0
      9      7  H        4   0.994100(     8)      5  120.763(    15)      6  180.000(    21)      0
 ---------------------------------------------------------------------------------------------------
                         Z-Matrix orientation:                         
 ---------------------------------------------------------------------
 Center     Atomic      Atomic             Coordinates (Angstroms)
 Number     Number       Type             X           Y           Z
 ---------------------------------------------------------------------
      1         -1           0        0.000000    0.000000    0.000000
      2         -1           0        0.000000    0.000000    1.000000
      3          6           0        1.000000    0.000000    0.000000
      4          7           0        0.387228   -1.180724    0.000000
      5          7           0       -0.921138   -0.963821    0.000000
      6          7           0       -1.079293    0.278314    0.000000
      7          7           0        0.098070    0.921194    0.000000
      8          1           0        2.058429    0.141157    0.000000
      9          1           0        0.749138   -2.106605    0.000000
 ---------------------------------------------------------------------
                    Distance matrix (angstroms):
                    1          2          3          4          5
     1  X    0.000000
     2  X    1.000000   0.000000
     3  C    1.000000   1.414214   0.000000
     4  N    1.242600   1.595009   1.330263   0.000000
     5  N    1.333209   1.666567   2.149354   1.326223   0.000000
     6  N    1.114600   1.497442   2.097837   2.068690   1.252164
     7  N    0.926400   1.363164   1.289216   2.121715   2.142911
     8  H    2.063263   2.292827   1.067800   2.130794   3.177860
     9  H    2.235843   2.449284   2.121490   0.994100   2.023802
                    6          7          8          9
     6  N    0.000000
     7  N    1.341447   0.000000
     8  H    3.140719   2.109850   0.000000
     9  H    3.005163   3.097008   2.601284   0.000000
 Stoichiometry    CH2N4
 Framework group  CS[SG(CH2N4)]
 Deg. of freedom    11
 Full point group                 CS      NOp   2
 Largest Abelian subgroup         CS      NOp   2
 Largest concise Abelian subgroup C1      NOp   1
                         Standard orientation:                         
 ---------------------------------------------------------------------
 Center     Atomic      Atomic             Coordinates (Angstroms)
 Number     Number       Type             X           Y           Z
 ---------------------------------------------------------------------
      1          6           0        1.052760    0.225640    0.000000
      2          7           0        0.000000    1.038842    0.000000
      3          7           0       -1.095585    0.291474    0.000000
      4          7           0       -0.716319   -0.901871    0.000000
      5          7           0        0.622258   -0.989574    0.000000
      6          1           0        2.072303    0.543017    0.000000
      7          1           0       -0.061343    2.031047    0.000000
 ---------------------------------------------------------------------
 Rotational constants (GHZ):     10.9201056     10.7330602      5.4128875
 Standard basis: 3-21G (6D, 7F)
 There are    39 symmetry adapted cartesian basis functions of A'  symmetry.
 There are    10 symmetry adapted cartesian basis functions of A"  symmetry.
 There are    39 symmetry adapted basis functions of A'  symmetry.
 There are    10 symmetry adapted basis functions of A"  symmetry.
    49 basis functions,    81 primitive gaussians,    49 cartesian basis functions
    18 alpha electrons       18 beta electrons
       nuclear repulsion energy       169.8247339728 Hartrees.
 NAtoms=    7 NActive=    7 NUniq=    7 SFac= 1.00D+00 NAtFMM=   60 NAOKFM=F Big=F
 Integral buffers will be    131072 words long.
 Raffenetti 1 integral format.
 Two-electron integral symmetry is turned on.
 One-electron integrals computed using PRISM.
 NBasis=    49 RedAO= T EigKep=  1.68D-02  NBF=    39    10
 NBsUse=    49 1.00D-06 EigRej= -1.00D+00 NBFU=    39    10
 Initial guess from the checkpoint file:  "/tmp/rdj3/g09-13184/Gau-21042.chk"
 B after Tr=     0.000000    0.000000    0.000000
         Rot=    1.000000    0.000000    0.000000   -0.000007 Ang=   0.00 deg.
 Initial guess orbital symmetries:
       Occupied  (A') (A') (A') (A') (A') (A') (A') (A') (A') (A')
                 (A') (A") (A') (A') (A") (A') (A') (A")
       Virtual   (A') (A') (A') (A') (A') (A') (A') (A') (A') (A')
                 (A') (A') (A') (A') (A') (A') (A') (A') (A') (A')
                 (A') (A') (A') (A') (A") (A") (A") (A") (A") (A")
                 (A")
 ExpMin= 1.83D-01 ExpMax= 2.43D+02 ExpMxC= 2.43D+02 IAcc=1 IRadAn=         1 AccDes= 0.00D+00
 Harris functional with IExCor=  205 and IRadAn=       1 diagonalized for initial guess.
 HarFok:  IExCor=  205 AccDes= 0.00D+00 IRadAn=         1 IDoV= 1 UseB2=F ITyADJ=14
 ICtDFT=  3500011 ScaDFX=  1.000000  1.000000  1.000000  1.000000
 FoFCou: FMM=F IPFlag=           0 FMFlag=      100000 FMFlg1=           0
         NFxFlg=           0 DoJE=T BraDBF=F KetDBF=T FulRan=T
         wScrn=  0.000000 ICntrl=     500 IOpCl=  0 I1Cent=   200000004 NGrid=           0
         NMat0=    1 NMatS0=      1 NMatT0=    0 NMatD0=    1 NMtDS0=    0 NMtDT0=    0
 Petite list used in FoFCou.
 Keep R1 ints in memory in symmetry-blocked form, NReq=1592300.
 Requested convergence on RMS density matrix=1.00D-08 within 128 cycles.
 Requested convergence on MAX density matrix=1.00D-06.
 Requested convergence on             energy=1.00D-06.
 No special actions if energy rises.
 SCF Done:  E(RHF) =  -255.261136464     A.U. after    8 cycles
            NFock=  8  Conv=0.89D-08     -V/T= 2.0004
 ExpMin= 1.83D-01 ExpMax= 2.43D+02 ExpMxC= 2.43D+02 IAcc=3 IRadAn=         5 AccDes= 0.00D+00
 HarFok:  IExCor=  205 AccDes= 0.00D+00 IRadAn=         5 IDoV=-2 UseB2=F ITyADJ=14
 ICtDFT= 12500011 ScaDFX=  1.000000  1.000000  1.000000  1.000000
 Range of M.O.s used for correlation:     6    49
 NBasis=    49 NAE=    18 NBE=    18 NFC=     5 NFV=     0
 NROrb=     44 NOA=    13 NOB=    13 NVA=    31 NVB=    31
 Semi-Direct transformation.
 ModeAB=           2 MOrb=            13 LenV=     435861806
 LASXX=       227383 LTotXX=      227383 LenRXX=      227383
 LTotAB=      247599 MaxLAS=      700700 LenRXY=      700700
 NonZer=      732160 LenScr=     1646592 LnRSAI=           0
 LnScr1=           0 LExtra=           0 Total=      2574675
 MaxDsk=          -1 SrtSym=           F ITran=            4
 JobTyp=0 Pass  1:  I=   1 to  13.
 (rs|ai) integrals will be sorted in core.
 Spin components of T(2) and E(2):
     alpha-alpha T2 =       0.2570110287D-01 E2=     -0.7001398567D-01
     alpha-beta  T2 =       0.1394591257D+00 E2=     -0.3840744598D+00
     beta-beta   T2 =       0.2570110287D-01 E2=     -0.7001398567D-01
 ANorm=    0.1091265931D+01
 E2 =    -0.5241024312D+00 EUMP2 =    -0.25578523889529D+03
 Keep R2 and R3 ints in memory in symmetry-blocked form, NReq=1654951.
 DD1Dir will call FoFMem   1 times, MxPair=       182
 NAB=    91 NAA=     0 NBB=     0.
 MP4(D)= -0.14940057D-01
 MP4(S)= -0.81377857D-02
 MP4(R+Q)=  0.73936497D-02
 Time for triples=        3.16 seconds.
 MP4(T)=   -0.25407118D-01
 E3=        0.76403539D-02        EUMP3=      -0.25577759854D+03
 E4(DQ)=   -0.75464069D-02        UMP4(DQ)=   -0.25578514495D+03
 E4(SDQ)=  -0.15684193D-01        UMP4(SDQ)=  -0.25579328273D+03
 E4(SDTQ)= -0.41091310D-01        UMP4(SDTQ)= -0.25581868985D+03
 Largest amplitude= 6.76D-02
 Discarding MO integrals.

 NEF-NEF-NEF-NEF-NEF-NEF-NEF-NEF-NEF-NEF-NEF-NEF-NEF-NEF-NEF-NEF-NEF-NEF-
 NUMERICAL EIGENVECTOR FOLLOWING MINIMUM SEARCH
 NUMERICALLY ESTIMATING GRADIENTS
 ITERATION   0 VARIABLE  2 STEP  2

 NEF-NEF-NEF-NEF-NEF-NEF-NEF-NEF-NEF-NEF-NEF-NEF-NEF-NEF-NEF-NEF-NEF-NEF-
 ---------------------------------------------------------------------------------------------------
                            Z-MATRIX (ANGSTROMS AND DEGREES)
   CD    Cent   Atom    N1       Length/X        N2       Alpha/Y        N3        Beta/Z          J
 ---------------------------------------------------------------------------------------------------
      1         X 
      2         X        1   1.000000(     1)
      3      1  C        1   1.000000(     2)      2   90.000(     9)
      4      2  N        1   1.242600(     3)      2   90.000(    10)      3   71.843(    16)      0
      5      3  N        1   1.332791(     4)      2   90.000(    11)      3  133.703(    17)      0
      6      4  N        1   1.114600(     5)      2   90.000(    12)      3  194.460(    18)      0
      7      5  N        1   0.926400(     6)      2   90.000(    13)      3  276.077(    19)      0
      8      6  H        3   1.067800(     7)      4  125.025(    14)      5  180.000(    20)      0
      9      7  H        4   0.994100(     8)      5  120.763(    15)      6  180.000(    21)      0
 ---------------------------------------------------------------------------------------------------
                         Z-Matrix orientation:                         
 ---------------------------------------------------------------------
 Center     Atomic      Atomic             Coordinates (Angstroms)
 Number     Number       Type             X           Y           Z
 ---------------------------------------------------------------------
      1         -1           0        0.000000    0.000000    0.000000
      2         -1           0        0.000000    0.000000    1.000000
      3          6           0        1.000000    0.000000    0.000000
      4          7           0        0.387228   -1.180724    0.000000
      5          7           0       -0.920849   -0.963519    0.000000
      6          7           0       -1.079293    0.278314    0.000000
      7          7           0        0.098070    0.921194    0.000000
      8          1           0        2.058429    0.141157    0.000000
      9          1           0        0.748897   -2.106700    0.000000
 ---------------------------------------------------------------------
                    Distance matrix (angstroms):
                    1          2          3          4          5
     1  X    0.000000
     2  X    1.000000   0.000000
     3  C    1.000000   1.414214   0.000000
     4  N    1.242600   1.595009   1.330263   0.000000
     5  N    1.332791   1.666233   2.148960   1.325987   0.000000
     6  N    1.114600   1.497442   2.097837   2.068690   1.251901
     7  N    0.926400   1.363164   1.289216   2.121715   2.142508
     8  H    2.063263   2.292827   1.067800   2.130794   3.177484
     9  H    2.235851   2.449292   2.121612   0.994100   2.023589
                    6          7          8          9
     6  N    0.000000
     7  N    1.341447   0.000000
     8  H    3.140719   2.109850   0.000000
     9  H    3.005091   3.097050   2.601486   0.000000
 Stoichiometry    CH2N4
 Framework group  CS[SG(CH2N4)]
 Deg. of freedom    11
 Full point group                 CS      NOp   2
 Largest Abelian subgroup         CS      NOp   2
 Largest concise Abelian subgroup C1      NOp   1
                         Standard orientation:                         
 ---------------------------------------------------------------------
 Center     Atomic      Atomic             Coordinates (Angstroms)
 Number     Number       Type             X           Y           Z
 ---------------------------------------------------------------------
      1          6           0        1.052706    0.225601    0.000000
      2          7           0        0.000000    1.038872    0.000000
      3          7           0       -1.095246    0.291423    0.000000
      4          7           0       -0.716446   -0.901794    0.000000
      5          7           0        0.622125   -0.989585    0.000000
      6          1           0        2.072271    0.542911    0.000000
      7          1           0       -0.061535    2.031065    0.000000
 ---------------------------------------------------------------------
 Rotational constants (GHZ):     10.9201980     10.7359507      5.4136453
 Standard basis: 3-21G (6D, 7F)
 There are    39 symmetry adapted cartesian basis functions of A'  symmetry.
 There are    10 symmetry adapted cartesian basis functions of A"  symmetry.
 There are    39 symmetry adapted basis functions of A'  symmetry.
 There are    10 symmetry adapted basis functions of A"  symmetry.
    49 basis functions,    81 primitive gaussians,    49 cartesian basis functions
    18 alpha electrons       18 beta electrons
       nuclear repulsion energy       169.8369643917 Hartrees.
 NAtoms=    7 NActive=    7 NUniq=    7 SFac= 1.00D+00 NAtFMM=   60 NAOKFM=F Big=F
 Integral buffers will be    131072 words long.
 Raffenetti 1 integral format.
 Two-electron integral symmetry is turned on.
 One-electron integrals computed using PRISM.
 NBasis=    49 RedAO= T EigKep=  1.68D-02  NBF=    39    10
 NBsUse=    49 1.00D-06 EigRej= -1.00D+00 NBFU=    39    10
 Initial guess from the checkpoint file:  "/tmp/rdj3/g09-13184/Gau-21042.chk"
 B after Tr=     0.000000    0.000000    0.000000
         Rot=    1.000000    0.000000    0.000000    0.000024 Ang=   0.00 deg.
 Initial guess orbital symmetries:
       Occupied  (A') (A') (A') (A') (A') (A') (A') (A') (A') (A')
                 (A') (A") (A') (A') (A") (A') (A') (A")
       Virtual   (A') (A') (A') (A') (A') (A') (A') (A') (A') (A')
                 (A') (A') (A') (A') (A') (A') (A') (A') (A') (A')
                 (A') (A') (A') (A') (A") (A") (A") (A") (A") (A")
                 (A")
 ExpMin= 1.83D-01 ExpMax= 2.43D+02 ExpMxC= 2.43D+02 IAcc=1 IRadAn=         1 AccDes= 0.00D+00
 Harris functional with IExCor=  205 and IRadAn=       1 diagonalized for initial guess.
 HarFok:  IExCor=  205 AccDes= 0.00D+00 IRadAn=         1 IDoV= 1 UseB2=F ITyADJ=14
 ICtDFT=  3500011 ScaDFX=  1.000000  1.000000  1.000000  1.000000
 FoFCou: FMM=F IPFlag=           0 FMFlag=      100000 FMFlg1=           0
         NFxFlg=           0 DoJE=T BraDBF=F KetDBF=T FulRan=T
         wScrn=  0.000000 ICntrl=     500 IOpCl=  0 I1Cent=   200000004 NGrid=           0
         NMat0=    1 NMatS0=      1 NMatT0=    0 NMatD0=    1 NMtDS0=    0 NMtDT0=    0
 Petite list used in FoFCou.
 Keep R1 ints in memory in symmetry-blocked form, NReq=1592300.
 Requested convergence on RMS density matrix=1.00D-08 within 128 cycles.
 Requested convergence on MAX density matrix=1.00D-06.
 Requested convergence on             energy=1.00D-06.
 No special actions if energy rises.
 SCF Done:  E(RHF) =  -255.261092306     A.U. after    9 cycles
            NFock=  9  Conv=0.50D-08     -V/T= 2.0004
 ExpMin= 1.83D-01 ExpMax= 2.43D+02 ExpMxC= 2.43D+02 IAcc=3 IRadAn=         5 AccDes= 0.00D+00
 HarFok:  IExCor=  205 AccDes= 0.00D+00 IRadAn=         5 IDoV=-2 UseB2=F ITyADJ=14
 ICtDFT= 12500011 ScaDFX=  1.000000  1.000000  1.000000  1.000000
 Range of M.O.s used for correlation:     6    49
 NBasis=    49 NAE=    18 NBE=    18 NFC=     5 NFV=     0
 NROrb=     44 NOA=    13 NOB=    13 NVA=    31 NVB=    31
 Semi-Direct transformation.
 ModeAB=           2 MOrb=            13 LenV=     435861806
 LASXX=       227383 LTotXX=      227383 LenRXX=      227383
 LTotAB=      247599 MaxLAS=      700700 LenRXY=      700700
 NonZer=      732160 LenScr=     1646592 LnRSAI=           0
 LnScr1=           0 LExtra=           0 Total=      2574675
 MaxDsk=          -1 SrtSym=           F ITran=            4
 JobTyp=0 Pass  1:  I=   1 to  13.
 (rs|ai) integrals will be sorted in core.
 Spin components of T(2) and E(2):
     alpha-alpha T2 =       0.2569470269D-01 E2=     -0.7000629734D-01
     alpha-beta  T2 =       0.1394276743D+00 E2=     -0.3840386372D+00
     beta-beta   T2 =       0.2569470269D-01 E2=     -0.7000629734D-01
 ANorm=    0.1091245655D+01
 E2 =    -0.5240512319D+00 EUMP2 =    -0.25578514353755D+03
 Keep R2 and R3 ints in memory in symmetry-blocked form, NReq=1654951.
 DD1Dir will call FoFMem   1 times, MxPair=       182
 NAB=    91 NAA=     0 NBB=     0.
 MP4(D)= -0.14935323D-01
 MP4(S)= -0.81343199D-02
 MP4(R+Q)=  0.73897626D-02
 Time for triples=        3.19 seconds.
 MP4(T)=   -0.25396414D-01
 E3=        0.76254225D-02        EUMP3=      -0.25577751812D+03
 E4(DQ)=   -0.75455601D-02        UMP4(DQ)=   -0.25578506368D+03
 E4(SDQ)=  -0.15679880D-01        UMP4(SDQ)=  -0.25579319800D+03
 E4(SDTQ)= -0.41076294D-01        UMP4(SDTQ)= -0.25581859441D+03
 Largest amplitude= 6.76D-02
 Discarding MO integrals.

 NEF-NEF-NEF-NEF-NEF-NEF-NEF-NEF-NEF-NEF-NEF-NEF-NEF-NEF-NEF-NEF-NEF-NEF-
 NUMERICAL EIGENVECTOR FOLLOWING MINIMUM SEARCH
 NUMERICALLY ESTIMATING GRADIENTS
 ITERATION   0 VARIABLE  3 STEP  1

 NEF-NEF-NEF-NEF-NEF-NEF-NEF-NEF-NEF-NEF-NEF-NEF-NEF-NEF-NEF-NEF-NEF-NEF-
 ---------------------------------------------------------------------------------------------------
                            Z-MATRIX (ANGSTROMS AND DEGREES)
   CD    Cent   Atom    N1       Length/X        N2       Alpha/Y        N3        Beta/Z          J
 ---------------------------------------------------------------------------------------------------
      1         X 
      2         X        1   1.000000(     1)
      3      1  C        1   1.000000(     2)      2   90.000(     9)
      4      2  N        1   1.242600(     3)      2   90.000(    10)      3   71.843(    16)      0
      5      3  N        1   1.333000(     4)      2   90.000(    11)      3  133.703(    17)      0
      6      4  N        1   1.114809(     5)      2   90.000(    12)      3  194.460(    18)      0
      7      5  N        1   0.926400(     6)      2   90.000(    13)      3  276.077(    19)      0
      8      6  H        3   1.067800(     7)      4  125.025(    14)      5  180.000(    20)      0
      9      7  H        4   0.994100(     8)      5  120.763(    15)      6  180.000(    21)      0
 ---------------------------------------------------------------------------------------------------
                         Z-Matrix orientation:                         
 ---------------------------------------------------------------------
 Center     Atomic      Atomic             Coordinates (Angstroms)
 Number     Number       Type             X           Y           Z
 ---------------------------------------------------------------------
      1         -1           0        0.000000    0.000000    0.000000
      2         -1           0        0.000000    0.000000    1.000000
      3          6           0        1.000000    0.000000    0.000000
      4          7           0        0.387228   -1.180724    0.000000
      5          7           0       -0.920993   -0.963670    0.000000
      6          7           0       -1.079496    0.278367    0.000000
      7          7           0        0.098070    0.921194    0.000000
      8          1           0        2.058429    0.141157    0.000000
      9          1           0        0.749017   -2.106652    0.000000
 ---------------------------------------------------------------------
                    Distance matrix (angstroms):
                    1          2          3          4          5
     1  X    0.000000
     2  X    1.000000   0.000000
     3  C    1.000000   1.414214   0.000000
     4  N    1.242600   1.595009   1.330263   0.000000
     5  N    1.333000   1.666400   2.149157   1.326105   0.000000
     6  N    1.114809   1.497598   2.098044   2.068870   1.252110
     7  N    0.926400   1.363164   1.289216   2.121715   2.142710
     8  H    2.063263   2.292827   1.067800   2.130794   3.177672
     9  H    2.235847   2.449288   2.121551   0.994100   2.023695
                    6          7          8          9
     6  N    0.000000
     7  N    1.341599   0.000000
     8  H    3.140923   2.109850   0.000000
     9  H    3.005291   3.097029   2.601385   0.000000
 Stoichiometry    CH2N4
 Framework group  CS[SG(CH2N4)]
 Deg. of freedom    11
 Full point group                 CS      NOp   2
 Largest Abelian subgroup         CS      NOp   2
 Largest concise Abelian subgroup C1      NOp   1
                         Standard orientation:                         
 ---------------------------------------------------------------------
 Center     Atomic      Atomic             Coordinates (Angstroms)
 Number     Number       Type             X           Y           Z
 ---------------------------------------------------------------------
      1          6           0        1.052758    0.225678    0.000000
      2          7           0        0.000000    1.038882    0.000000
      3          7           0       -1.095393    0.291441    0.000000
      4          7           0       -0.716485   -0.901961    0.000000
      5          7           0        0.622253   -0.989535    0.000000
      6          1           0        2.072302    0.543052    0.000000
      7          1           0       -0.061469    2.031080    0.000000
 ---------------------------------------------------------------------
 Rotational constants (GHZ):     10.9189034     10.7342707      5.4128999
 Standard basis: 3-21G (6D, 7F)
 There are    39 symmetry adapted cartesian basis functions of A'  symmetry.
 There are    10 symmetry adapted cartesian basis functions of A"  symmetry.
 There are    39 symmetry adapted basis functions of A'  symmetry.
 There are    10 symmetry adapted basis functions of A"  symmetry.
    49 basis functions,    81 primitive gaussians,    49 cartesian basis functions
    18 alpha electrons       18 beta electrons
       nuclear repulsion energy       169.8250902298 Hartrees.
 NAtoms=    7 NActive=    7 NUniq=    7 SFac= 1.00D+00 NAtFMM=   60 NAOKFM=F Big=F
 Integral buffers will be    131072 words long.
 Raffenetti 1 integral format.
 Two-electron integral symmetry is turned on.
 One-electron integrals computed using PRISM.
 NBasis=    49 RedAO= T EigKep=  1.68D-02  NBF=    39    10
 NBsUse=    49 1.00D-06 EigRej= -1.00D+00 NBFU=    39    10
 Initial guess from the checkpoint file:  "/tmp/rdj3/g09-13184/Gau-21042.chk"
 B after Tr=     0.000000    0.000000    0.000000
         Rot=    1.000000    0.000000    0.000000   -0.000024 Ang=   0.00 deg.
 Initial guess orbital symmetries:
       Occupied  (A') (A') (A') (A') (A') (A') (A') (A') (A') (A')
                 (A') (A") (A') (A') (A") (A') (A') (A")
       Virtual   (A') (A') (A') (A') (A') (A') (A') (A') (A') (A')
                 (A') (A') (A') (A') (A') (A') (A') (A') (A') (A')
                 (A') (A') (A') (A') (A") (A") (A") (A") (A") (A")
                 (A")
 ExpMin= 1.83D-01 ExpMax= 2.43D+02 ExpMxC= 2.43D+02 IAcc=1 IRadAn=         1 AccDes= 0.00D+00
 Harris functional with IExCor=  205 and IRadAn=       1 diagonalized for initial guess.
 HarFok:  IExCor=  205 AccDes= 0.00D+00 IRadAn=         1 IDoV= 1 UseB2=F ITyADJ=14
 ICtDFT=  3500011 ScaDFX=  1.000000  1.000000  1.000000  1.000000
 FoFCou: FMM=F IPFlag=           0 FMFlag=      100000 FMFlg1=           0
         NFxFlg=           0 DoJE=T BraDBF=F KetDBF=T FulRan=T
         wScrn=  0.000000 ICntrl=     500 IOpCl=  0 I1Cent=   200000004 NGrid=           0
         NMat0=    1 NMatS0=      1 NMatT0=    0 NMatD0=    1 NMtDS0=    0 NMtDT0=    0
 Petite list used in FoFCou.
 Keep R1 ints in memory in symmetry-blocked form, NReq=1592300.
 Requested convergence on RMS density matrix=1.00D-08 within 128 cycles.
 Requested convergence on MAX density matrix=1.00D-06.
 Requested convergence on             energy=1.00D-06.
 No special actions if energy rises.
 SCF Done:  E(RHF) =  -255.261139226     A.U. after    8 cycles
            NFock=  8  Conv=0.26D-08     -V/T= 2.0004
 ExpMin= 1.83D-01 ExpMax= 2.43D+02 ExpMxC= 2.43D+02 IAcc=3 IRadAn=         5 AccDes= 0.00D+00
 HarFok:  IExCor=  205 AccDes= 0.00D+00 IRadAn=         5 IDoV=-2 UseB2=F ITyADJ=14
 ICtDFT= 12500011 ScaDFX=  1.000000  1.000000  1.000000  1.000000
 Range of M.O.s used for correlation:     6    49
 NBasis=    49 NAE=    18 NBE=    18 NFC=     5 NFV=     0
 NROrb=     44 NOA=    13 NOB=    13 NVA=    31 NVB=    31
 Semi-Direct transformation.
 ModeAB=           2 MOrb=            13 LenV=     435861806
 LASXX=       227383 LTotXX=      227383 LenRXX=      227383
 LTotAB=      247599 MaxLAS=      700700 LenRXY=      700700
 NonZer=      732160 LenScr=     1646592 LnRSAI=           0
 LnScr1=           0 LExtra=           0 Total=      2574675
 MaxDsk=          -1 SrtSym=           F ITran=            4
 JobTyp=0 Pass  1:  I=   1 to  13.
 (rs|ai) integrals will be sorted in core.
 Spin components of T(2) and E(2):
     alpha-alpha T2 =       0.2570017806D-01 E2=     -0.7001266051D-01
     alpha-beta  T2 =       0.1394561747D+00 E2=     -0.3840709156D+00
     beta-beta   T2 =       0.2570017806D-01 E2=     -0.7001266051D-01
 ANorm=    0.1091263731D+01
 E2 =    -0.5240962366D+00 EUMP2 =    -0.25578523546289D+03
 Keep R2 and R3 ints in memory in symmetry-blocked form, NReq=1654951.
 DD1Dir will call FoFMem   1 times, MxPair=       182
 NAB=    91 NAA=     0 NBB=     0.
 MP4(D)= -0.14939658D-01
 MP4(S)= -0.81373970D-02
 MP4(R+Q)=  0.73929432D-02
 Time for triples=        3.20 seconds.
 MP4(T)=   -0.25405509D-01
 E3=        0.76380181D-02        EUMP3=      -0.25577759744D+03
 E4(DQ)=   -0.75467146D-02        UMP4(DQ)=   -0.25578514416D+03
 E4(SDQ)=  -0.15684112D-01        UMP4(SDQ)=  -0.25579328156D+03
 E4(SDTQ)= -0.41089621D-01        UMP4(SDTQ)= -0.25581868707D+03
 Largest amplitude= 6.76D-02
 Discarding MO integrals.

 NEF-NEF-NEF-NEF-NEF-NEF-NEF-NEF-NEF-NEF-NEF-NEF-NEF-NEF-NEF-NEF-NEF-NEF-
 NUMERICAL EIGENVECTOR FOLLOWING MINIMUM SEARCH
 NUMERICALLY ESTIMATING GRADIENTS
 ITERATION   0 VARIABLE  3 STEP  2

 NEF-NEF-NEF-NEF-NEF-NEF-NEF-NEF-NEF-NEF-NEF-NEF-NEF-NEF-NEF-NEF-NEF-NEF-
 ---------------------------------------------------------------------------------------------------
                            Z-MATRIX (ANGSTROMS AND DEGREES)
   CD    Cent   Atom    N1       Length/X        N2       Alpha/Y        N3        Beta/Z          J
 ---------------------------------------------------------------------------------------------------
      1         X 
      2         X        1   1.000000(     1)
      3      1  C        1   1.000000(     2)      2   90.000(     9)
      4      2  N        1   1.242600(     3)      2   90.000(    10)      3   71.843(    16)      0
      5      3  N        1   1.333000(     4)      2   90.000(    11)      3  133.703(    17)      0
      6      4  N        1   1.114391(     5)      2   90.000(    12)      3  194.460(    18)      0
      7      5  N        1   0.926400(     6)      2   90.000(    13)      3  276.077(    19)      0
      8      6  H        3   1.067800(     7)      4  125.025(    14)      5  180.000(    20)      0
      9      7  H        4   0.994100(     8)      5  120.763(    15)      6  180.000(    21)      0
 ---------------------------------------------------------------------------------------------------
                         Z-Matrix orientation:                         
 ---------------------------------------------------------------------
 Center     Atomic      Atomic             Coordinates (Angstroms)
 Number     Number       Type             X           Y           Z
 ---------------------------------------------------------------------
      1         -1           0        0.000000    0.000000    0.000000
      2         -1           0        0.000000    0.000000    1.000000
      3          6           0        1.000000    0.000000    0.000000
      4          7           0        0.387228   -1.180724    0.000000
      5          7           0       -0.920993   -0.963670    0.000000
      6          7           0       -1.079091    0.278262    0.000000
      7          7           0        0.098070    0.921194    0.000000
      8          1           0        2.058429    0.141157    0.000000
      9          1           0        0.749017   -2.106652    0.000000
 ---------------------------------------------------------------------
                    Distance matrix (angstroms):
                    1          2          3          4          5
     1  X    0.000000
     2  X    1.000000   0.000000
     3  C    1.000000   1.414214   0.000000
     4  N    1.242600   1.595009   1.330263   0.000000
     5  N    1.333000   1.666400   2.149157   1.326105   0.000000
     6  N    1.114391   1.497287   2.097630   2.068510   1.251955
     7  N    0.926400   1.363164   1.289216   2.121715   2.142710
     8  H    2.063263   2.292827   1.067800   2.130794   3.177672
     9  H    2.235847   2.449288   2.121551   0.994100   2.023695
                    6          7          8          9
     6  N    0.000000
     7  N    1.341294   0.000000
     8  H    3.140514   2.109850   0.000000
     9  H    3.004962   3.097029   2.601385   0.000000
 Stoichiometry    CH2N4
 Framework group  CS[SG(CH2N4)]
 Deg. of freedom    11
 Full point group                 CS      NOp   2
 Largest Abelian subgroup         CS      NOp   2
 Largest concise Abelian subgroup C1      NOp   1
                         Standard orientation:                         
 ---------------------------------------------------------------------
 Center     Atomic      Atomic             Coordinates (Angstroms)
 Number     Number       Type             X           Y           Z
 ---------------------------------------------------------------------
      1          6           0        1.052708    0.225563    0.000000
      2          7           0        0.000000    1.038831    0.000000
      3          7           0       -1.095438    0.291456    0.000000
      4          7           0       -0.716280   -0.901704    0.000000
      5          7           0        0.622130   -0.989624    0.000000
      6          1           0        2.072272    0.542876    0.000000
      7          1           0       -0.061409    2.031032    0.000000
 ---------------------------------------------------------------------
 Rotational constants (GHZ):     10.9214036     10.7347368      5.4136329
 Standard basis: 3-21G (6D, 7F)
 There are    39 symmetry adapted cartesian basis functions of A'  symmetry.
 There are    10 symmetry adapted cartesian basis functions of A"  symmetry.
 There are    39 symmetry adapted basis functions of A'  symmetry.
 There are    10 symmetry adapted basis functions of A"  symmetry.
    49 basis functions,    81 primitive gaussians,    49 cartesian basis functions
    18 alpha electrons       18 beta electrons
       nuclear repulsion energy       169.8366079907 Hartrees.
 NAtoms=    7 NActive=    7 NUniq=    7 SFac= 1.00D+00 NAtFMM=   60 NAOKFM=F Big=F
 Integral buffers will be    131072 words long.
 Raffenetti 1 integral format.
 Two-electron integral symmetry is turned on.
 One-electron integrals computed using PRISM.
 NBasis=    49 RedAO= T EigKep=  1.68D-02  NBF=    39    10
 NBsUse=    49 1.00D-06 EigRej= -1.00D+00 NBFU=    39    10
 Initial guess from the checkpoint file:  "/tmp/rdj3/g09-13184/Gau-21042.chk"
 B after Tr=     0.000000    0.000000    0.000000
         Rot=    1.000000    0.000000    0.000000    0.000023 Ang=   0.00 deg.
 Initial guess orbital symmetries:
       Occupied  (A') (A') (A') (A') (A') (A') (A') (A') (A') (A')
                 (A') (A") (A') (A') (A") (A') (A') (A")
       Virtual   (A') (A') (A') (A') (A') (A') (A') (A') (A') (A')
                 (A') (A') (A') (A') (A') (A') (A') (A') (A') (A')
                 (A') (A') (A') (A') (A") (A") (A") (A") (A") (A")
                 (A")
 ExpMin= 1.83D-01 ExpMax= 2.43D+02 ExpMxC= 2.43D+02 IAcc=1 IRadAn=         1 AccDes= 0.00D+00
 Harris functional with IExCor=  205 and IRadAn=       1 diagonalized for initial guess.
 HarFok:  IExCor=  205 AccDes= 0.00D+00 IRadAn=         1 IDoV= 1 UseB2=F ITyADJ=14
 ICtDFT=  3500011 ScaDFX=  1.000000  1.000000  1.000000  1.000000
 FoFCou: FMM=F IPFlag=           0 FMFlag=      100000 FMFlg1=           0
         NFxFlg=           0 DoJE=T BraDBF=F KetDBF=T FulRan=T
         wScrn=  0.000000 ICntrl=     500 IOpCl=  0 I1Cent=   200000004 NGrid=           0
         NMat0=    1 NMatS0=      1 NMatT0=    0 NMatD0=    1 NMtDS0=    0 NMtDT0=    0
 Petite list used in FoFCou.
 Keep R1 ints in memory in symmetry-blocked form, NReq=1592300.
 Requested convergence on RMS density matrix=1.00D-08 within 128 cycles.
 Requested convergence on MAX density matrix=1.00D-06.
 Requested convergence on             energy=1.00D-06.
 No special actions if energy rises.
 SCF Done:  E(RHF) =  -255.261089550     A.U. after    9 cycles
            NFock=  9  Conv=0.49D-08     -V/T= 2.0004
 ExpMin= 1.83D-01 ExpMax= 2.43D+02 ExpMxC= 2.43D+02 IAcc=3 IRadAn=         5 AccDes= 0.00D+00
 HarFok:  IExCor=  205 AccDes= 0.00D+00 IRadAn=         5 IDoV=-2 UseB2=F ITyADJ=14
 ICtDFT= 12500011 ScaDFX=  1.000000  1.000000  1.000000  1.000000
 Range of M.O.s used for correlation:     6    49
 NBasis=    49 NAE=    18 NBE=    18 NFC=     5 NFV=     0
 NROrb=     44 NOA=    13 NOB=    13 NVA=    31 NVB=    31
 Semi-Direct transformation.
 ModeAB=           2 MOrb=            13 LenV=     435861806
 LASXX=       227383 LTotXX=      227383 LenRXX=      227383
 LTotAB=      247599 MaxLAS=      700700 LenRXY=      700700
 NonZer=      732160 LenScr=     1646592 LnRSAI=           0
 LnScr1=           0 LExtra=           0 Total=      2574675
 MaxDsk=          -1 SrtSym=           F ITran=            4
 JobTyp=0 Pass  1:  I=   1 to  13.
 (rs|ai) integrals will be sorted in core.
 Spin components of T(2) and E(2):
     alpha-alpha T2 =       0.2569562749D-01 E2=     -0.7000762282D-01
     alpha-beta  T2 =       0.1394306244D+00 E2=     -0.3840421815D+00
     beta-beta   T2 =       0.2569562749D-01 E2=     -0.7000762282D-01
 ANorm=    0.1091247854D+01
 E2 =    -0.5240574271D+00 EUMP2 =    -0.25578514697750D+03
 Keep R2 and R3 ints in memory in symmetry-blocked form, NReq=1654951.
 DD1Dir will call FoFMem   1 times, MxPair=       182
 NAB=    91 NAA=     0 NBB=     0.
 MP4(D)= -0.14935721D-01
 MP4(S)= -0.81347083D-02
 MP4(R+Q)=  0.73904691D-02
 Time for triples=        3.17 seconds.
 MP4(T)=   -0.25398022D-01
 E3=        0.76277577D-02        EUMP3=      -0.25577751922D+03
 E4(DQ)=   -0.75452519D-02        UMP4(DQ)=   -0.25578506447D+03
 E4(SDQ)=  -0.15679960D-01        UMP4(SDQ)=  -0.25579319918D+03
 E4(SDTQ)= -0.41077982D-01        UMP4(SDTQ)= -0.25581859720D+03
 Largest amplitude= 6.76D-02
 Discarding MO integrals.

 NEF-NEF-NEF-NEF-NEF-NEF-NEF-NEF-NEF-NEF-NEF-NEF-NEF-NEF-NEF-NEF-NEF-NEF-
 NUMERICAL EIGENVECTOR FOLLOWING MINIMUM SEARCH
 NUMERICALLY ESTIMATING GRADIENTS
 ITERATION   0 VARIABLE  4 STEP  1

 NEF-NEF-NEF-NEF-NEF-NEF-NEF-NEF-NEF-NEF-NEF-NEF-NEF-NEF-NEF-NEF-NEF-NEF-
 ---------------------------------------------------------------------------------------------------
                            Z-MATRIX (ANGSTROMS AND DEGREES)
   CD    Cent   Atom    N1       Length/X        N2       Alpha/Y        N3        Beta/Z          J
 ---------------------------------------------------------------------------------------------------
      1         X 
      2         X        1   1.000000(     1)
      3      1  C        1   1.000000(     2)      2   90.000(     9)
      4      2  N        1   1.242600(     3)      2   90.000(    10)      3   71.843(    16)      0
      5      3  N        1   1.333000(     4)      2   90.000(    11)      3  133.703(    17)      0
      6      4  N        1   1.114600(     5)      2   90.000(    12)      3  194.460(    18)      0
      7      5  N        1   0.926609(     6)      2   90.000(    13)      3  276.077(    19)      0
      8      6  H        3   1.067800(     7)      4  125.025(    14)      5  180.000(    20)      0
      9      7  H        4   0.994100(     8)      5  120.763(    15)      6  180.000(    21)      0
 ---------------------------------------------------------------------------------------------------
                         Z-Matrix orientation:                         
 ---------------------------------------------------------------------
 Center     Atomic      Atomic             Coordinates (Angstroms)
 Number     Number       Type             X           Y           Z
 ---------------------------------------------------------------------
      1         -1           0        0.000000    0.000000    0.000000
      2         -1           0        0.000000    0.000000    1.000000
      3          6           0        1.000000    0.000000    0.000000
      4          7           0        0.387228   -1.180724    0.000000
      5          7           0       -0.920993   -0.963670    0.000000
      6          7           0       -1.079293    0.278314    0.000000
      7          7           0        0.098092    0.921402    0.000000
      8          1           0        2.058429    0.141157    0.000000
      9          1           0        0.749017   -2.106652    0.000000
 ---------------------------------------------------------------------
                    Distance matrix (angstroms):
                    1          2          3          4          5
     1  X    0.000000
     2  X    1.000000   0.000000
     3  C    1.000000   1.414214   0.000000
     4  N    1.242600   1.595009   1.330263   0.000000
     5  N    1.333000   1.666400   2.149157   1.326105   0.000000
     6  N    1.114600   1.497442   2.097837   2.068690   1.252032
     7  N    0.926609   1.363306   1.289349   2.121918   2.142903
     8  H    2.063263   2.292827   1.067800   2.130794   3.177672
     9  H    2.235847   2.449288   2.121551   0.994100   2.023695
                    6          7          8          9
     6  N    0.000000
     7  N    1.341566   0.000000
     8  H    3.140719   2.109906   0.000000
     9  H    3.005127   3.097227   2.601385   0.000000
 Stoichiometry    CH2N4
 Framework group  CS[SG(CH2N4)]
 Deg. of freedom    11
 Full point group                 CS      NOp   2
 Largest Abelian subgroup         CS      NOp   2
 Largest concise Abelian subgroup C1      NOp   1
                         Standard orientation:                         
 ---------------------------------------------------------------------
 Center     Atomic      Atomic             Coordinates (Angstroms)
 Number     Number       Type             X           Y           Z
 ---------------------------------------------------------------------
      1          6           0        1.052717    0.225634    0.000000
      2          7           0        0.000000    1.038892    0.000000
      3          7           0       -1.095431    0.291505    0.000000
      4          7           0       -0.716421   -0.901783    0.000000
      5          7           0        0.622258   -0.989736    0.000000
      6          1           0        2.072277    0.542957    0.000000
      7          1           0       -0.061419    2.031092    0.000000
 ---------------------------------------------------------------------
 Rotational constants (GHZ):     10.9195770     10.7335244      5.4128757
 Standard basis: 3-21G (6D, 7F)
 There are    39 symmetry adapted cartesian basis functions of A'  symmetry.
 There are    10 symmetry adapted cartesian basis functions of A"  symmetry.
 There are    39 symmetry adapted basis functions of A'  symmetry.
 There are    10 symmetry adapted basis functions of A"  symmetry.
    49 basis functions,    81 primitive gaussians,    49 cartesian basis functions
    18 alpha electrons       18 beta electrons
       nuclear repulsion energy       169.8249759080 Hartrees.
 NAtoms=    7 NActive=    7 NUniq=    7 SFac= 1.00D+00 NAtFMM=   60 NAOKFM=F Big=F
 Integral buffers will be    131072 words long.
 Raffenetti 1 integral format.
 Two-electron integral symmetry is turned on.
 One-electron integrals computed using PRISM.
 NBasis=    49 RedAO= T EigKep=  1.68D-02  NBF=    39    10
 NBsUse=    49 1.00D-06 EigRej= -1.00D+00 NBFU=    39    10
 Initial guess from the checkpoint file:  "/tmp/rdj3/g09-13184/Gau-21042.chk"
 B after Tr=     0.000000    0.000000    0.000000
         Rot=    1.000000    0.000000    0.000000   -0.000001 Ang=   0.00 deg.
 Initial guess orbital symmetries:
       Occupied  (A') (A') (A') (A') (A') (A') (A') (A') (A') (A')
                 (A') (A") (A') (A') (A") (A') (A') (A")
[...]
     2  N   -0.248630
     3  N   -0.014510
     4  N   -0.064227
     5  N   -0.389251
 Electronic spatial extent (au):  <R**2>=            272.1729
 Charge=              0.0000 electrons
 Dipole moment (field-independent basis, Debye):
    X=              2.7386    Y=              5.1415    Z=              0.0310  Tot=              5.8254
 Quadrupole moment (field-independent basis, Debye-Ang):
   XX=            -29.2749   YY=            -27.2855   ZZ=            -29.4277
   XY=              2.5266   XZ=              0.0223   YZ=              0.0561
 Traceless Quadrupole moment (field-independent basis, Debye-Ang):
   XX=             -0.6122   YY=              1.3772   ZZ=             -0.7650
   XY=              2.5266   XZ=              0.0223   YZ=              0.0561
 Octapole moment (field-independent basis, Debye-Ang**2):
  XXX=             13.4943  YYY=             25.4905  ZZZ=             -0.0265  XYY=             -0.7016
  XXY=              5.9776  XXZ=              0.0485  XZZ=             -0.7938  YZZ=              0.3337
  YYZ=              0.1030  XYZ=              0.0157
 Hexadecapole moment (field-independent basis, Debye-Ang**3):
 XXXX=           -152.7720 YYYY=           -124.8433 ZZZZ=            -24.3783 XXXY=              8.8605
 XXXZ=              0.1000 YYYX=             -0.4644 YYYZ=              0.1940 ZZZX=             -0.0347
 ZZZY=             -0.0305 XXYY=            -57.6028 XXZZ=            -32.2516 YYZZ=            -30.4182
 XXYZ=              0.0267 YYXZ=             -0.0072 ZZXY=             -0.1014
 N-N= 1.586735965609D+02 E-N=-9.139323665790D+02  KE= 2.537138789784D+02
 Skip step-back as it is equivalent to step-up.
 Numerical evaluation of force constants complete.
 Full mass-weighted force constant matrix:
 Low frequencies ---   -8.9892   -5.9778   -2.3006    3.6043    7.9150   14.1852
 Low frequencies ---  565.2541  649.9060  656.6597
 Diagonal vibrational polarizability:
        0.0000000       0.0000000       0.0000000
 Harmonic frequencies (cm**-1), IR intensities (KM/Mole), Raman scattering
 activities (A**4/AMU), depolarization ratios for plane and unpolarized
 incident light, reduced masses (AMU), force constants (mDyne/A),
 and normal coordinates:
                      1                      2                      3
                     A"                     A"                     A"
 Frequencies --    565.2540               649.9060               656.6597
 Red. masses --      2.0379                 1.6942                 8.4097
 Frc consts  --      0.3836                 0.4216                 2.1365
 IR Inten    --      0.0000                 0.0000                 0.0000
  Atom  AN      X      Y      Z        X      Y      Z        X      Y      Z
     1   6     0.00   0.00  -0.09     0.00   0.00   0.15     0.00   0.00  -0.22
     2   7     0.00   0.00   0.24     0.00   0.00  -0.08     0.00   0.00  -0.02
     3   7     0.00   0.00  -0.12     0.00   0.00   0.12     0.00   0.00   0.34
     4   7     0.00   0.00   0.04     0.00   0.00  -0.03     0.00   0.00  -0.49
     5   7     0.00   0.00   0.01     0.00   0.00  -0.11     0.00   0.00   0.42
     6   1     0.00   0.00  -0.27     0.00   0.00   0.43     0.00   0.00  -0.45
     7   1     0.00   0.00  -0.92     0.00   0.00  -0.87     0.00   0.00  -0.47
                      4                      5                      6
                     A'                     A'                     A"
 Frequencies --    685.4558               807.1734               875.3394
 Red. masses --     11.0797                 6.7702                 1.3528
 Frc consts  --      3.0672                 2.5989                 0.6107
 IR Inten    --      0.0000                 0.0000                 0.0000
  Atom  AN      X      Y      Z        X      Y      Z        X      Y      Z
     1   6    -0.05   0.07   0.00    -0.01   0.03   0.00     0.00   0.00   0.17
     2   7     0.11   0.04   0.00     0.31   0.31   0.00     0.00   0.00  -0.03
     3   7     0.01  -0.01   0.00    -0.29  -0.39   0.00     0.00   0.00   0.00
     4   7     0.55  -0.17   0.00    -0.08   0.05   0.00     0.00   0.00  -0.02
     5   7    -0.64   0.11   0.00     0.02   0.00   0.00     0.00   0.00  -0.03
     6   1     0.11  -0.45   0.00     0.15  -0.41   0.00     0.00   0.00  -0.98
     7   1     0.11   0.03   0.00     0.50   0.34   0.00     0.00   0.00  -0.05
                      7                      8                      9
                     A'                     A'                     A'
 Frequencies --    886.3701               963.3260               969.9487
 Red. masses --      5.9622                 9.8370                 7.9822
 Frc consts  --      2.7598                 5.3785                 4.4245
 IR Inten    --      0.0000                 0.0000                 0.0000
  Atom  AN      X      Y      Z        X      Y      Z        X      Y      Z
     1   6     0.09   0.03   0.00     0.39   0.18   0.00    -0.17   0.04   0.00
     2   7    -0.04  -0.06   0.00     0.18  -0.22   0.00     0.00   0.40   0.00
     3   7     0.34  -0.34   0.00    -0.13   0.06   0.00     0.36   0.05   0.00
     4   7    -0.15   0.27   0.00    -0.32  -0.38   0.00    -0.18  -0.42   0.00
     5   7    -0.18   0.13   0.00    -0.10   0.40   0.00     0.00  -0.07   0.00
     6   1     0.14  -0.16   0.00     0.47   0.01   0.00    -0.05  -0.34   0.00
     7   1    -0.75  -0.12   0.00    -0.08  -0.25   0.00    -0.43   0.40   0.00
                     10                     11                     12
                     A'                     A'                     A'
 Frequencies --   1099.1225              1175.6506              1328.8692
 Red. masses --      2.4213                 2.2650                 2.1325
 Frc consts  --      1.7234                 1.8445                 2.2187
 IR Inten    --      0.0000                 0.0000                 0.0000
  Atom  AN      X      Y      Z        X      Y      Z        X      Y      Z
     1   6     0.25  -0.09   0.00    -0.11  -0.18   0.00    -0.12   0.21   0.00
     2   7    -0.13   0.12   0.00    -0.06  -0.02   0.00     0.11  -0.10   0.00
     3   7    -0.10   0.04   0.00     0.01   0.01   0.00    -0.03   0.05   0.00
     4   7     0.05   0.01   0.00     0.02   0.00   0.00     0.00   0.03   0.00
     5   7     0.00  -0.07   0.00     0.09   0.22   0.00     0.05  -0.09   0.00
     6   1     0.39  -0.44   0.00     0.12  -0.91   0.00     0.19  -0.72   0.00
     7   1    -0.72   0.10   0.00     0.24  -0.01   0.00    -0.56  -0.17   0.00
                     13                     14                     15
                     A'                     A'                     A'
 Frequencies --   1394.6466              3280.2431              3563.8336
 Red. masses --      1.7819                 1.0980                 1.0846
 Frc consts  --      2.0420                 6.9612                 8.1160
 IR Inten    --      0.0000                 0.0000                 0.0000
  Atom  AN      X      Y      Z        X      Y      Z        X      Y      Z
     1   6    -0.08  -0.16   0.00     0.09   0.03   0.00     0.01   0.00   0.00
     2   7     0.15   0.01   0.00     0.00   0.00   0.00    -0.01   0.08   0.00
     3   7    -0.04   0.02   0.00     0.00   0.00   0.00     0.00   0.00   0.00
     4   7     0.03   0.00   0.00     0.00   0.00   0.00     0.00   0.00   0.00
     5   7     0.02   0.08   0.00     0.00   0.00   0.00     0.00   0.00   0.00
     6   1    -0.30   0.40   0.00    -0.94  -0.32   0.00    -0.03  -0.01   0.00
     7   1    -0.83  -0.06   0.00     0.01   0.03   0.00     0.07  -0.99   0.00

 -------------------
 - Thermochemistry -
 -------------------
 Temperature   298.150 Kelvin.  Pressure   1.00000 Atm.
 Atom     1 has atomic number  6 and mass  12.00000
 Atom     2 has atomic number  7 and mass  14.00307
 Atom     3 has atomic number  7 and mass  14.00307
 Atom     4 has atomic number  7 and mass  14.00307
 Atom     5 has atomic number  7 and mass  14.00307
 Atom     6 has atomic number  1 and mass   1.00783
 Atom     7 has atomic number  1 and mass   1.00783
 Molecular mass:    70.02795 amu.
 Principal axes and moments of inertia in atomic units:
                           1         2         3
     Eigenvalues --   188.25406 194.59781 382.85187
           X            0.98503   0.17238   0.00000
           Y           -0.17238   0.98503   0.00000
           Z            0.00000   0.00000   1.00000
 This molecule is an asymmetric top.
 Rotational symmetry number  1.
 Rotational temperatures (Kelvin)      0.46009     0.44509     0.22623
 Rotational constants (GHZ):           9.58673     9.27421     4.71394
 Zero-point vibrational energy     113057.9 (Joules/Mol)
                                   27.02148 (Kcal/Mol)
 Warning -- explicit consideration of   1 degrees of freedom as
           vibrations may cause significant error
 Vibrational temperatures:    813.27   935.07   944.79   986.22  1161.34
          (Kelvin)           1259.42  1275.29  1386.01  1395.54  1581.39
                             1691.50  1911.94  2006.58  4719.53  5127.56
 
 Zero-point correction=                           0.043061 (Hartree/Particle)
 Thermal correction to Energy=                    0.046796
 Thermal correction to Enthalpy=                  0.047740
 Thermal correction to Gibbs Free Energy=         0.016739
 Sum of electronic and zero-point Energies=           -255.812834
 Sum of electronic and thermal Energies=              -255.809100
 Sum of electronic and thermal Enthalpies=            -255.808156
 Sum of electronic and thermal Free Energies=         -255.839157
 
                     E (Thermal)             CV                S
                      KCal/Mol        Cal/Mol-Kelvin    Cal/Mol-Kelvin
 Total                   29.365             13.035             65.248
 Electronic               0.000              0.000              0.000
 Translational            0.889              2.981             38.656
 Rotational               0.889              2.981             24.154
 Vibrational             27.587              7.074              2.438
 Vibration     1          0.921              1.106              0.513
                       Q            Log10(Q)             Ln(Q)
 Total Bot       0.199905D-07         -7.699177        -17.728010
 Total V=0       0.128139D+13         12.107680         27.878964
 Vib (Bot)       0.204719D-19        -19.688842        -45.335234
 Vib (Bot)    1  0.273552D+00         -0.562961         -1.296265
 Vib (V=0)       0.131225D+01          0.118015          0.271739
 Vib (V=0)    1  0.106994D+01          0.029359          0.067602
 Electronic      0.100000D+01          0.000000          0.000000
 Translational   0.230336D+08          7.362362         16.952466
 Rotational      0.423939D+05          4.627303         10.654759
 ***** Axes restored to original set *****
 -------------------------------------------------------------------
 Center     Atomic                   Forces (Hartrees/Bohr)
 Number     Number              X              Y              Z
 -------------------------------------------------------------------
      1        6          -0.000263984   -0.000068985    0.000000000
      2        7           0.000045921   -0.000085712    0.000000000
      3        7           0.000088463    0.000222835    0.000000000
      4        7           0.000102628   -0.000073868    0.000000000
      5        7          -0.000133971    0.000133394    0.000000000
      6        1           0.000070359   -0.000065790    0.000000000
      7        1           0.000074470   -0.000045293    0.000000000
 -------------------------------------------------------------------
 Cartesian Forces:  Max     0.000263984 RMS     0.000099998
 -----------------------------------------------------------------------------------------------
                       Internal Coordinate Forces (Hartree/Bohr or radian)
  Cent   Atom   N1       Length/X         N2         Alpha/Y        N3         Beta/Z          J
 -----------------------------------------------------------------------------------------------
         X 
         X        1   0.000000(     1)
      1  C        1  -0.000141(     2)      2   0.000000(     9)
      2  N        1   0.000089(     3)      2   0.000000(    10)      3  -0.000118(    16)     0
      3  N        1  -0.000192(     4)      2   0.000000(    11)      3   0.000203(    17)     0
      4  N        1  -0.000118(     5)      2   0.000000(    12)      3  -0.000110(    18)     0
      5  N        1   0.000119(     6)      2   0.000000(    13)      3  -0.000280(    19)     0
      6  H        3   0.000061(     7)      4  -0.000151(    14)      5   0.000000(    20)     0
      7  H        4   0.000071(     8)      5   0.000098(    15)      6   0.000000(    21)     0
 -----------------------------------------------------------------------------------------------
 Internal  Forces:  Max     0.000279935 RMS     0.000115349

 GradGradGradGradGradGradGradGradGradGradGradGradGradGradGradGradGradGrad
 Berny optimization.
 Search for a local minimum.
 Step number   1 out of a maximum of    2
 All quantities printed in internal units (Hartrees-Bohrs-Radians)
 Second derivative matrix not updated -- analytic derivatives used.
 The second derivative matrix:
                          rn1       rn2       rn3       rn4       rch
           rn1          0.47797
           rn2         -0.06654   0.37400
           rn3          0.05400  -0.06328   0.36728
           rn4          0.08686   0.06124  -0.05783   0.40505
           rch         -0.00286  -0.00334  -0.00039  -0.00554   0.37721
           rnh          0.00385  -0.01052  -0.00181  -0.00168   0.00080
           an1          0.15958  -0.17482  -0.17817   0.11052   0.01316
           an2          0.13804   0.00135  -0.18866  -0.13145   0.00388
           an3          0.19630   0.18152   0.14737  -0.10630  -0.00267
           an4         -0.10109   0.11845   0.11608  -0.22051  -0.01120
           ach          0.04532   0.01139  -0.01239   0.02080   0.00269
           anh         -0.05587   0.01590   0.02290  -0.01686  -0.00158
                          rnh       an1       an2       an3       an4
           rnh          0.44989
           an1         -0.00286   1.77752
           an2          0.00137  -0.62625   1.73780
           an3         -0.00076  -0.17133  -0.78709   1.21705
           an4         -0.00138  -0.22648  -0.12701  -0.14578   1.06597
           ach          0.00168   0.01813  -0.02195  -0.00721   0.10583
           anh         -0.00375  -0.01773  -0.03086   0.00469  -0.00763
                          ach       anh
           ach          0.22258
           anh          0.00014   0.20356
 ITU=  0
     Eigenvalues ---   -0.00014   0.14725   0.20524   0.22803   0.37621
     Eigenvalues ---    0.44736   0.45131   0.48958   0.65941   1.22403
     Eigenvalues ---    1.86719   2.58039
 Eigenvalue     1 is  -1.41D-04 should be greater than     0.000000 Eigenvector:
                          rn4       rn1       an3       an2       rn2
   1                    0.47716  -0.45752   0.44956   0.37602  -0.33990
                          an4       an1       rn3       anh       rnh
   1                    0.22773   0.19472   0.11908  -0.00074  -0.00023
 Angle between quadratic step and forces=  88.04 degrees.
 Linear search not attempted -- first point.
 Variable       Old X    -DE/DX   Delta X   Delta X   Delta X     New X
                                 (Linear)    (Quad)   (Total)
   rn1        2.45283   0.00009   0.00000  -0.02327  -0.02327   2.42957
   rn2        2.78046  -0.00019   0.00000  -0.01831  -0.01831   2.76215
   rn3        2.37817  -0.00012   0.00000   0.00547   0.00547   2.38364
   rn4        1.90358   0.00012   0.00000   0.02501   0.02501   1.92859
   rch        2.04095   0.00006   0.00000   0.00018   0.00018   2.04113
   rnh        1.91993   0.00007   0.00000   0.00013   0.00013   1.92006
   an1        1.26107  -0.00012   0.00000   0.00979   0.00979   1.27086
   an2        2.35469   0.00020   0.00000   0.01937   0.01937   2.37406
   an3        3.39168  -0.00011   0.00000   0.02322   0.02322   3.41491
   an4        4.81607  -0.00028   0.00000   0.01179   0.01179   4.82786
   ach        2.15226  -0.00015   0.00000  -0.00078  -0.00078   2.15148
   anh        2.10227   0.00010   0.00000   0.00069   0.00069   2.10296
         Item               Value     Threshold  Converged?
 Maximum Force            0.000280     0.000450     YES
 RMS     Force            0.000147     0.000300     YES
 Maximum Displacement     0.025015     0.001800     NO 
 RMS     Displacement     0.014952     0.001200     NO 
 Predicted change in Energy=-8.275316D-07
 GradGradGradGradGradGradGradGradGradGradGradGradGradGradGradGradGradGrad

 1\1\GINC-N356\Freq\RMP4SDTQ-FC\3-21G\C1H2N4\RDJ3\29-Nov-2013\1\\#N Geo
 m=AllCheck Guess=TCheck SCRF=Check GenChk RMP4SDTQ(FC)/3-21G Freq\\1H-
 tetrazole CH2N4 casno=288948 state=1 config=1 method=4 basis=2\\0,1\X\
 X,1,1.\C,1,1.,2,90.\N,1,rn1,2,90.,3,an1,0\N,1,rn2,2,90.,3,an2,0\N,1,rn
 3,2,90.,3,an3,0\N,1,rn4,2,90.,3,an4,0\H,3,rch,4,ach,5,180.,0\H,4,rnh,5
 ,anh,6,180.,0\\rn1=1.29798343\rn2=1.4713547\rn3=1.25847589\rn4=1.00732
 898\rch=1.08002372\rnh=1.01598167\an1=72.25370664\an2=134.91382313\an3
 =194.3290882\an4=275.94048313\ach=123.31562807\anh=120.45137165\\Versi
 on=EM64L-G09RevD.01\State=1-A'\HF=-255.2505775\MP2=-255.8200736\MP3=-2
 55.7986555\MP4D=-255.8188457\MP4DQ=-255.808187\MP4SDQ=-255.8205265\MP4
 SDTQ=-255.8558957\RMSD=8.381e-09\RMSF=1.000e-04\ZeroPoint=0.0430615\Th
 ermal=0.0467959\PG=CS [SG(C1H2N4)]\NImag=0\\0.85873908,0.02334898,0.49
 239022,0.,0.,0.13981110,-0.14164542,-0.04664098,0.,0.42867232,-0.07026
 416,-0.22170532,0.,-0.11574760,0.87292912,0.,0.,-0.05938795,0.,0.,0.08
 184232,-0.08351748,-0.07364015,0.,-0.11207573,-0.04147104,0.,0.2998731
 0,-0.00700091,-0.02215789,0.,0.00833695,-0.08096921,0.,0.07602333,0.31
 201882,0.,0.,0.01764972,0.,0.,-0.05473879,0.,0.,0.08937487,-0.10964766
 ,0.05184122,0.,-0.06287636,0.02681056,0.,-0.08338533,-0.03903990,0.,0.
 32826133,-0.01353948,0.01480522,0.,0.07103016,-0.08072589,0.,0.0527800
 1,-0.13181899,0.,-0.09081720,0.25426023,0.,0.,0.01440160,0.,0.,0.01965
 504,0.,0.,-0.07494060,0.,0.,0.09530011,-0.18000552,0.10079793,0.,0.011
 68106,0.06713652,0.,-0.02808705,-0.07070156,0.,-0.06203966,-0.02198451
 ,0.,0.27143551,0.08769725,-0.20847619,0.,-0.01533576,-0.09244377,0.,-0
 .00771777,-0.07594339,0.,0.05166726,-0.05564155,0.,-0.10201546,0.42772
 249,0.,0.,-0.07238936,0.,0.,0.02136562,0.,0.,0.02730596,0.,0.,-0.06985
 914,0.,0.,0.09073280,-0.36016122,-0.04145820,0.,-0.00194220,0.00354184
 ,0.,0.00143205,0.00359365,0.,-0.00059322,-0.00080414,0.,-0.00993255,-0
 .00579117,0.,0.37171158,-0.03846672,-0.05266895,0.,-0.03524188,-0.0026
 8424,0.,-0.00102379,-0.00625212,0.,0.00548411,-0.00306820,0.,0.0271093
 1,0.00663782,0.,0.04184563,0.05890021,0.,0.,-0.03207407,0.,0.,-0.00099
 811,0.,0.,0.00485790,0.,0.,0.00872000,0.,0.,-0.00351893,0.,0.,0.023683
 50,0.01635739,-0.01437009,0.,-0.12174778,0.12992029,0.,0.00584516,0.02
 873814,0.,-0.00977322,0.00334686,0.,-0.00309803,-0.00847538,0.,-0.0004
 9242,0.00029182,0.,0.11278535,0.01812316,-0.00231147,0.,0.13355478,-0.
 39443471,0.,-0.00502896,0.00506096,0.,-0.00591589,0.00222442,0.,-0.000
 32928,-0.00181715,0.,-0.00095140,-0.00087449,0.,-0.13935775,0.39228666
 ,0.,0.,-0.00800673,0.,0.,-0.00774302,0.,0.,-0.00949970,0.,0.,0.0067198
 2,0.,0.,0.00636376,0.,0.,-0.00067516,0.,0.,0.01283511\\0.00026398,0.00
 006899,0.,-0.00004592,0.00008571,0.,-0.00008846,-0.00022284,0.,-0.0001
 0263,0.00007387,0.,0.00013397,-0.00013339,0.,-0.00007036,0.00006579,0.
 ,-0.00007447,0.00004529,0.\\\@


 DO YOU KNOW THAT THE LETTERS IN "EPISCOPAL", WHEN
 REARRANGED, SPELL "PEPSI COLA"?
 Job cpu time:       0 days  1 hours 26 minutes 45.4 seconds.
 File lengths (MBytes):  RWF=     70 Int=      0 D2E=      0 Chk=     38 Scr=      1
 Normal termination of Gaussian 09 at Fri Nov 29 17:13:46 2013.
