 Entering Gaussian System, Link 0=g09
 Initial command:
 /usr/local/gaussian/g09.d01.em64t.legacy.linda/g09/l1.exe "/tmp/rdj3/g09-23219/Gau-30466.inp" -scrdir="/tmp/rdj3/g09-23219/"
 Entering Link 1 = /usr/local/gaussian/g09.d01.em64t.legacy.linda/g09/l1.exe PID=     30467.
  
 Copyright (c) 1988,1990,1992,1993,1995,1998,2003,2009,2013,
            Gaussian, Inc.  All Rights Reserved.
  
 This is part of the Gaussian(R) 09 program.  It is based on
 the Gaussian(R) 03 system (copyright 2003, Gaussian, Inc.),
 the Gaussian(R) 98 system (copyright 1998, Gaussian, Inc.),
 the Gaussian(R) 94 system (copyright 1995, Gaussian, Inc.),
 the Gaussian 92(TM) system (copyright 1992, Gaussian, Inc.),
 the Gaussian 90(TM) system (copyright 1990, Gaussian, Inc.),
 the Gaussian 88(TM) system (copyright 1988, Gaussian, Inc.),
 the Gaussian 86(TM) system (copyright 1986, Carnegie Mellon
 University), and the Gaussian 82(TM) system (copyright 1983,
 Carnegie Mellon University). Gaussian is a federally registered
 trademark of Gaussian, Inc.
  
 This software contains proprietary and confidential information,
 including trade secrets, belonging to Gaussian, Inc.
  
 This software is provided under written license and may be
 used, copied, transmitted, or stored only in accord with that
 written license.
  
 The following legend is applicable only to US Government
 contracts under FAR:
  
                    RESTRICTED RIGHTS LEGEND
  
 Use, reproduction and disclosure by the US Government is
 subject to restrictions as set forth in subparagraphs (a)
 and (c) of the Commercial Computer Software - Restricted
 Rights clause in FAR 52.227-19.
  
 Gaussian, Inc.
 340 Quinnipiac St., Bldg. 40, Wallingford CT 06492
  
  
 ---------------------------------------------------------------
 Warning -- This program may not be used in any manner that
 competes with the business of Gaussian, Inc. or will provide
 assistance to any competitor of Gaussian, Inc.  The licensee
 of this program is prohibited from giving any competitor of
 Gaussian, Inc. access to this program.  By using this program,
 the user acknowledges that Gaussian, Inc. is engaged in the
 business of creating and licensing software in the field of
 computational chemistry and represents and warrants to the
 licensee that it is not a competitor of Gaussian, Inc. and that
 it will not use this program in any manner prohibited above.
 ---------------------------------------------------------------
  

 Cite this work as:
 Gaussian 09, Revision D.01,
 M. J. Frisch, G. W. Trucks, H. B. Schlegel, G. E. Scuseria, 
 M. A. Robb, J. R. Cheeseman, G. Scalmani, V. Barone, B. Mennucci, 
 G. A. Petersson, H. Nakatsuji, M. Caricato, X. Li, H. P. Hratchian, 
 A. F. Izmaylov, J. Bloino, G. Zheng, J. L. Sonnenberg, M. Hada, 
 M. Ehara, K. Toyota, R. Fukuda, J. Hasegawa, M. Ishida, T. Nakajima, 
 Y. Honda, O. Kitao, H. Nakai, T. Vreven, J. A. Montgomery, Jr., 
 J. E. Peralta, F. Ogliaro, M. Bearpark, J. J. Heyd, E. Brothers, 
 K. N. Kudin, V. N. Staroverov, T. Keith, R. Kobayashi, J. Normand, 
 K. Raghavachari, A. Rendell, J. C. Burant, S. S. Iyengar, J. Tomasi, 
 M. Cossi, N. Rega, J. M. Millam, M. Klene, J. E. Knox, J. B. Cross, 
 V. Bakken, C. Adamo, J. Jaramillo, R. Gomperts, R. E. Stratmann, 
 O. Yazyev, A. J. Austin, R. Cammi, C. Pomelli, J. W. Ochterski, 
 R. L. Martin, K. Morokuma, V. G. Zakrzewski, G. A. Voth, 
 P. Salvador, J. J. Dannenberg, S. Dapprich, A. D. Daniels, 
 O. Farkas, J. B. Foresman, J. V. Ortiz, J. Cioslowski, 
 and D. J. Fox, Gaussian, Inc., Wallingford CT, 2013.
 
 ******************************************
 Gaussian 09:  EM64L-G09RevD.01 24-Apr-2013
                25-Nov-2013 
 ******************************************
 %Nproc=8
 Will use up to    8 processors via shared memory.
 %mem=436000000
 ------------------------------
 #LSDA/STO-3G opt=z-matrix freq
 ------------------------------
 1/10=7,14=-1,18=40,26=3,38=1/1,3;
 2/12=2,17=6,18=5,29=3,40=1/2;
 3/6=3,11=2,16=1,25=1,30=1,71=1,74=205/1,2,3;
 4//1;
 5/5=2,38=5/2;
 6/7=2,8=2,9=2,10=2,28=1/1;
 7/29=1/1,2,3,16;
 1/10=7,14=-1,18=40,26=3/3(2);
 2/29=3/2;
 99//99;
 2/29=3/2;
 3/6=3,11=2,16=1,25=1,30=1,71=1,74=205/1,2,3;
 4/5=5,16=3,69=1/1;
 5/5=2,38=5/2;
 7//1,2,3,16;
 1/14=-1,18=40,26=3/3(-5);
 2/29=3/2;
 6/7=2,8=2,9=2,10=2,19=2,28=1/1;
 99/9=1/99;
 -------------------------------------------------------------------
 1H-tetrazole CH2N4 casno=288948 state=1 config=1 method=51 basis=20
 -------------------------------------------------------------------
 Symbolic Z-matrix:
 Charge =  0 Multiplicity = 1
 X
 X                    1     1. 
 C                    1     1.       2     90. 
 N                    1    rn1      2     90.      3    an1      0
 N                    1    rn2      2     90.      3    an2      0
 N                    1    rn3      2     90.      3    an3      0
 N                    1    rn4      2     90.      3    an4      0
 H                    3    rch      4    ach      5     180.     0
 H                    4    rnh      5    anh      6     180.     0
       Variables:
  rn1                   1.2426                   
  rn2                   1.333                    
  rn3                   1.1146                   
  rn4                   0.9264                   
  rch                   1.0678                   
  rnh                   0.9941                   
  an1                  71.8427                   
  an2                 133.7028                   
  an3                 194.4597                   
  an4                 276.0768                   
  ach                 125.0248                   
  anh                 120.7626                   
 

 GradGradGradGradGradGradGradGradGradGradGradGradGradGradGradGradGradGrad
 Berny optimization.
 Initialization pass.
                       ----------------------------
                       !    Initial Parameters    !
                       ! (Angstroms and Degrees)  !
 ----------------------                            ----------------------
 !      Name          Value   Derivative information (Atomic Units)     !
 ------------------------------------------------------------------------
 !       rn1         1.2426   estimate D2E/DX2                          !
 !       rn2         1.333    estimate D2E/DX2                          !
 !       rn3         1.1146   estimate D2E/DX2                          !
 !       rn4         0.9264   estimate D2E/DX2                          !
 !       rch         1.0678   estimate D2E/DX2                          !
 !       rnh         0.9941   estimate D2E/DX2                          !
 !       an1        71.8427   estimate D2E/DX2                          !
 !       an2       133.7028   estimate D2E/DX2                          !
 !       an3       194.4597   estimate D2E/DX2                          !
 !       an4       276.0768   estimate D2E/DX2                          !
 !       ach       125.0248   estimate D2E/DX2                          !
 !       anh       120.7626   estimate D2E/DX2                          !
 ------------------------------------------------------------------------
 Trust Radius=3.00D-01 FncErr=1.00D-07 GrdErr=1.00D-06
 Number of steps in this run=     22 maximum allowed number of steps=    100.
 GradGradGradGradGradGradGradGradGradGradGradGradGradGradGradGradGradGrad

 ---------------------------------------------------------------------------------------------------
                            Z-MATRIX (ANGSTROMS AND DEGREES)
   CD    Cent   Atom    N1       Length/X        N2       Alpha/Y        N3        Beta/Z          J
 ---------------------------------------------------------------------------------------------------
      1         X 
      2         X        1   1.000000(     1)
      3      1  C        1   1.000000(     2)      2   90.000(     9)
      4      2  N        1   1.242600(     3)      2   90.000(    10)      3   71.843(    16)      0
      5      3  N        1   1.333000(     4)      2   90.000(    11)      3  133.703(    17)      0
      6      4  N        1   1.114600(     5)      2   90.000(    12)      3  194.460(    18)      0
      7      5  N        1   0.926400(     6)      2   90.000(    13)      3  276.077(    19)      0
      8      6  H        3   1.067800(     7)      4  125.025(    14)      5  180.000(    20)      0
      9      7  H        4   0.994100(     8)      5  120.763(    15)      6  180.000(    21)      0
 ---------------------------------------------------------------------------------------------------
                         Z-Matrix orientation:                         
 ---------------------------------------------------------------------
 Center     Atomic      Atomic             Coordinates (Angstroms)
 Number     Number       Type             X           Y           Z
 ---------------------------------------------------------------------
      1         -1           0        0.000000    0.000000    0.000000
      2         -1           0        0.000000    0.000000    1.000000
      3          6           0        1.000000    0.000000    0.000000
      4          7           0        0.387228   -1.180724    0.000000
      5          7           0       -0.920993   -0.963670    0.000000
      6          7           0       -1.079293    0.278314    0.000000
      7          7           0        0.098070    0.921194    0.000000
      8          1           0        2.058429    0.141157    0.000000
      9          1           0        0.749017   -2.106652    0.000000
 ---------------------------------------------------------------------
                    Distance matrix (angstroms):
                    1          2          3          4          5
     1  X    0.000000
     2  X    1.000000   0.000000
     3  C    1.000000   1.414214   0.000000
     4  N    1.242600   1.595009   1.330263   0.000000
     5  N    1.333000   1.666400   2.149157   1.326105   0.000000
     6  N    1.114600   1.497442   2.097837   2.068690   1.252032
     7  N    0.926400   1.363164   1.289216   2.121715   2.142710
     8  H    2.063263   2.292827   1.067800   2.130794   3.177672
     9  H    2.235847   2.449288   2.121551   0.994100   2.023695
                    6          7          8          9
     6  N    0.000000
     7  N    1.341447   0.000000
     8  H    3.140719   2.109850   0.000000
     9  H    3.005127   3.097029   2.601385   0.000000
 Stoichiometry    CH2N4
 Framework group  CS[SG(CH2N4)]
 Deg. of freedom    11
 Full point group                 CS      NOp   2
 Largest Abelian subgroup         CS      NOp   2
 Largest concise Abelian subgroup C1      NOp   1
                         Standard orientation:                         
 ---------------------------------------------------------------------
 Center     Atomic      Atomic             Coordinates (Angstroms)
 Number     Number       Type             X           Y           Z
 ---------------------------------------------------------------------
      1          6           0        1.052733    0.225621    0.000000
      2          7           0        0.000000    1.038857    0.000000
      3          7           0       -1.095416    0.291448    0.000000
      4          7           0       -0.716382   -0.901832    0.000000
      5          7           0        0.622191   -0.989579    0.000000
      6          1           0        2.072287    0.542964    0.000000
      7          1           0       -0.061439    2.031056    0.000000
 ---------------------------------------------------------------------
 Rotational constants (GHZ):     10.9201517     10.7345054      5.4132664
 Standard basis: STO-3G (5D, 7F)
 There are    22 symmetry adapted cartesian basis functions of A'  symmetry.
 There are     5 symmetry adapted cartesian basis functions of A"  symmetry.
 There are    22 symmetry adapted basis functions of A'  symmetry.
 There are     5 symmetry adapted basis functions of A"  symmetry.
    27 basis functions,    81 primitive gaussians,    27 cartesian basis functions
    18 alpha electrons       18 beta electrons
       nuclear repulsion energy       169.8308489506 Hartrees.
 NAtoms=    7 NActive=    7 NUniq=    7 SFac= 1.00D+00 NAtFMM=   60 NAOKFM=F Big=F
 Integral buffers will be    131072 words long.
 Raffenetti 2 integral format.
 Two-electron integral symmetry is turned on.
 One-electron integrals computed using PRISM.
 NBasis=    27 RedAO= T EigKep=  2.71D-01  NBF=    22     5
 NBsUse=    27 1.00D-06 EigRej= -1.00D+00 NBFU=    22     5
 ExpMin= 1.69D-01 ExpMax= 9.91D+01 ExpMxC= 9.91D+01 IAcc=1 IRadAn=         1 AccDes= 0.00D+00
 Harris functional with IExCor=  205 and IRadAn=       1 diagonalized for initial guess.
 HarFok:  IExCor=  205 AccDes= 0.00D+00 IRadAn=         1 IDoV= 1 UseB2=F ITyADJ=14
 ICtDFT=  3500011 ScaDFX=  1.000000  1.000000  1.000000  1.000000
 FoFCou: FMM=F IPFlag=           0 FMFlag=      100000 FMFlg1=           0
         NFxFlg=           0 DoJE=T BraDBF=F KetDBF=T FulRan=T
         wScrn=  0.000000 ICntrl=     500 IOpCl=  0 I1Cent=   200000004 NGrid=           0
         NMat0=    1 NMatS0=      1 NMatT0=    0 NMatD0=    1 NMtDS0=    0 NMtDT0=    0
 Petite list used in FoFCou.
 Initial guess orbital symmetries:
       Occupied  (A') (A') (A') (A') (A') (A') (A') (A') (A') (A')
                 (A') (A') (A") (A') (A") (A") (A') (A')
       Virtual   (A") (A") (A') (A') (A') (A') (A') (A') (A')
 The electronic state of the initial guess is 1-A'.
 Keep J ints in memory in symmetry-blocked form, NReq=953070.
 Requested convergence on RMS density matrix=1.00D-08 within 128 cycles.
 Requested convergence on MAX density matrix=1.00D-06.
 Requested convergence on             energy=1.00D-06.
 No special actions if energy rises.
 Integral accuracy reduced to 1.0D-05 until final iterations.
 Initial convergence to 1.0D-05 achieved.  Increase integral accuracy.
 SCF Done:  E(RS-VWN) =  -253.464909979     A.U. after   14 cycles
            NFock= 14  Conv=0.63D-08     -V/T= 2.0111

 **********************************************************************

            Population analysis using the SCF density.

 **********************************************************************

 Orbital symmetries:
       Occupied  (A') (A') (A') (A') (A') (A') (A') (A') (A') (A')
                 (A') (A') (A") (A') (A") (A") (A') (A')
       Virtual   (A") (A") (A') (A') (A') (A') (A') (A') (A')
 The electronic state is 1-A'.
 Alpha  occ. eigenvalues --  -13.86253 -13.77638 -13.75048 -13.72029  -9.72469
 Alpha  occ. eigenvalues --   -1.08387  -0.87024  -0.81968  -0.61363  -0.59851
 Alpha  occ. eigenvalues --   -0.53488  -0.43751  -0.43641  -0.26379  -0.26324
 Alpha  occ. eigenvalues --   -0.24931  -0.17914  -0.15957
 Alpha virt. eigenvalues --    0.01094   0.05504   0.21768   0.22962   0.31894
 Alpha virt. eigenvalues --    0.35493   0.40890   0.52998   0.57285
          Condensed to atoms (all electrons):
               1          2          3          4          5          6
     1  C    4.858184   0.408932  -0.073187  -0.062044   0.456215   0.393440
     2  N    0.408932   6.295009   0.300688  -0.069953  -0.066179  -0.020822
     3  N   -0.073187   0.300688   6.535129   0.367078  -0.047350   0.001409
     4  N   -0.062044  -0.069953   0.367078   6.533506   0.299786   0.002307
     5  N    0.456215  -0.066179  -0.047350   0.299786   6.537165  -0.018682
     6  H    0.393440  -0.020822   0.001409   0.002307  -0.018682   0.489817
     7  H   -0.023523   0.346096  -0.023852   0.003154   0.002012  -0.000789
               7
     1  C   -0.023523
     2  N    0.346096
     3  N   -0.023852
     4  N    0.003154
     5  N    0.002012
     6  H   -0.000789
     7  H    0.401721
 Mulliken charges:
               1
     1  C    0.041984
     2  N   -0.193771
     3  N   -0.059915
     4  N   -0.073833
     5  N   -0.162966
     6  H    0.153319
     7  H    0.295182
 Sum of Mulliken charges =   0.00000
 Mulliken charges with hydrogens summed into heavy atoms:
               1
     1  C    0.195303
     2  N    0.101411
     3  N   -0.059915
     4  N   -0.073833
     5  N   -0.162966
 Electronic spatial extent (au):  <R**2>=            240.3885
 Charge=              0.0000 electrons
 Dipole moment (field-independent basis, Debye):
    X=              2.2000    Y=              4.5598    Z=              0.0000  Tot=              5.0628
 Quadrupole moment (field-independent basis, Debye-Ang):
   XX=            -27.5869   YY=            -24.7758   ZZ=            -25.6587
   XY=              1.4495   XZ=              0.0000   YZ=              0.0000
 Traceless Quadrupole moment (field-independent basis, Debye-Ang):
   XX=             -1.5798   YY=              1.2313   ZZ=              0.3484
   XY=              1.4495   XZ=              0.0000   YZ=              0.0000
 Octapole moment (field-independent basis, Debye-Ang**2):
  XXX=              8.6756  YYY=             18.6525  ZZZ=              0.0000  XYY=             -0.7293
  XXY=              3.4963  XXZ=              0.0000  XZZ=             -1.1014  YZZ=             -0.2442
  YYZ=              0.0000  XYZ=              0.0000
 Hexadecapole moment (field-independent basis, Debye-Ang**3):
 XXXX=           -125.5270 YYYY=           -104.2003 ZZZZ=            -17.1995 XXXY=              4.7516
 XXXZ=              0.0000 YYYX=             -1.4591 YYYZ=              0.0000 ZZZX=              0.0000
 ZZZY=              0.0000 XXYY=            -46.2339 XXZZ=            -25.1206 YYZZ=            -23.5071
 XXYZ=              0.0000 YYXZ=              0.0000 ZZXY=             -0.4910
 N-N= 1.698308489506D+02 E-N=-9.322557250668D+02  KE= 2.506798055157D+02
 Symmetry A'   KE= 2.409157363033D+02
 Symmetry A"   KE= 9.764069212366D+00
 Calling FoFJK, ICntrl=      2527 FMM=F ISym2X=1 I1Cent= 0 IOpClX= 0 NMat=1 NMatS=1 NMatT=0.
 ***** Axes restored to original set *****
 -------------------------------------------------------------------
 Center     Atomic                   Forces (Hartrees/Bohr)
 Number     Number              X              Y              Z
 -------------------------------------------------------------------
      1        6           0.081439520   -0.007078665    0.000000000
      2        7           0.050948898   -0.031124103    0.000000000
      3        7          -0.090953574   -0.154102872    0.000000000
      4        7          -0.113182409    0.118366901    0.000000000
      5        7           0.022360669    0.127854644    0.000000000
      6        1           0.025553230    0.002196431    0.000000000
      7        1           0.023833666   -0.056112336    0.000000000
 -------------------------------------------------------------------
 Cartesian Forces:  Max     0.154102872 RMS     0.065577824
 -----------------------------------------------------------------------------------------------
                       Internal Coordinate Forces (Hartree/Bohr or radian)
  Cent   Atom   N1       Length/X         N2         Alpha/Y        N3         Beta/Z          J
 -----------------------------------------------------------------------------------------------
         X 
         X        1   0.000000(     1)
      1  C        1   0.107848(     2)      2   0.000000(     9)
      2  N        1   0.104327(     3)      2   0.000000(    10)      3  -0.102887(    16)     0
      3  N        1   0.175349(     4)      2   0.000000(    11)      3  -0.104463(    17)     0
      4  N        1   0.139153(     5)      2   0.000000(    12)      3   0.181891(    18)     0
      5  N        1   0.129503(     6)      2   0.000000(    13)      3   0.015231(    19)     0
      6  H        3   0.025619(     7)      4  -0.002423(    14)      5   0.000000(    20)     0
      7  H        4   0.060938(     8)      5   0.003340(    15)      6   0.000000(    21)     0
 -----------------------------------------------------------------------------------------------
 Internal  Forces:  Max     0.181890505 RMS     0.084119680

 GradGradGradGradGradGradGradGradGradGradGradGradGradGradGradGradGradGrad
 Berny optimization.
 Search for a local minimum.
 Step number   1 out of a maximum of   22
 All quantities printed in internal units (Hartrees-Bohrs-Radians)
 Second derivative matrix not updated -- first step.
 The second derivative matrix:
                          rn1       rn2       rn3       rn4       rch
           rn1          0.65186
           rn2          0.01318   0.69869
           rn3          0.03472   0.07334   0.58262
           rn4          0.03688   0.02662   0.13967   0.63921
           rch          0.00000   0.00000   0.00000   0.00000   0.37510
           rnh          0.00000   0.00000   0.00000   0.00000   0.00000
           an1          0.02012  -0.75016   0.04258  -0.08486   0.00000
           an2          0.72119  -0.31234  -0.71865   0.05436   0.00000
           an3         -0.02914   1.04797   0.05412  -0.58583   0.00000
           an4          0.05328  -0.03228   0.65851  -0.10009   0.00000
           ach          0.04546   0.00000   0.00000   0.05066   0.00000
           anh         -0.10206   0.05276   0.00000   0.00000   0.00000
                          rnh       an1       an2       an3       an4
           rnh          0.48741
           an1          0.00000   4.53257
           an2          0.00000  -2.68051   6.02300
           an3          0.00000  -0.03573  -3.19618   4.47465
           an4          0.00000  -0.12258  -0.06592  -1.16042   2.58479
           ach          0.00000  -0.10460   0.00000   0.00000   0.07318
           anh          0.00000   0.03519  -0.09059   0.00000   0.00000
                          ach       anh
           ach          0.32000
           anh          0.00000   0.32000
 ITU=  0
     Eigenvalues ---    0.00000   0.13346   0.26445   0.33044   0.37510
     Eigenvalues ---    0.40158   0.48741   0.75609   1.20990   2.99509
     Eigenvalues ---    5.09563   9.64077
 RFO step:  Lambda=-9.72949028D-02 EMin=-6.95624114D-16
 Linear search not attempted -- first point.
 Maximum step size (   0.300) exceeded in Quadratic search.
    -- Step size scaled by   0.853
 Variable       Old X    -DE/DX   Delta X   Delta X   Delta X     New X
                                 (Linear)    (Quad)   (Total)
   rn1        2.34817   0.10433   0.00000   0.08563   0.08563   2.43381
   rn2        2.51900   0.17535   0.00000   0.16568   0.16568   2.68469
   rn3        2.10629   0.13915   0.00000   0.16632   0.16632   2.27261
   rn4        1.75064   0.12950   0.00000   0.12373   0.12373   1.87437
   rch        2.01785   0.02562   0.00000   0.04624   0.04624   2.06409
   rnh        1.87858   0.06094   0.00000   0.08887   0.08887   1.96744
   an1        1.25389  -0.10289   0.00000   0.01979   0.01979   1.27368
   an2        2.33355  -0.10446   0.00000   0.02150   0.02150   2.35505
   an3        3.39396   0.18189   0.00000   0.02042   0.02042   3.41438
   an4        4.81845   0.01523   0.00000  -0.02025  -0.02025   4.79820
   ach        2.18209  -0.00242   0.00000  -0.02079  -0.02079   2.16130
   anh        2.10770   0.00334   0.00000   0.00982   0.00982   2.11753
         Item               Value     Threshold  Converged?
 Maximum Force            0.181891     0.000450     NO 
 RMS     Force            0.106836     0.000300     NO 
 Maximum Displacement     0.166318     0.001800     NO 
 RMS     Displacement     0.086603     0.001200     NO 
 Predicted change in Energy=-5.196988D-02
 GradGradGradGradGradGradGradGradGradGradGradGradGradGradGradGradGradGrad

 ---------------------------------------------------------------------------------------------------
                            Z-MATRIX (ANGSTROMS AND DEGREES)
   CD    Cent   Atom    N1       Length/X        N2       Alpha/Y        N3        Beta/Z          J
 ---------------------------------------------------------------------------------------------------
      1         X 
      2         X        1   1.000000(     1)
      3      1  C        1   1.000000(     2)      2   90.000(     9)
      4      2  N        1   1.287915(     3)      2   90.000(    10)      3   72.976(    16)      0
      5      3  N        1   1.420676(     4)      2   90.000(    11)      3  134.935(    17)      0
      6      4  N        1   1.202612(     5)      2   90.000(    12)      3  195.630(    18)      0
      7      5  N        1   0.991875(     6)      2   90.000(    13)      3  274.917(    19)      0
      8      6  H        3   1.092271(     7)      4  123.834(    14)      5  180.000(    20)      0
      9      7  H        4   1.041126(     8)      5  121.325(    15)      6  180.000(    21)      0
 ---------------------------------------------------------------------------------------------------
                         Z-Matrix orientation:                         
 ---------------------------------------------------------------------
 Center     Atomic      Atomic             Coordinates (Angstroms)
 Number     Number       Type             X           Y           Z
 ---------------------------------------------------------------------
      1         -1           0        0.000000    0.000000    0.000000
      2         -1           0        0.000000    0.000000    1.000000
      3          6           0        1.000000    0.000000    0.000000
      4          7           0        0.377056   -1.231485    0.000000
      5          7           0       -1.003424   -1.005715    0.000000
      6          7           0       -1.158142    0.324009    0.000000
      7          7           0        0.085012    0.988225    0.000000
      8          1           0        2.084127    0.133136    0.000000
      9          1           0        0.767694   -2.196547    0.000000
 ---------------------------------------------------------------------
                    Distance matrix (angstroms):
                    1          2          3          4          5
     1  X    0.000000
     2  X    1.000000   0.000000
     3  C    1.000000   1.414214   0.000000
     4  N    1.287915   1.630560   1.380077   0.000000
     5  N    1.420676   1.737331   2.241689   1.398820   0.000000
     6  N    1.202612   1.564057   2.182329   2.185496   1.338694
     7  N    0.991875   1.408480   1.346771   2.238839   2.271670
     8  H    2.088375   2.315450   1.092271   2.185470   3.290889
     9  H    2.326838   2.532622   2.208797   1.041126   2.134231
                    6          7          8          9
     6  N    0.000000
     7  N    1.409473   0.000000
     8  H    3.247882   2.174313   0.000000
     9  H    3.172073   3.257120   2.675896   0.000000
 Stoichiometry    CH2N4
 Framework group  CS[SG(CH2N4)]
 Deg. of freedom    11
 Full point group                 CS      NOp   2
 Largest Abelian subgroup         CS      NOp   2
 Largest concise Abelian subgroup C1      NOp   1
                         Standard orientation:                         
 ---------------------------------------------------------------------
 Center     Atomic      Atomic             Coordinates (Angstroms)
 Number     Number       Type             X           Y           Z
 ---------------------------------------------------------------------
      1          6           0        1.083597    0.241596    0.000000
      2          7           0        0.000000    1.096249    0.000000
      3          7           0       -1.157043    0.310152    0.000000
      4          7           0       -0.737429   -0.961078    0.000000
      5          7           0        0.669831   -1.040039    0.000000
      6          1           0        2.122979    0.577365    0.000000
      7          1           0       -0.052074    2.136072    0.000000
 ---------------------------------------------------------------------
 Rotational constants (GHZ):      9.9532902      9.6757212      4.9062716
 Standard basis: STO-3G (5D, 7F)
 There are    22 symmetry adapted cartesian basis functions of A'  symmetry.
 There are     5 symmetry adapted cartesian basis functions of A"  symmetry.
 There are    22 symmetry adapted basis functions of A'  symmetry.
 There are     5 symmetry adapted basis functions of A"  symmetry.
    27 basis functions,    81 primitive gaussians,    27 cartesian basis functions
    18 alpha electrons       18 beta electrons
       nuclear repulsion energy       161.6749732642 Hartrees.
 NAtoms=    7 NActive=    7 NUniq=    7 SFac= 1.00D+00 NAtFMM=   60 NAOKFM=F Big=F
 Integral buffers will be    131072 words long.
 Raffenetti 2 integral format.
 Two-electron integral symmetry is turned on.
 One-electron integrals computed using PRISM.
 NBasis=    27 RedAO= T EigKep=  3.20D-01  NBF=    22     5
 NBsUse=    27 1.00D-06 EigRej= -1.00D+00 NBFU=    22     5
 Initial guess from the checkpoint file:  "/tmp/rdj3/g09-23219/Gau-30467.chk"
 B after Tr=     0.000000    0.000000    0.000000
         Rot=    0.999995    0.000000    0.000000   -0.003118 Ang=  -0.36 deg.
 Initial guess orbital symmetries:
       Occupied  (A') (A') (A') (A') (A') (A') (A') (A') (A') (A')
                 (A') (A') (A") (A') (A") (A") (A') (A')
       Virtual   (A') (A') (A') (A') (A') (A') (A') (A") (A")
 ExpMin= 1.69D-01 ExpMax= 9.91D+01 ExpMxC= 9.91D+01 IAcc=1 IRadAn=         1 AccDes= 0.00D+00
 Harris functional with IExCor=  205 and IRadAn=       1 diagonalized for initial guess.
 HarFok:  IExCor=  205 AccDes= 0.00D+00 IRadAn=         1 IDoV= 1 UseB2=F ITyADJ=14
 ICtDFT=  3500011 ScaDFX=  1.000000  1.000000  1.000000  1.000000
 FoFCou: FMM=F IPFlag=           0 FMFlag=      100000 FMFlg1=           0
         NFxFlg=           0 DoJE=T BraDBF=F KetDBF=T FulRan=T
         wScrn=  0.000000 ICntrl=     500 IOpCl=  0 I1Cent=   200000004 NGrid=           0
         NMat0=    1 NMatS0=      1 NMatT0=    0 NMatD0=    1 NMtDS0=    0 NMtDT0=    0
 Petite list used in FoFCou.
 Keep J ints in memory in symmetry-blocked form, NReq=953070.
 Requested convergence on RMS density matrix=1.00D-08 within 128 cycles.
 Requested convergence on MAX density matrix=1.00D-06.
 Requested convergence on             energy=1.00D-06.
 No special actions if energy rises.
 Integral accuracy reduced to 1.0D-05 until final iterations.
 Initial convergence to 1.0D-05 achieved.  Increase integral accuracy.
 SCF Done:  E(RS-VWN) =  -253.513230479     A.U. after   15 cycles
            NFock= 15  Conv=0.76D-08     -V/T= 2.0129
 Calling FoFJK, ICntrl=      2527 FMM=F ISym2X=1 I1Cent= 0 IOpClX= 0 NMat=1 NMatS=1 NMatT=0.
 ***** Axes restored to original set *****
 -------------------------------------------------------------------
 Center     Atomic                   Forces (Hartrees/Bohr)
 Number     Number              X              Y              Z
 -------------------------------------------------------------------
      1        6           0.021347821   -0.005802474    0.000000000
      2        7           0.013201499    0.008173370    0.000000000
      3        7          -0.029105070   -0.041246180    0.000000000
      4        7          -0.030879910    0.022341688    0.000000000
      5        7           0.014778500    0.025945355    0.000000000
      6        1           0.005668383   -0.000214452    0.000000000
      7        1           0.004988776   -0.009197306    0.000000000
 -------------------------------------------------------------------
 Cartesian Forces:  Max     0.041246180 RMS     0.016568436
 -----------------------------------------------------------------------------------------------
                       Internal Coordinate Forces (Hartree/Bohr or radian)
  Cent   Atom   N1       Length/X         N2         Alpha/Y        N3         Beta/Z          J
 -----------------------------------------------------------------------------------------------
         X 
         X        1   0.000000(     1)
      1  C        1   0.027654(     2)      2   0.000000(     9)
      2  N        1   0.005026(     3)      2   0.000000(    10)      3  -0.041289(    16)     0
      3  N        1   0.050465(     4)      2   0.000000(    11)      3  -0.024262(    17)     0
      4  N        1   0.035757(     5)      2   0.000000(    12)      3   0.029989(    18)     0
      5  N        1   0.027117(     6)      2   0.000000(    13)      3   0.023430(    19)     0
      6  H        3   0.005600(     7)      4  -0.001865(    14)      5   0.000000(    20)     0
      7  H        4   0.010397(     8)      5   0.002309(    15)      6   0.000000(    21)     0
 -----------------------------------------------------------------------------------------------
 Internal  Forces:  Max     0.050465317 RMS     0.020976991

 GradGradGradGradGradGradGradGradGradGradGradGradGradGradGradGradGradGrad
 Berny optimization.
 Search for a local minimum.
 Step number   2 out of a maximum of   22
 All quantities printed in internal units (Hartrees-Bohrs-Radians)
 Update second derivatives using D2CorN and points    1    2
 DE= -4.83D-02 DEPred=-5.20D-02 R= 9.30D-01
 TightC=F SS=  1.41D+00  RLast= 3.00D-01 DXNew= 5.0454D-01 9.0000D-01
 Trust test= 9.30D-01 RLast= 3.00D-01 DXMaxT set to 5.05D-01
 The second derivative matrix:
                          rn1       rn2       rn3       rn4       rch
           rn1          0.66963
           rn2          0.02632   0.68302
           rn3          0.05242   0.06633   0.58433
           rn4          0.05162   0.02445   0.14400   0.64471
           rch          0.00607   0.00027   0.00271   0.00287   0.37647
           rnh          0.01266   0.00245   0.00713   0.00694   0.00318
           an1          0.03552  -0.72528   0.06861  -0.06513   0.00750
           an2          0.72864  -0.30326  -0.70841   0.06237   0.00314
           an3         -0.02759   1.04589   0.05311  -0.58620  -0.00001
           an4          0.04016  -0.05264   0.63701  -0.11646  -0.00625
           ach          0.04306   0.00051  -0.00058   0.04984  -0.00044
           anh         -0.10145   0.05150  -0.00075  -0.00037  -0.00008
                          rnh       an1       an2       an3       an4
           rnh          0.49454
           an1          0.01465   4.53874
           an2          0.00628  -2.67595   6.02562
           an3          0.00022  -0.03268  -3.19508   4.47438
           an4         -0.01225  -0.12828  -0.06992  -1.16292   2.59000
           ach         -0.00109  -0.10789  -0.00133   0.00008   0.07591
           anh         -0.00003   0.03662  -0.09010  -0.00016  -0.00117
                          ach       anh
           ach          0.32012
           anh          0.00007   0.31991
 ITU=  1  0
     Eigenvalues ---    0.00000   0.13379   0.26543   0.33204   0.37631
     Eigenvalues ---    0.39727   0.49371   0.79829   1.21051   2.98314
     Eigenvalues ---    5.08995   9.64104
 RFO step:  Lambda=-3.59375882D-03 EMin=-1.26767369D-06
 Quartic linear search produced a step of  0.38213.
 Variable       Old X    -DE/DX   Delta X   Delta X   Delta X     New X
                                 (Linear)    (Quad)   (Total)
   rn1        2.43381   0.00503   0.03272  -0.01959   0.01313   2.44694
   rn2        2.68469   0.05047   0.06331   0.11550   0.17881   2.86350
   rn3        2.27261   0.03576   0.06355   0.03744   0.10100   2.37361
   rn4        1.87437   0.02712   0.04728  -0.08386  -0.03658   1.83779
   rch        2.06409   0.00560   0.01767   0.00390   0.02157   2.08567
   rnh        1.96744   0.01040   0.03396  -0.00462   0.02934   1.99679
   an1        1.27368  -0.04129   0.00756  -0.00184   0.00573   1.27941
   an2        2.35505  -0.02426   0.00822  -0.02398  -0.01576   2.33929
   an3        3.41438   0.02999   0.00780  -0.07021  -0.06241   3.35198
   an4        4.79820   0.02343  -0.00774  -0.03326  -0.04100   4.75721
   ach        2.16130  -0.00187  -0.00794   0.01267   0.00472   2.16603
   anh        2.11753   0.00231   0.00375  -0.02301  -0.01926   2.09826
         Item               Value     Threshold  Converged?
 Maximum Force            0.050465     0.000450     NO 
 RMS     Force            0.026577     0.000300     NO 
 Maximum Displacement     0.178814     0.001800     NO 
 RMS     Displacement     0.065359     0.001200     NO 
 Predicted change in Energy=-2.934835D-03
 GradGradGradGradGradGradGradGradGradGradGradGradGradGradGradGradGradGrad

 ---------------------------------------------------------------------------------------------------
                            Z-MATRIX (ANGSTROMS AND DEGREES)
   CD    Cent   Atom    N1       Length/X        N2       Alpha/Y        N3        Beta/Z          J
 ---------------------------------------------------------------------------------------------------
      1         X 
      2         X        1   1.000000(     1)
      3      1  C        1   1.000000(     2)      2   90.000(     9)
      4      2  N        1   1.294863(     3)      2   90.000(    10)      3   73.305(    16)      0
      5      3  N        1   1.515300(     4)      2   90.000(    11)      3  134.032(    17)      0
      6      4  N        1   1.256058(     5)      2   90.000(    12)      3  192.054(    18)      0
      7      5  N        1   0.972518(     6)      2   90.000(    13)      3  272.568(    19)      0
      8      6  H        3   1.103688(     7)      4  124.104(    14)      5  180.000(    20)      0
      9      7  H        4   1.056653(     8)      5  120.222(    15)      6  180.000(    21)      0
 ---------------------------------------------------------------------------------------------------
                         Z-Matrix orientation:                         
 ---------------------------------------------------------------------
 Center     Atomic      Atomic             Coordinates (Angstroms)
 Number     Number       Type             X           Y           Z
 ---------------------------------------------------------------------
      1         -1           0        0.000000    0.000000    0.000000
      2         -1           0        0.000000    0.000000    1.000000
      3          6           0        1.000000    0.000000    0.000000
      4          7           0        0.371995   -1.240278    0.000000
      5          7           0       -1.053215   -1.089437    0.000000
      6          7           0       -1.228362    0.262312    0.000000
      7          7           0        0.043572    0.971541    0.000000
      8          1           0        2.094866    0.139268    0.000000
      9          1           0        0.804806   -2.204223    0.000000
 ---------------------------------------------------------------------
                    Distance matrix (angstroms):
                    1          2          3          4          5
     1  X    0.000000
     2  X    1.000000   0.000000
     3  C    1.000000   1.414214   0.000000
     4  N    1.294863   1.636053   1.390209   0.000000
     5  N    1.515300   1.815526   2.324342   1.433170   0.000000
     6  N    1.256058   1.605516   2.243748   2.195204   1.363049
     7  N    0.972518   1.394916   1.363322   2.236069   2.334646
     8  H    2.099490   2.325480   1.103688   2.207132   3.379368
     9  H    2.346554   2.550748   2.212849   1.056653   2.166793
                    6          7          8          9
     6  N    0.000000
     7  N    1.456304   0.000000
     8  H    3.325505   2.213704   0.000000
     9  H    3.196494   3.265725   2.675109   0.000000
 Stoichiometry    CH2N4
 Framework group  CS[SG(CH2N4)]
 Deg. of freedom    11
 Full point group                 CS      NOp   2
 Largest Abelian subgroup         CS      NOp   2
 Largest concise Abelian subgroup C1      NOp   1
                         Standard orientation:                         
 ---------------------------------------------------------------------
 Center     Atomic      Atomic             Coordinates (Angstroms)
 Number     Number       Type             X           Y           Z
 ---------------------------------------------------------------------
      1          6           0        1.118215    0.259517    0.000000
      2          7           0        0.000000    1.085518    0.000000
      3          7           0       -1.205567    0.310544    0.000000
      4          7           0       -0.754840   -0.975826    0.000000
      5          7           0        0.700131   -1.038117    0.000000
      6          1           0        2.158960    0.626907    0.000000
      7          1           0       -0.046320    2.141155    0.000000
 ---------------------------------------------------------------------
 Rotational constants (GHZ):      9.7326941      9.2048812      4.7307161
 Standard basis: STO-3G (5D, 7F)
 There are    22 symmetry adapted cartesian basis functions of A'  symmetry.
 There are     5 symmetry adapted cartesian basis functions of A"  symmetry.
 There are    22 symmetry adapted basis functions of A'  symmetry.
 There are     5 symmetry adapted basis functions of A"  symmetry.
    27 basis functions,    81 primitive gaussians,    27 cartesian basis functions
    18 alpha electrons       18 beta electrons
       nuclear repulsion energy       158.7719652929 Hartrees.
 NAtoms=    7 NActive=    7 NUniq=    7 SFac= 1.00D+00 NAtFMM=   60 NAOKFM=F Big=F
 Integral buffers will be    131072 words long.
 Raffenetti 2 integral format.
 Two-electron integral symmetry is turned on.
 One-electron integrals computed using PRISM.
 NBasis=    27 RedAO= T EigKep=  3.33D-01  NBF=    22     5
 NBsUse=    27 1.00D-06 EigRej= -1.00D+00 NBFU=    22     5
 Initial guess from the checkpoint file:  "/tmp/rdj3/g09-23219/Gau-30467.chk"
 B after Tr=     0.000000    0.000000    0.000000
         Rot=    0.999993    0.000000    0.000000   -0.003747 Ang=  -0.43 deg.
 Initial guess orbital symmetries:
       Occupied  (A') (A') (A') (A') (A') (A') (A') (A') (A') (A')
                 (A') (A') (A") (A') (A") (A") (A') (A')
       Virtual   (A') (A') (A') (A') (A') (A') (A') (A") (A")
 ExpMin= 1.69D-01 ExpMax= 9.91D+01 ExpMxC= 9.91D+01 IAcc=1 IRadAn=         1 AccDes= 0.00D+00
 Harris functional with IExCor=  205 and IRadAn=       1 diagonalized for initial guess.
 HarFok:  IExCor=  205 AccDes= 0.00D+00 IRadAn=         1 IDoV= 1 UseB2=F ITyADJ=14
 ICtDFT=  3500011 ScaDFX=  1.000000  1.000000  1.000000  1.000000
 FoFCou: FMM=F IPFlag=           0 FMFlag=      100000 FMFlg1=           0
         NFxFlg=           0 DoJE=T BraDBF=F KetDBF=T FulRan=T
         wScrn=  0.000000 ICntrl=     500 IOpCl=  0 I1Cent=   200000004 NGrid=           0
         NMat0=    1 NMatS0=      1 NMatT0=    0 NMatD0=    1 NMtDS0=    0 NMtDT0=    0
 Petite list used in FoFCou.
 Keep J ints in memory in symmetry-blocked form, NReq=953070.
 Requested convergence on RMS density matrix=1.00D-08 within 128 cycles.
 Requested convergence on MAX density matrix=1.00D-06.
 Requested convergence on             energy=1.00D-06.
 No special actions if energy rises.
 Integral accuracy reduced to 1.0D-05 until final iterations.
 Initial convergence to 1.0D-05 achieved.  Increase integral accuracy.
 SCF Done:  E(RS-VWN) =  -253.516723620     A.U. after   14 cycles
            NFock= 14  Conv=0.38D-08     -V/T= 2.0133
 Calling FoFJK, ICntrl=      2527 FMM=F ISym2X=1 I1Cent= 0 IOpClX= 0 NMat=1 NMatS=1 NMatT=0.
 ***** Axes restored to original set *****
 -------------------------------------------------------------------
 Center     Atomic                   Forces (Hartrees/Bohr)
 Number     Number              X              Y              Z
 -------------------------------------------------------------------
      1        6          -0.011832057   -0.007387097    0.000000000
      2        7           0.007565073   -0.011646824    0.000000000
      3        7           0.011509833   -0.005770023    0.000000000
      4        7          -0.001362687    0.015182556    0.000000000
      5        7          -0.001879093    0.007924836    0.000000000
      6        1          -0.003512588   -0.000661420    0.000000000
      7        1          -0.000488481    0.002357973    0.000000000
 -------------------------------------------------------------------
 Cartesian Forces:  Max     0.015182556 RMS     0.006438317
 -----------------------------------------------------------------------------------------------
                       Internal Coordinate Forces (Hartree/Bohr or radian)
  Cent   Atom   N1       Length/X         N2         Alpha/Y        N3         Beta/Z          J
 -----------------------------------------------------------------------------------------------
         X 
         X        1   0.000000(     1)
      1  C        1  -0.015194(     2)      2   0.000000(     9)
      2  N        1   0.010460(     3)      2   0.000000(    10)      3  -0.010119(    16)     0
      3  N        1  -0.003549(     4)      2   0.000000(    11)      3  -0.035856(    17)     0
      4  N        1   0.004503(     5)      2   0.000000(    12)      3   0.034567(    18)     0
      5  N        1   0.007833(     6)      2   0.000000(    13)      3  -0.004102(    19)     0
      6  H        3  -0.003568(     7)      4  -0.000444(    14)      5   0.000000(    20)     0
      7  H        4  -0.002351(     8)      5   0.001039(    15)      6   0.000000(    21)     0
 -----------------------------------------------------------------------------------------------
 Internal  Forces:  Max     0.035855751 RMS     0.012058965

 GradGradGradGradGradGradGradGradGradGradGradGradGradGradGradGradGradGrad
 Berny optimization.
 Search for a local minimum.
 Step number   3 out of a maximum of   22
 All quantities printed in internal units (Hartrees-Bohrs-Radians)
 Update second derivatives using D2CorN and points    1    2    3
 DE= -3.49D-03 DEPred=-2.93D-03 R= 1.19D+00
 TightC=F SS=  1.41D+00  RLast= 2.26D-01 DXNew= 8.4853D-01 6.7923D-01
 Trust test= 1.19D+00 RLast= 2.26D-01 DXMaxT set to 6.79D-01
 The second derivative matrix:
                          rn1       rn2       rn3       rn4       rch
           rn1          0.66407
           rn2         -0.00354   0.63761
           rn3          0.03146   0.01518   0.53804
           rn4          0.04951  -0.01272   0.12172   0.64771
           rch          0.00296  -0.00180  -0.00159  -0.00242   0.37699
           rnh          0.00715  -0.00893  -0.00448  -0.00052   0.00288
           an1          0.04145  -0.69169   0.09087  -0.06459   0.01335
           an2          0.74272  -0.22396  -0.65590   0.06209   0.01489
           an3         -0.03141   0.97232   0.01199  -0.57328  -0.01201
           an4          0.04400  -0.05039   0.64155  -0.11186  -0.00744
           ach          0.04335   0.00511   0.00226   0.04968   0.00018
           anh         -0.09982   0.04820  -0.00115   0.00252  -0.00091
                          rnh       an1       an2       an3       an4
           rnh          0.49250
           an1          0.02382   4.54269
           an2          0.02504  -2.67308   6.01816
           an3         -0.01599  -0.04389  -3.21159   4.51653
           an4         -0.01279  -0.13561  -0.08697  -1.14725   2.59028
           ach         -0.00019  -0.10826  -0.00169  -0.00108   0.07550
           anh         -0.00065   0.03428  -0.09591   0.00725  -0.00055
                          ach       anh
           ach          0.32011
           anh         -0.00024   0.32060
 ITU=  1  1  0
     Eigenvalues ---    0.00046   0.15715   0.26868   0.32646   0.37675
     Eigenvalues ---    0.40088   0.49199   0.74063   1.21050   2.97295
     Eigenvalues ---    5.08016   9.63867
 RFO step:  Lambda=-1.89606865D-03 EMin= 4.64259673D-04
 Quartic linear search produced a step of -0.19135.
 Variable       Old X    -DE/DX   Delta X   Delta X   Delta X     New X
                                 (Linear)    (Quad)   (Total)
   rn1        2.44694   0.01046  -0.00251   0.26095   0.25844   2.70538
   rn2        2.86350  -0.00355  -0.03422   0.12365   0.08944   2.95294
   rn3        2.37361   0.00450  -0.01933  -0.06367  -0.08300   2.29061
   rn4        1.83779   0.00783   0.00700  -0.17576  -0.16876   1.66903
   rch        2.08567  -0.00357  -0.00413  -0.00453  -0.00866   2.07701
   rnh        1.99679  -0.00235  -0.00561   0.00393  -0.00169   1.99510
   an1        1.27941  -0.01012  -0.00110  -0.11065  -0.11174   1.16766
   an2        2.33929  -0.03586   0.00302  -0.19823  -0.19522   2.14408
   an3        3.35198   0.03457   0.01194  -0.20582  -0.19388   3.15810
   an4        4.75721  -0.00410   0.00784  -0.09604  -0.08820   4.66901
   ach        2.16603  -0.00044  -0.00090  -0.02820  -0.02910   2.13692
   anh        2.09826   0.00104   0.00369   0.02489   0.02857   2.12684
         Item               Value     Threshold  Converged?
 Maximum Force            0.035856     0.000450     NO 
 RMS     Force            0.015338     0.000300     NO 
 Maximum Displacement     0.258439     0.001800     NO 
 RMS     Displacement     0.131613     0.001200     NO 
 Predicted change in Energy=-1.596984D-03
 GradGradGradGradGradGradGradGradGradGradGradGradGradGradGradGradGradGrad

 ---------------------------------------------------------------------------------------------------
                            Z-MATRIX (ANGSTROMS AND DEGREES)
   CD    Cent   Atom    N1       Length/X        N2       Alpha/Y        N3        Beta/Z          J
 ---------------------------------------------------------------------------------------------------
      1         X 
      2         X        1   1.000000(     1)
      3      1  C        1   1.000000(     2)      2   90.000(     9)
      4      2  N        1   1.431623(     3)      2   90.000(    10)      3   66.902(    16)      0
      5      3  N        1   1.562630(     4)      2   90.000(    11)      3  122.846(    17)      0
      6      4  N        1   1.212137(     5)      2   90.000(    12)      3  180.946(    18)      0
      7      5  N        1   0.883212(     6)      2   90.000(    13)      3  267.515(    19)      0
      8      6  H        3   1.099107(     7)      4  122.437(    14)      5  180.000(    20)      0
      9      7  H        4   1.055761(     8)      5  121.859(    15)      6  180.000(    21)      0
 ---------------------------------------------------------------------------------------------------
                         Z-Matrix orientation:                         
 ---------------------------------------------------------------------
 Center     Atomic      Atomic             Coordinates (Angstroms)
 Number     Number       Type             X           Y           Z
 ---------------------------------------------------------------------
      1         -1           0        0.000000    0.000000    0.000000
      2         -1           0        0.000000    0.000000    1.000000
      3          6           0        1.000000    0.000000    0.000000
      4          7           0        0.561629   -1.316859    0.000000
      5          7           0       -0.847554   -1.312808    0.000000
      6          7           0       -1.211972    0.020008    0.000000
      7          7           0       -0.038300    0.882381    0.000000
      8          1           0        2.066345    0.266354    0.000000
      9          1           0        1.116309   -2.215170    0.000000
 ---------------------------------------------------------------------
                    Distance matrix (angstroms):
                    1          2          3          4          5
     1  X    0.000000
     2  X    1.000000   0.000000
     3  C    1.000000   1.414214   0.000000
     4  N    1.431623   1.746294   1.387907   0.000000
     5  N    1.562630   1.855212   2.266477   1.409189   0.000000
     6  N    1.212137   1.571393   2.212062   2.221007   1.381737
     7  N    0.883212   1.334190   1.362594   2.279598   2.339604
     8  H    2.083441   2.311001   1.099107   2.184200   3.314296
     9  H    2.480549   2.674532   2.218221   1.055761   2.161253
                    6          7          8          9
     6  N    0.000000
     7  N    1.456432   0.000000
     8  H    3.287559   2.192947   0.000000
     9  H    3.227524   3.305743   2.657165   0.000000
 Stoichiometry    CH2N4
 Framework group  CS[SG(CH2N4)]
 Deg. of freedom    11
 Full point group                 CS      NOp   2
 Largest Abelian subgroup         CS      NOp   2
 Largest concise Abelian subgroup C1      NOp   1
                         Standard orientation:                         
 ---------------------------------------------------------------------
 Center     Atomic      Atomic             Coordinates (Angstroms)
 Number     Number       Type             X           Y           Z
 ---------------------------------------------------------------------
      1          6           0        1.087053    0.244084    0.000000
      2          7           0        0.000000    1.106987    0.000000
      3          7           0       -1.177676    0.333104    0.000000
      4          7           0       -0.754062   -0.982095    0.000000
      5          7           0        0.700152   -1.062427    0.000000
      6          1           0        2.125522    0.604108    0.000000
      7          1           0       -0.026738    2.162409    0.000000
 ---------------------------------------------------------------------
 Rotational constants (GHZ):      9.7092564      9.2591228      4.7394243
 Standard basis: STO-3G (5D, 7F)
 There are    22 symmetry adapted cartesian basis functions of A'  symmetry.
 There are     5 symmetry adapted cartesian basis functions of A"  symmetry.
 There are    22 symmetry adapted basis functions of A'  symmetry.
 There are     5 symmetry adapted basis functions of A"  symmetry.
    27 basis functions,    81 primitive gaussians,    27 cartesian basis functions
    18 alpha electrons       18 beta electrons
       nuclear repulsion energy       158.9202045380 Hartrees.
 NAtoms=    7 NActive=    7 NUniq=    7 SFac= 1.00D+00 NAtFMM=   60 NAOKFM=F Big=F
 Integral buffers will be    131072 words long.
 Raffenetti 2 integral format.
 Two-electron integral symmetry is turned on.
 One-electron integrals computed using PRISM.
 NBasis=    27 RedAO= T EigKep=  3.33D-01  NBF=    22     5
 NBsUse=    27 1.00D-06 EigRej= -1.00D+00 NBFU=    22     5
 Initial guess from the checkpoint file:  "/tmp/rdj3/g09-23219/Gau-30467.chk"
 B after Tr=     0.000000    0.000000    0.000000
         Rot=    0.999992    0.000000    0.000000    0.003933 Ang=   0.45 deg.
 Initial guess orbital symmetries:
       Occupied  (A') (A') (A') (A') (A') (A') (A') (A') (A') (A')
                 (A') (A') (A") (A') (A") (A") (A') (A')
       Virtual   (A') (A') (A') (A') (A') (A') (A') (A") (A")
 ExpMin= 1.69D-01 ExpMax= 9.91D+01 ExpMxC= 9.91D+01 IAcc=1 IRadAn=         1 AccDes= 0.00D+00
 Harris functional with IExCor=  205 and IRadAn=       1 diagonalized for initial guess.
 HarFok:  IExCor=  205 AccDes= 0.00D+00 IRadAn=         1 IDoV= 1 UseB2=F ITyADJ=14
 ICtDFT=  3500011 ScaDFX=  1.000000  1.000000  1.000000  1.000000
 FoFCou: FMM=F IPFlag=           0 FMFlag=      100000 FMFlg1=           0
         NFxFlg=           0 DoJE=T BraDBF=F KetDBF=T FulRan=T
         wScrn=  0.000000 ICntrl=     500 IOpCl=  0 I1Cent=   200000004 NGrid=           0
         NMat0=    1 NMatS0=      1 NMatT0=    0 NMatD0=    1 NMtDS0=    0 NMtDT0=    0
 Petite list used in FoFCou.
 Keep J ints in memory in symmetry-blocked form, NReq=953070.
 Requested convergence on RMS density matrix=1.00D-08 within 128 cycles.
 Requested convergence on MAX density matrix=1.00D-06.
 Requested convergence on             energy=1.00D-06.
 No special actions if energy rises.
 Integral accuracy reduced to 1.0D-05 until final iterations.
 Initial convergence to 1.0D-05 achieved.  Increase integral accuracy.
 SCF Done:  E(RS-VWN) =  -253.516731462     A.U. after   13 cycles
            NFock= 13  Conv=0.95D-08     -V/T= 2.0132
 Calling FoFJK, ICntrl=      2527 FMM=F ISym2X=1 I1Cent= 0 IOpClX= 0 NMat=1 NMatS=1 NMatT=0.
 ***** Axes restored to original set *****
 -------------------------------------------------------------------
 Center     Atomic                   Forces (Hartrees/Bohr)
 Number     Number              X              Y              Z
 -------------------------------------------------------------------
      1        6           0.013188770    0.003498256    0.000000000
      2        7           0.007763644    0.009984473    0.000000000
      3        7          -0.020132778   -0.003639951    0.000000000
      4        7           0.000312334   -0.002504219    0.000000000
      5        7          -0.000756258   -0.009680570    0.000000000
      6        1           0.000756231    0.000136123    0.000000000
      7        1          -0.001131944    0.002205890    0.000000000
 -------------------------------------------------------------------
 Cartesian Forces:  Max     0.020132778 RMS     0.006444322
 -----------------------------------------------------------------------------------------------
                       Internal Coordinate Forces (Hartree/Bohr or radian)
  Cent   Atom   N1       Length/X         N2         Alpha/Y        N3         Beta/Z          J
 -----------------------------------------------------------------------------------------------
         X 
         X        1   0.000000(     1)
      1  C        1   0.013983(     2)      2   0.000000(     9)
      2  N        1  -0.008773(     3)      2   0.000000(    10)      3  -0.029516(    16)     0
      3  N        1   0.014101(     4)      2   0.000000(    11)      3   0.043883(    17)     0
      4  N        1  -0.000354(     5)      2   0.000000(    12)      3  -0.005724(    18)     0
      5  N        1  -0.009639(     6)      2   0.000000(    13)      3  -0.001962(    19)     0
      6  H        3   0.000767(     7)      4  -0.000106(    14)      5   0.000000(    20)     0
      7  H        4  -0.002472(     8)      5   0.000391(    15)      6   0.000000(    21)     0
 -----------------------------------------------------------------------------------------------
 Internal  Forces:  Max     0.043882519 RMS     0.012732958

 GradGradGradGradGradGradGradGradGradGradGradGradGradGradGradGradGradGrad
 Berny optimization.
 Search for a local minimum.
 Step number   4 out of a maximum of   22
 All quantities printed in internal units (Hartrees-Bohrs-Radians)
 Update second derivatives using D2CorN and points    2    3    4
 DE= -7.84D-06 DEPred=-1.60D-03 R= 4.91D-03
 Trust test= 4.91D-03 RLast= 4.56D-01 DXMaxT set to 3.40D-01
 The second derivative matrix:
                          rn1       rn2       rn3       rn4       rch
           rn1          0.67695
           rn2         -0.01167   0.62188
           rn3          0.03039   0.01565   0.53665
           rn4          0.05296  -0.00087   0.11977   0.63714
           rch          0.00231  -0.00220  -0.00159  -0.00216   0.37700
           rnh          0.00927  -0.00838  -0.00501  -0.00176   0.00286
           an1          0.06285  -0.66991   0.08818  -0.08506   0.01389
           an2          0.70320  -0.23592  -0.65030   0.08015   0.01538
           an3         -0.03211   0.98186   0.00953  -0.58210  -0.01193
           an4          0.04332  -0.04433   0.64152  -0.11601  -0.00719
           ach          0.04283   0.00651   0.00226   0.04869   0.00026
           anh         -0.09964   0.04694  -0.00105   0.00358  -0.00099
                          rnh       an1       an2       an3       an4
           rnh          0.49262
           an1          0.02431   4.52298
           an2          0.02227  -2.67719   6.07105
           an3         -0.01794  -0.06667  -3.18629   4.51090
           an4         -0.01344  -0.14638  -0.07466  -1.14993   2.58878
           ach         -0.00036  -0.11073   0.00176  -0.00183   0.07523
           anh         -0.00054   0.03606  -0.09838   0.00835  -0.00024
                          ach       anh
           ach          0.32009
           anh         -0.00021   0.32059
 ITU= -1  1  1  0
     Eigenvalues ---    0.00613   0.16063   0.26908   0.32600   0.37676
     Eigenvalues ---    0.40080   0.49209   0.74241   1.21068   2.97278
     Eigenvalues ---    5.07912   9.64017
 RFO step:  Lambda=-1.90998944D-04 EMin= 6.13474310D-03
 Quartic linear search produced a step of -0.46545.
 Variable       Old X    -DE/DX   Delta X   Delta X   Delta X     New X
                                 (Linear)    (Quad)   (Total)
   rn1        2.70538  -0.00877  -0.12029   0.01704  -0.10325   2.60213
   rn2        2.95294   0.01410  -0.04163   0.01742  -0.02421   2.92873
   rn3        2.29061  -0.00035   0.03863   0.00887   0.04750   2.33811
   rn4        1.66903  -0.00964   0.07855  -0.02248   0.05607   1.72510
   rch        2.07701   0.00077   0.00403  -0.00328   0.00075   2.07776
   rnh        1.99510  -0.00247   0.00078  -0.00475  -0.00396   1.99114
   an1        1.16766  -0.02952   0.05201  -0.01055   0.04146   1.20912
   an2        2.14408   0.04388   0.09086  -0.01192   0.07895   2.22302
   an3        3.15810  -0.00572   0.09024  -0.01556   0.07468   3.23278
   an4        4.66901  -0.00196   0.04105  -0.01228   0.02877   4.69778
   ach        2.13692  -0.00011   0.01355  -0.00114   0.01240   2.14933
   anh        2.12684   0.00039  -0.01330   0.00334  -0.00996   2.11688
         Item               Value     Threshold  Converged?
 Maximum Force            0.043883     0.000450     NO 
 RMS     Force            0.016353     0.000300     NO 
 Maximum Displacement     0.103248     0.001800     NO 
 RMS     Displacement     0.051049     0.001200     NO 
 Predicted change in Energy=-1.035244D-03
 GradGradGradGradGradGradGradGradGradGradGradGradGradGradGradGradGradGrad

 ---------------------------------------------------------------------------------------------------
                            Z-MATRIX (ANGSTROMS AND DEGREES)
   CD    Cent   Atom    N1       Length/X        N2       Alpha/Y        N3        Beta/Z          J
 ---------------------------------------------------------------------------------------------------
      1         X 
      2         X        1   1.000000(     1)
      3      1  C        1   1.000000(     2)      2   90.000(     9)
      4      2  N        1   1.376986(     3)      2   90.000(    10)      3   69.278(    16)      0
      5      3  N        1   1.549819(     4)      2   90.000(    11)      3  127.370(    17)      0
      6      4  N        1   1.237274(     5)      2   90.000(    12)      3  185.225(    18)      0
      7      5  N        1   0.912882(     6)      2   90.000(    13)      3  269.163(    19)      0
      8      6  H        3   1.099503(     7)      4  123.147(    14)      5  180.000(    20)      0
      9      7  H        4   1.053665(     8)      5  121.288(    15)      6  180.000(    21)      0
 ---------------------------------------------------------------------------------------------------
                         Z-Matrix orientation:                         
 ---------------------------------------------------------------------
 Center     Atomic      Atomic             Coordinates (Angstroms)
 Number     Number       Type             X           Y           Z
 ---------------------------------------------------------------------
      1         -1           0        0.000000    0.000000    0.000000
      2         -1           0        0.000000    0.000000    1.000000
      3          6           0        1.000000    0.000000    0.000000
      4          7           0        0.487232   -1.287904    0.000000
      5          7           0       -0.940675   -1.231694    0.000000
      6          7           0       -1.232134    0.112668    0.000000
      7          7           0       -0.013336    0.912784    0.000000
      8          1           0        2.077667    0.218035    0.000000
      9          1           0        0.998605   -2.209156    0.000000
 ---------------------------------------------------------------------
                    Distance matrix (angstroms):
                    1          2          3          4          5
     1  X    0.000000
     2  X    1.000000   0.000000
     3  C    1.000000   1.414214   0.000000
     4  N    1.376986   1.701791   1.386228   0.000000
     5  N    1.549819   1.844435   2.298541   1.429013   0.000000
     6  N    1.237274   1.590864   2.234975   2.217616   1.375594
     7  N    0.912882   1.354014   1.363828   2.256900   2.336396
     8  H    2.089077   2.316083   1.099503   2.190283   3.348448
     9  H    2.424373   2.622515   2.209157   1.053665   2.171691
                    6          7          8          9
     6  N    0.000000
     7  N    1.457962   0.000000
     8  H    3.311478   2.203400   0.000000
     9  H    3.219793   3.281850   2.656244   0.000000
 Stoichiometry    CH2N4
 Framework group  CS[SG(CH2N4)]
 Deg. of freedom    11
 Full point group                 CS      NOp   2
 Largest Abelian subgroup         CS      NOp   2
 Largest concise Abelian subgroup C1      NOp   1
                         Standard orientation:                         
 ---------------------------------------------------------------------
 Center     Atomic      Atomic             Coordinates (Angstroms)
 Number     Number       Type             X           Y           Z
 ---------------------------------------------------------------------
      1          6           0        1.102459    0.258376    0.000000
      2          7           0        0.000000    1.098741    0.000000
      3          7           0       -1.195367    0.315687    0.000000
      4          7           0       -0.753402   -0.986974    0.000000
      5          7           0        0.703375   -1.045755    0.000000
      6          1           0        2.138667    0.626044    0.000000
      7          1           0       -0.035659    2.151802    0.000000
 ---------------------------------------------------------------------
 Rotational constants (GHZ):      9.5793915      9.3121845      4.7219491
 Standard basis: STO-3G (5D, 7F)
 There are    22 symmetry adapted cartesian basis functions of A'  symmetry.
 There are     5 symmetry adapted cartesian basis functions of A"  symmetry.
 There are    22 symmetry adapted basis functions of A'  symmetry.
 There are     5 symmetry adapted basis functions of A"  symmetry.
    27 basis functions,    81 primitive gaussians,    27 cartesian basis functions
    18 alpha electrons       18 beta electrons
       nuclear repulsion energy       158.6246890283 Hartrees.
 NAtoms=    7 NActive=    7 NUniq=    7 SFac= 1.00D+00 NAtFMM=   60 NAOKFM=F Big=F
 Integral buffers will be    131072 words long.
 Raffenetti 2 integral format.
 Two-electron integral symmetry is turned on.
 One-electron integrals computed using PRISM.
 NBasis=    27 RedAO= T EigKep=  3.32D-01  NBF=    22     5
 NBsUse=    27 1.00D-06 EigRej= -1.00D+00 NBFU=    22     5
 Initial guess from the checkpoint file:  "/tmp/rdj3/g09-23219/Gau-30467.chk"
 B after Tr=     0.000000    0.000000    0.000000
         Rot=    0.999993    0.000000    0.000000   -0.003861 Ang=  -0.44 deg.
 Initial guess orbital symmetries:
       Occupied  (A') (A') (A') (A') (A') (A') (A') (A') (A') (A')
                 (A') (A') (A") (A') (A") (A") (A') (A')
       Virtual   (A') (A') (A') (A') (A') (A') (A') (A") (A")
 ExpMin= 1.69D-01 ExpMax= 9.91D+01 ExpMxC= 9.91D+01 IAcc=1 IRadAn=         1 AccDes= 0.00D+00
 Harris functional with IExCor=  205 and IRadAn=       1 diagonalized for initial guess.
 HarFok:  IExCor=  205 AccDes= 0.00D+00 IRadAn=         1 IDoV= 1 UseB2=F ITyADJ=14
 ICtDFT=  3500011 ScaDFX=  1.000000  1.000000  1.000000  1.000000
 FoFCou: FMM=F IPFlag=           0 FMFlag=      100000 FMFlg1=           0
         NFxFlg=           0 DoJE=T BraDBF=F KetDBF=T FulRan=T
         wScrn=  0.000000 ICntrl=     500 IOpCl=  0 I1Cent=   200000004 NGrid=           0
         NMat0=    1 NMatS0=      1 NMatT0=    0 NMatD0=    1 NMtDS0=    0 NMtDT0=    0
 Petite list used in FoFCou.
 Keep J ints in memory in symmetry-blocked form, NReq=953070.
 Requested convergence on RMS density matrix=1.00D-08 within 128 cycles.
 Requested convergence on MAX density matrix=1.00D-06.
 Requested convergence on             energy=1.00D-06.
 No special actions if energy rises.
 Integral accuracy reduced to 1.0D-05 until final iterations.
 Initial convergence to 1.0D-05 achieved.  Increase integral accuracy.
 SCF Done:  E(RS-VWN) =  -253.517520848     A.U. after   13 cycles
            NFock= 13  Conv=0.74D-08     -V/T= 2.0132
 Calling FoFJK, ICntrl=      2527 FMM=F ISym2X=1 I1Cent= 0 IOpClX= 0 NMat=1 NMatS=1 NMatT=0.
 ***** Axes restored to original set *****
 -------------------------------------------------------------------
 Center     Atomic                   Forces (Hartrees/Bohr)
 Number     Number              X              Y              Z
 -------------------------------------------------------------------
      1        6          -0.002111051   -0.001688883    0.000000000
      2        7           0.000739860    0.000949273    0.000000000
      3        7          -0.000537944   -0.002432158    0.000000000
      4        7           0.004508183    0.002391567    0.000000000
      5        7          -0.002332564    0.000400041    0.000000000
      6        1           0.000033070    0.000322134    0.000000000
      7        1          -0.000299553    0.000058026    0.000000000
 -------------------------------------------------------------------
 Cartesian Forces:  Max     0.004508183 RMS     0.001492909
 -----------------------------------------------------------------------------------------------
                       Internal Coordinate Forces (Hartree/Bohr or radian)
  Cent   Atom   N1       Length/X         N2         Alpha/Y        N3         Beta/Z          J
 -----------------------------------------------------------------------------------------------
         X 
         X        1   0.000000(     1)
      1  C        1  -0.002306(     2)      2   0.000000(     9)
      2  N        1  -0.000462(     3)      2   0.000000(    10)      3  -0.002295(    16)     0
      3  N        1   0.002118(     4)      2   0.000000(    11)      3  -0.002781(    17)     0
      4  N        1  -0.004272(     5)      2   0.000000(    12)      3   0.006528(    18)     0
      5  N        1   0.000434(     6)      2   0.000000(    13)      3  -0.004013(    19)     0
      6  H        3   0.000096(     7)      4   0.000642(    14)      5   0.000000(    20)     0
      7  H        4  -0.000196(     8)      5  -0.000465(    15)      6   0.000000(    21)     0
 -----------------------------------------------------------------------------------------------
 Internal  Forces:  Max     0.006528359 RMS     0.002191526

 GradGradGradGradGradGradGradGradGradGradGradGradGradGradGradGradGradGrad
 Berny optimization.
 Search for a local minimum.
 Step number   5 out of a maximum of   22
 All quantities printed in internal units (Hartrees-Bohrs-Radians)
 Update second derivatives using D2CorN and points    1    2    3    4    5

 DE= -7.89D-04 DEPred=-1.04D-03 R= 7.63D-01
 TightC=F SS=  1.41D+00  RLast= 1.77D-01 DXNew= 5.7116D-01 5.3052D-01
 Trust test= 7.63D-01 RLast= 1.77D-01 DXMaxT set to 5.31D-01
 The second derivative matrix:
                          rn1       rn2       rn3       rn4       rch
           rn1          0.68666
           rn2         -0.00992   0.62158
           rn3          0.02964   0.02267   0.55211
           rn4          0.05870   0.00377   0.12164   0.63390
           rch          0.00287  -0.00067   0.00030  -0.00163   0.37741
           rnh          0.01206  -0.00507  -0.00181  -0.00084   0.00360
           an1          0.06870  -0.66095   0.09232  -0.09136   0.01452
           an2          0.68067  -0.23328  -0.63522   0.08646   0.01658
           an3         -0.02144   0.97806   0.00043  -0.58863  -0.01249
           an4          0.03718  -0.04298   0.64381  -0.11745  -0.00762
           ach          0.04251   0.00595   0.00148   0.04745   0.00015
           anh         -0.09953   0.04665  -0.00101   0.00461  -0.00107
                          rnh       an1       an2       an3       an4
           rnh          0.49417
           an1          0.02515   4.51790
           an2          0.02213  -2.67323   6.10080
           an3         -0.01860  -0.07741  -3.18293   4.49906
           an4         -0.01501  -0.14848  -0.06713  -1.14902   2.58961
           ach         -0.00073  -0.11172   0.00393  -0.00417   0.07602
           anh         -0.00049   0.03674  -0.10084   0.01082  -0.00070
                          ach       anh
           ach          0.31999
           anh         -0.00010   0.32052
 ITU=  1 -1  1  1  0
     Eigenvalues ---    0.00562   0.17913   0.26940   0.32888   0.37707
     Eigenvalues ---    0.40366   0.49362   0.75400   1.21099   2.97261
     Eigenvalues ---    5.07651   9.64222
 RFO step:  Lambda=-5.47377059D-05 EMin= 5.61971355D-03
 Quartic linear search produced a step of -0.06693.
 Variable       Old X    -DE/DX   Delta X   Delta X   Delta X     New X
                                 (Linear)    (Quad)   (Total)
   rn1        2.60213  -0.00046   0.00691  -0.00503   0.00188   2.60401
   rn2        2.92873   0.00212   0.00162  -0.00055   0.00107   2.92980
   rn3        2.33811  -0.00427  -0.00318  -0.01027  -0.01345   2.32466
   rn4        1.72510   0.00043  -0.00375   0.00753   0.00378   1.72888
   rch        2.07776   0.00010  -0.00005   0.00053   0.00048   2.07824
   rnh        1.99114  -0.00020   0.00027  -0.00049  -0.00022   1.99091
   an1        1.20912  -0.00229  -0.00277   0.00140  -0.00137   1.20775
   an2        2.22302  -0.00278  -0.00528   0.00286  -0.00243   2.22060
   an3        3.23278   0.00653  -0.00500   0.00541   0.00041   3.23319
   an4        4.69778  -0.00401  -0.00193   0.00398   0.00205   4.69983
   ach        2.14933   0.00064  -0.00083   0.00102   0.00019   2.14952
   anh        2.11688  -0.00047   0.00067  -0.00232  -0.00165   2.11523
         Item               Value     Threshold  Converged?
 Maximum Force            0.006528     0.000450     NO 
 RMS     Force            0.002822     0.000300     NO 
 Maximum Displacement     0.013449     0.001800     NO 
 RMS     Displacement     0.004233     0.001200     NO 
 Predicted change in Energy=-3.423995D-05
 GradGradGradGradGradGradGradGradGradGradGradGradGradGradGradGradGradGrad

 ---------------------------------------------------------------------------------------------------
                            Z-MATRIX (ANGSTROMS AND DEGREES)
   CD    Cent   Atom    N1       Length/X        N2       Alpha/Y        N3        Beta/Z          J
 ---------------------------------------------------------------------------------------------------
      1         X 
      2         X        1   1.000000(     1)
      3      1  C        1   1.000000(     2)      2   90.000(     9)
      4      2  N        1   1.377980(     3)      2   90.000(    10)      3   69.199(    16)      0
      5      3  N        1   1.550385(     4)      2   90.000(    11)      3  127.231(    17)      0
      6      4  N        1   1.230158(     5)      2   90.000(    12)      3  185.248(    18)      0
      7      5  N        1   0.914883(     6)      2   90.000(    13)      3  269.281(    19)      0
      8      6  H        3   1.099756(     7)      4  123.158(    14)      5  180.000(    20)      0
      9      7  H        4   1.053547(     8)      5  121.194(    15)      6  180.000(    21)      0
 ---------------------------------------------------------------------------------------------------
                         Z-Matrix orientation:                         
 ---------------------------------------------------------------------
 Center     Atomic      Atomic             Coordinates (Angstroms)
 Number     Number       Type             X           Y           Z
 ---------------------------------------------------------------------
      1         -1           0        0.000000    0.000000    0.000000
      2         -1           0        0.000000    0.000000    1.000000
      3          6           0        1.000000    0.000000    0.000000
      4          7           0        0.489353   -1.288163    0.000000
      5          7           0       -0.938025   -1.234424    0.000000
      6          7           0       -1.225000    0.112525    0.000000
      7          7           0       -0.011487    0.914811    0.000000
      8          1           0        2.077548    0.219896    0.000000
      9          1           0        1.000729   -2.209279    0.000000
 ---------------------------------------------------------------------
                    Distance matrix (angstroms):
                    1          2          3          4          5
     1  X    0.000000
     2  X    1.000000   0.000000
     3  C    1.000000   1.414214   0.000000
     4  N    1.377980   1.702595   1.385685   0.000000
     5  N    1.550385   1.844910   2.297769   1.428389   0.000000
     6  N    1.230158   1.585335   2.227844   2.213805   1.377181
     7  N    0.914883   1.355364   1.363813   2.259189   2.340445
     8  H    2.089153   2.316152   1.099756   2.190115   3.347944
     9  H    2.425360   2.623427   2.209279   1.053547   2.170048
                    6          7          8          9
     6  N    0.000000
     7  N    1.454743   0.000000
     8  H    3.304293   2.201584   0.000000
     9  H    3.216309   3.283979   2.657147   0.000000
 Stoichiometry    CH2N4
 Framework group  CS[SG(CH2N4)]
 Deg. of freedom    11
 Full point group                 CS      NOp   2
 Largest Abelian subgroup         CS      NOp   2
 Largest concise Abelian subgroup C1      NOp   1
                         Standard orientation:                         
 ---------------------------------------------------------------------
 Center     Atomic      Atomic             Coordinates (Angstroms)
 Number     Number       Type             X           Y           Z
 ---------------------------------------------------------------------
      1          6           0        1.100337    0.256258    0.000000
      2          7           0        0.000000    1.098507    0.000000
      3          7           0       -1.196591    0.318464    0.000000
      4          7           0       -0.750124   -0.984339    0.000000
      5          7           0        0.703205   -1.048453    0.000000
      6          1           0        2.137589    0.621731    0.000000
      7          1           0       -0.035042    2.151470    0.000000
 ---------------------------------------------------------------------
 Rotational constants (GHZ):      9.6103892      9.2980815      4.7258281
 Standard basis: STO-3G (5D, 7F)
 There are    22 symmetry adapted cartesian basis functions of A'  symmetry.
 There are     5 symmetry adapted cartesian basis functions of A"  symmetry.
 There are    22 symmetry adapted basis functions of A'  symmetry.
 There are     5 symmetry adapted basis functions of A"  symmetry.
    27 basis functions,    81 primitive gaussians,    27 cartesian basis functions
    18 alpha electrons       18 beta electrons
       nuclear repulsion energy       158.6865574566 Hartrees.
 NAtoms=    7 NActive=    7 NUniq=    7 SFac= 1.00D+00 NAtFMM=   60 NAOKFM=F Big=F
 Integral buffers will be    131072 words long.
 Raffenetti 2 integral format.
 Two-electron integral symmetry is turned on.
 One-electron integrals computed using PRISM.
 NBasis=    27 RedAO= T EigKep=  3.32D-01  NBF=    22     5
 NBsUse=    27 1.00D-06 EigRej= -1.00D+00 NBFU=    22     5
 Initial guess from the checkpoint file:  "/tmp/rdj3/g09-23219/Gau-30467.chk"
 B after Tr=     0.000000    0.000000    0.000000
         Rot=    1.000000    0.000000    0.000000    0.000402 Ang=   0.05 deg.
 Initial guess orbital symmetries:
       Occupied  (A') (A') (A') (A') (A') (A') (A') (A') (A') (A')
                 (A') (A') (A") (A') (A") (A") (A') (A')
       Virtual   (A') (A') (A') (A') (A') (A') (A') (A") (A")
 Keep J ints in memory in symmetry-blocked form, NReq=953070.
 Requested convergence on RMS density matrix=1.00D-08 within 128 cycles.
[...]
  XXX=              8.8007  YYY=             20.2862  ZZZ=              0.0000  XYY=             -0.5360
  XXY=              3.8106  XXZ=              0.0000  XZZ=             -1.1227  YZZ=             -0.3292
  YYZ=              0.0000  XYZ=              0.0000
 Hexadecapole moment (field-independent basis, Debye-Ang**3):
 XXXX=           -139.3398 YYYY=           -114.3321 ZZZZ=            -17.4754 XXXY=              6.3705
 XXXZ=              0.0000 YYYX=             -0.7982 YYYZ=              0.0000 ZZZX=              0.0000
 ZZZY=              0.0000 XXYY=            -51.2824 XXZZ=            -27.8273 YYZZ=            -26.2194
 XXYZ=              0.0000 YYXZ=              0.0000 ZZXY=             -0.4698
 N-N= 1.587173040556D+02 E-N=-9.109688469450D+02  KE= 2.502067945598D+02
 Symmetry A'   KE= 2.403611878934D+02
 Symmetry A"   KE= 9.845606666446D+00
  Exact polarizability:  24.965   1.176  25.665   0.000   0.000   6.236
 Approx polarizability:  72.402  -2.132  83.418   0.000   0.000  10.962
 Calling FoFJK, ICntrl=    100527 FMM=F ISym2X=1 I1Cent= 0 IOpClX= 0 NMat=1 NMatS=1 NMatT=0.
 Full mass-weighted force constant matrix:
 Low frequencies ---  -15.0453  -14.6906   -0.0009   -0.0008   -0.0008    7.1057
 Low frequencies ---  515.4012  631.9203  648.8320
 Diagonal vibrational polarizability:
        1.1829100       0.7427663      10.1895959
 Harmonic frequencies (cm**-1), IR intensities (KM/Mole), Raman scattering
 activities (A**4/AMU), depolarization ratios for plane and unpolarized
 incident light, reduced masses (AMU), force constants (mDyne/A),
 and normal coordinates:
                      1                      2                      3
                     A"                     A"                     A"
 Frequencies --    515.4009               631.9203               648.8320
 Red. masses --      1.9972                 1.9437                 7.3156
 Frc consts  --      0.3126                 0.4573                 1.8145
 IR Inten    --     76.7611                17.5461                 9.7175
  Atom  AN      X      Y      Z        X      Y      Z        X      Y      Z
     1   6     0.00   0.00  -0.09     0.00   0.00   0.18     0.00   0.00  -0.17
     2   7     0.00   0.00   0.23     0.00   0.00  -0.10     0.00   0.00  -0.04
     3   7     0.00   0.00  -0.12     0.00   0.00   0.11     0.00   0.00   0.35
     4   7     0.00   0.00   0.04     0.00   0.00   0.01     0.00   0.00  -0.46
     5   7     0.00   0.00   0.01     0.00   0.00  -0.15     0.00   0.00   0.35
     6   1     0.00   0.00  -0.22     0.00   0.00   0.43     0.00   0.00  -0.11
     7   1     0.00   0.00  -0.94     0.00   0.00  -0.86     0.00   0.00  -0.71
                      4                      5                      6
                     A"                     A'                     A'
 Frequencies --    807.2159               887.1563               930.3561
 Red. masses --      1.2789                 5.4272                 4.8959
 Frc consts  --      0.4910                 2.5167                 2.4968
 IR Inten    --     14.7564                 0.5776                 0.2276
  Atom  AN      X      Y      Z        X      Y      Z        X      Y      Z
     1   6     0.00   0.00  -0.15     0.10   0.11   0.00    -0.30  -0.04   0.00
     2   7     0.00   0.00   0.02     0.10   0.03   0.00     0.07   0.39   0.00
     3   7     0.00   0.00   0.00     0.18  -0.13   0.00     0.05  -0.14   0.00
     4   7     0.00   0.00   0.03     0.05  -0.20   0.00     0.13  -0.05   0.00
     5   7     0.00   0.00   0.01    -0.40   0.24   0.00    -0.01  -0.15   0.00
     6   1     0.00   0.00   0.99     0.34  -0.56   0.00    -0.15  -0.51   0.00
     7   1     0.00   0.00   0.05    -0.48   0.01   0.00     0.47   0.42   0.00
                      7                      8                      9
                     A'                     A'                     A'
 Frequencies --    994.1673              1012.3820              1106.2215
 Red. masses --      3.9536                 4.6183                 1.7133
 Frc consts  --      2.3023                 2.7888                 1.2353
 IR Inten    --     16.0768                14.6924                 6.1064
  Atom  AN      X      Y      Z        X      Y      Z        X      Y      Z
     1   6    -0.01   0.01   0.00     0.15   0.07   0.00     0.05  -0.08   0.00
     2   7     0.03  -0.13   0.00     0.19   0.07   0.00    -0.06   0.01   0.00
     3   7    -0.25   0.05   0.00    -0.28  -0.22   0.00    -0.06  -0.06   0.00
     4   7     0.34   0.05   0.00    -0.23  -0.03   0.00     0.07   0.17   0.00
     5   7    -0.17   0.03   0.00     0.11   0.13   0.00     0.03  -0.01   0.00
     6   1    -0.01   0.00   0.00     0.32  -0.34   0.00     0.29  -0.75   0.00
     7   1     0.87  -0.11   0.00     0.70   0.10   0.00    -0.55   0.00   0.00
                     10                     11                     12
                     A'                     A'                     A'
 Frequencies --   1156.9988              1213.9171              1427.6555
 Red. masses --      4.7253                 2.9325                 3.7414
 Frc consts  --      3.7269                 2.5460                 4.4929
 IR Inten    --      2.7389                 4.1426                20.9452
  Atom  AN      X      Y      Z        X      Y      Z        X      Y      Z
     1   6     0.08  -0.04   0.00     0.19   0.08   0.00    -0.27   0.14   0.00
     2   7    -0.09   0.09   0.00     0.07   0.14   0.00     0.31  -0.13   0.00
     3   7    -0.14   0.33   0.00    -0.14  -0.01   0.00    -0.09   0.06   0.00
     4   7     0.03  -0.35   0.00     0.05  -0.02   0.00     0.01  -0.02   0.00
     5   7     0.12   0.01   0.00    -0.10  -0.23   0.00     0.07   0.00   0.00
     6   1     0.34  -0.75   0.00     0.04   0.64   0.00    -0.18  -0.25   0.00
     7   1    -0.12   0.11   0.00    -0.65   0.13   0.00    -0.80  -0.21   0.00
                     13                     14                     15
                     A'                     A'                     A'
 Frequencies --   1453.0700              3473.8732              3667.2252
 Red. masses --      3.8902                 1.1005                 1.0867
 Frc consts  --      4.8394                 7.8248                 8.6109
 IR Inten    --     21.9720                44.5690                77.1339
  Atom  AN      X      Y      Z        X      Y      Z        X      Y      Z
     1   6     0.01   0.40   0.00     0.09   0.03   0.00     0.01   0.00   0.00
     2   7    -0.10  -0.10   0.00     0.00   0.00   0.00    -0.01   0.08   0.00
     3   7     0.09   0.01   0.00     0.00   0.00   0.00     0.00   0.00   0.00
     4   7    -0.05   0.03   0.00     0.00   0.00   0.00     0.00   0.00   0.00
     5   7    -0.01  -0.24   0.00     0.00   0.00   0.00     0.00   0.00   0.00
     6   1     0.39  -0.61   0.00    -0.94  -0.33   0.00    -0.06  -0.02   0.00
     7   1     0.46  -0.09   0.00     0.00   0.07   0.00     0.04  -0.99   0.00

 -------------------
 - Thermochemistry -
 -------------------
 Temperature   298.150 Kelvin.  Pressure   1.00000 Atm.
 Atom     1 has atomic number  6 and mass  12.00000
 Atom     2 has atomic number  7 and mass  14.00307
 Atom     3 has atomic number  7 and mass  14.00307
 Atom     4 has atomic number  7 and mass  14.00307
 Atom     5 has atomic number  7 and mass  14.00307
 Atom     6 has atomic number  1 and mass   1.00783
 Atom     7 has atomic number  1 and mass   1.00783
 Molecular mass:    70.02795 amu.
 Principal axes and moments of inertia in atomic units:
                           1         2         3
     Eigenvalues --   188.09937 193.60959 381.70896
           X            0.87209   0.48934   0.00000
           Y           -0.48934   0.87209   0.00000
           Z            0.00000   0.00000   1.00000
 This molecule is an asymmetric top.
 Rotational symmetry number  1.
 Rotational temperatures (Kelvin)      0.46047     0.44736     0.22691
 Rotational constants (GHZ):           9.59462     9.32155     4.72806
 Zero-point vibrational energy     119186.3 (Joules/Mol)
                                   28.48621 (Kcal/Mol)
 Warning -- explicit consideration of   1 degrees of freedom as
           vibrations may cause significant error
 Vibrational temperatures:    741.55   909.19   933.52  1161.40  1276.42
          (Kelvin)           1338.57  1430.38  1456.59  1591.60  1664.66
                             1746.55  2054.08  2090.64  4998.12  5276.31
 
 Zero-point correction=                           0.045396 (Hartree/Particle)
 Thermal correction to Energy=                    0.049046
 Thermal correction to Enthalpy=                  0.049990
 Thermal correction to Gibbs Free Energy=         0.019093
 Sum of electronic and zero-point Energies=           -253.472167
 Sum of electronic and thermal Energies=              -253.468517
 Sum of electronic and thermal Enthalpies=            -253.467572
 Sum of electronic and thermal Free Energies=         -253.498470
 
                     E (Thermal)             CV                S
                      KCal/Mol        Cal/Mol-Kelvin    Cal/Mol-Kelvin
 Total                   30.777             12.327             65.029
 Electronic               0.000              0.000              0.000
 Translational            0.889              2.981             38.656
 Rotational               0.889              2.981             24.145
 Vibrational             28.999              6.365              2.228
 Vibration     1          0.870              1.216              0.621
                       Q            Log10(Q)             Ln(Q)
 Total Bot       0.165183D-08         -8.782034        -20.221381
 Total V=0       0.125452D+13         12.098476         27.857770
 Vib (Bot)       0.169916D-20        -20.769766        -47.824154
 Vib (Bot)    1  0.314500D+00         -0.502380         -1.156772
 Vib (V=0)       0.129046D+01          0.110744          0.254997
 Vib (V=0)    1  0.109069D+01          0.037700          0.086807
 Electronic      0.100000D+01          0.000000          0.000000
 Translational   0.230336D+08          7.362362         16.952466
 Rotational      0.422056D+05          4.625370         10.650307
 ***** Axes restored to original set *****
 -------------------------------------------------------------------
 Center     Atomic                   Forces (Hartrees/Bohr)
 Number     Number              X              Y              Z
 -------------------------------------------------------------------
      1        6           0.000051549    0.000059130    0.000000000
      2        7          -0.000066154   -0.000004098    0.000000000
      3        7           0.000079793   -0.000103050    0.000000000
      4        7          -0.000026584    0.000102930    0.000000000
      5        7          -0.000042937   -0.000048915    0.000000000
      6        1           0.000000837   -0.000005254    0.000000000
      7        1           0.000003496   -0.000000743    0.000000000
 -------------------------------------------------------------------
 Cartesian Forces:  Max     0.000103050 RMS     0.000045309
 -----------------------------------------------------------------------------------------------
                       Internal Coordinate Forces (Hartree/Bohr or radian)
  Cent   Atom   N1       Length/X         N2         Alpha/Y        N3         Beta/Z          J
 -----------------------------------------------------------------------------------------------
         X 
         X        1   0.000000(     1)
      1  C        1   0.000056(     2)      2   0.000000(     9)
      2  N        1  -0.000022(     3)      2   0.000000(    10)      3   0.000162(    16)     0
      3  N        1   0.000034(     4)      2   0.000000(    11)      3  -0.000372(    17)     0
      4  N        1   0.000037(     5)      2   0.000000(    12)      3   0.000232(    18)     0
      5  N        1  -0.000049(     6)      2   0.000000(    13)      3  -0.000075(    19)     0
      6  H        3   0.000000(     7)      4  -0.000011(    14)      5   0.000000(    20)     0
      7  H        4   0.000002(     8)      5   0.000005(    15)      6   0.000000(    21)     0
 -----------------------------------------------------------------------------------------------
 Internal  Forces:  Max     0.000371675 RMS     0.000105237

 GradGradGradGradGradGradGradGradGradGradGradGradGradGradGradGradGradGrad
 Berny optimization.
 Search for a local minimum.
 Step number   1 out of a maximum of    2
 All quantities printed in internal units (Hartrees-Bohrs-Radians)
 Second derivative matrix not updated -- analytic derivatives used.
 The second derivative matrix:
                          rn1       rn2       rn3       rn4       rch
           rn1          0.55894
           rn2         -0.03505   0.49040
           rn3          0.04853  -0.03191   0.45835
           rn4          0.09129   0.05935   0.00334   0.48443
           rch         -0.00752  -0.00324  -0.00009  -0.00512   0.42199
           rnh          0.00189  -0.00861  -0.00035  -0.00131   0.00103
           an1          0.17435  -0.38816  -0.20101   0.14039   0.00641
           an2          0.24754   0.00116  -0.30870  -0.17913  -0.00156
           an3          0.21942   0.39363   0.14753  -0.19294  -0.00276
           an4         -0.11672   0.13849   0.25136  -0.16942  -0.00583
           ach          0.03534   0.01058  -0.01199   0.02707   0.00200
           anh         -0.05852   0.01093   0.02603  -0.01988   0.00137
                          rnh       an1       an2       an3       an4
           rnh          0.47588
           an1         -0.01704   2.93015
           an2          0.00480  -1.27377   3.15924
           an3          0.00003  -0.35533  -1.35934   2.08707
           an4         -0.00111  -0.25079  -0.16928  -0.29601   1.21587
           ach         -0.00048   0.01556  -0.03152  -0.00921   0.07806
           anh         -0.00269   0.00552  -0.05256   0.00937  -0.00256
                          ach       anh
           ach          0.20770
           anh          0.00115   0.19259
 ITU=  0
     Eigenvalues ---   -0.00019   0.14188   0.19679   0.25191   0.42153
     Eigenvalues ---    0.47438   0.52412   0.59836   0.78992   1.58771
     Eigenvalues ---    3.06771   4.62849
 Eigenvalue     1 is  -1.92D-04 should be greater than     0.000000 Eigenvector:
                          rn4       an3       rn1       rn2       an2
   1                    0.47571   0.45544  -0.44566  -0.37576   0.35218
                          an4       an1       rn3       anh       rch
   1                    0.25433   0.18752   0.05089   0.00009  -0.00009
 Angle between quadratic step and forces=  85.38 degrees.
 Linear search not attempted -- first point.
 Variable       Old X    -DE/DX   Delta X   Delta X   Delta X     New X
                                 (Linear)    (Quad)   (Total)
   rn1        2.58945  -0.00002   0.00000   0.08861   0.08861   2.67806
   rn2        2.91767   0.00003   0.00000   0.07489   0.07489   2.99256
   rn3        2.32752   0.00004   0.00000  -0.00999  -0.00999   2.31752
   rn4        1.74019  -0.00005   0.00000  -0.09481  -0.09481   1.64538
   rch        2.07803   0.00000   0.00000   0.00001   0.00001   2.07804
   rnh        1.99064   0.00000   0.00000   0.00000   0.00000   1.99064
   an1        1.21213   0.00016   0.00000  -0.03726  -0.03726   1.17486
   an2        2.23129  -0.00037   0.00000  -0.07016  -0.07016   2.16112
   an3        3.24819   0.00023   0.00000  -0.09061  -0.09061   3.15758
   an4        4.70411  -0.00008   0.00000  -0.05073  -0.05073   4.65338
   ach        2.15199  -0.00001   0.00000   0.00002   0.00002   2.15202
   anh        2.11566   0.00001   0.00000  -0.00008  -0.00008   2.11558
         Item               Value     Threshold  Converged?
 Maximum Force            0.000372     0.000450     YES
 RMS     Force            0.000138     0.000300     YES
 Maximum Displacement     0.094807     0.001800     NO 
 RMS     Displacement     0.057477     0.001200     NO 
 Predicted change in Energy=-1.145871D-05
 GradGradGradGradGradGradGradGradGradGradGradGradGradGradGradGradGradGrad

 1\1\GINC-N366\Freq\RSVWN\STO-3G\C1H2N4\RDJ3\25-Nov-2013\1\\#N Geom=All
 Check Guess=TCheck SCRF=Check GenChk RSVWN/STO-3G Freq\\1H-tetrazole C
 H2N4 casno=288948 state=1 config=1 method=51 basis=20\\0,1\X\X,1,1.\C,
 1,1.,2,90.\N,1,rn1,2,90.,3,an1,0\N,1,rn2,2,90.,3,an2,0\N,1,rn3,2,90.,3
 ,an3,0\N,1,rn4,2,90.,3,an4,0\H,3,rch,4,ach,5,180.,0\H,4,rnh,5,anh,6,18
 0.,0\\rn1=1.37027552\rn2=1.54396378\rn3=1.23166908\rn4=0.92086992\rch=
 1.09964397\rnh=1.05339939\an1=69.44967011\an2=127.84323559\an3=186.107
 42269\an4=269.52572276\ach=123.30017676\anh=121.21849418\\Version=EM64
 L-G09RevD.01\State=1-A'\HF=-253.5175627\RMSD=6.721e-09\RMSF=4.531e-05\
 ZeroPoint=0.0453957\Thermal=0.049046\Dipole=1.6123356,-1.0933109,0.\Di
 poleDeriv=-0.0357694,0.1184896,0.,-0.1485201,0.1610586,0.,0.,0.,0.0616
 798,-0.3666916,0.111338,0.,0.1526153,-0.2748829,0.,0.,0.,-0.1782391,0.
 220409,-0.170199,0.,0.0251735,-0.0986715,0.,0.,0.,-0.0640391,0.1691223
 ,-0.0624307,0.,-0.0200513,-0.1855835,0.,0.,0.,-0.1471779,-0.4080977,-0
 .0265675,0.,-0.0465522,0.0033988,0.,0.,0.,-0.1569626,0.2171509,0.02458
 07,0.,0.0554381,0.1292712,0.,0.,0.,0.1438624,0.2038765,0.004789,0.,-0.
 0181034,0.2654092,0.,0.,0.,0.3408764\Polar=26.1769829,-0.8726097,24.45
 31026,0.,0.,6.2362756\PG=CS [SG(C1H2N4)]\NImag=0\\0.95039990,0.0657984
 8,0.61781257,0.,0.,0.11678530,-0.14439644,-0.05772083,0.,0.59188281,-0
 .12177631,-0.32174870,0.,-0.13749268,0.95809498,0.,0.,-0.04963904,0.,0
 .,0.07043485,-0.07100932,-0.10042859,0.,-0.23463762,-0.03830254,0.,0.4
 1664921,0.00474855,-0.02034742,0.,-0.01601348,-0.08748799,0.,0.0615130
 9,0.45693167,0.,0.,0.01613678,0.,0.,-0.04914570,0.,0.,0.08386424,-0.11
 102765,0.05294035,0.,-0.07242160,0.02840086,0.,-0.09718327,0.00280062,
 0.,0.44410124,-0.03715133,0.01474874,0.,0.09610390,-0.07403241,0.,0.06
 509259,-0.25662449,0.,-0.06972568,0.39948891,0.,0.,0.01362937,0.,0.,0.
 01689186,0.,0.,-0.07191601,0.,0.,0.09507316,-0.23472001,0.12725191,0.,
 0.01380074,0.08985273,0.,-0.02261725,-0.08308166,0.,-0.15129603,-0.056
 61902,0.,0.40315404,0.13540617,-0.22709746,0.,-0.01848519,-0.08889845,
 0.,0.01155536,-0.09257424,0.,-0.01339725,-0.08253958,0.,-0.09805453,0.
 48280912,0.,0.,-0.06311769,0.,0.,0.01904757,0.,0.,0.02684427,0.,0.,-0.
 07002777,0.,0.,0.08704452,-0.40166549,-0.07472402,0.,-0.00033471,0.007
 01471,0.,0.00219208,0.00405053,0.,-0.00111795,-0.00067462,0.,-0.007444
 61,-0.00762998,0.,0.40732288,-0.06721209,-0.06408464,0.,-0.03301094,-0
 .00181564,0.,0.00144903,-0.00633364,0.,0.00541982,-0.00269210,0.,0.020
 41652,0.01194216,0.,0.07259182,0.06276641,0.,0.,-0.02575085,0.,0.,-0.0
 0245742,0.,0.,0.00457216,0.,0.,0.00914369,0.,0.,-0.00548707,0.,0.,0.02
 079572,0.01241901,-0.01311729,0.,-0.15389317,0.17230324,0.,0.00660616,
 0.02598235,0.,-0.01105474,0.00297418,0.,-0.00087688,-0.00939458,0.,0.0
 0104780,0.00034583,0.,0.14575182,0.02018653,0.00071691,0.,0.16661923,-
 0.38411180,0.,-0.00087894,0.00643611,0.,-0.00643871,0.00165094,0.,0.00
 023405,-0.00364157,0.,-0.00062844,0.00021745,0.,-0.17909373,0.37873196
 ,0.,0.,-0.00804387,0.,0.,-0.00513210,0.,0.,-0.01035573,0.,0.,0.0072057
 1,0.,0.,0.00569617,0.,0.,-0.00081624,0.,0.,0.01144605\\-0.00005155,-0.
 00005913,0.,0.00006615,0.00000410,0.,-0.00007979,0.00010305,0.,0.00002
 658,-0.00010293,0.,0.00004294,0.00004891,0.,-0.00000084,0.00000525,0.,
 -0.00000350,0.00000074,0.\\\@


 THEORY:  SUPPOSITION WHICH HAS SCIENTIFIC BASIS,
          BUT NOT EXPERIMENTALLY PROVEN.
 FACT:    A THEORY WHICH HAS BEEN PROVEN BY ENOUGH 
          MONEY TO PAY FOR THE EXPERIMENTS.

                          --  THE WIZARD OF ID
 Job cpu time:       0 days  0 hours  0 minutes 15.1 seconds.
 File lengths (MBytes):  RWF=      5 Int=      0 D2E=      0 Chk=      1 Scr=      1
 Normal termination of Gaussian 09 at Mon Nov 25 17:30:57 2013.
