 Entering Gaussian System, Link 0=g09
 Initial command:
 /usr/local/gaussian/g09.d01.em64t.legacy.linda/g09/l1.exe "/tmp/rdj3/g09-23219/Gau-25252.inp" -scrdir="/tmp/rdj3/g09-23219/"
 Entering Link 1 = /usr/local/gaussian/g09.d01.em64t.legacy.linda/g09/l1.exe PID=     25253.
  
 Copyright (c) 1988,1990,1992,1993,1995,1998,2003,2009,2013,
            Gaussian, Inc.  All Rights Reserved.
  
 This is part of the Gaussian(R) 09 program.  It is based on
 the Gaussian(R) 03 system (copyright 2003, Gaussian, Inc.),
 the Gaussian(R) 98 system (copyright 1998, Gaussian, Inc.),
 the Gaussian(R) 94 system (copyright 1995, Gaussian, Inc.),
 the Gaussian 92(TM) system (copyright 1992, Gaussian, Inc.),
 the Gaussian 90(TM) system (copyright 1990, Gaussian, Inc.),
 the Gaussian 88(TM) system (copyright 1988, Gaussian, Inc.),
 the Gaussian 86(TM) system (copyright 1986, Carnegie Mellon
 University), and the Gaussian 82(TM) system (copyright 1983,
 Carnegie Mellon University). Gaussian is a federally registered
 trademark of Gaussian, Inc.
  
 This software contains proprietary and confidential information,
 including trade secrets, belonging to Gaussian, Inc.
  
 This software is provided under written license and may be
 used, copied, transmitted, or stored only in accord with that
 written license.
  
 The following legend is applicable only to US Government
 contracts under FAR:
  
                    RESTRICTED RIGHTS LEGEND
  
 Use, reproduction and disclosure by the US Government is
 subject to restrictions as set forth in subparagraphs (a)
 and (c) of the Commercial Computer Software - Restricted
 Rights clause in FAR 52.227-19.
  
 Gaussian, Inc.
 340 Quinnipiac St., Bldg. 40, Wallingford CT 06492
  
  
 ---------------------------------------------------------------
 Warning -- This program may not be used in any manner that
 competes with the business of Gaussian, Inc. or will provide
 assistance to any competitor of Gaussian, Inc.  The licensee
 of this program is prohibited from giving any competitor of
 Gaussian, Inc. access to this program.  By using this program,
 the user acknowledges that Gaussian, Inc. is engaged in the
 business of creating and licensing software in the field of
 computational chemistry and represents and warrants to the
 licensee that it is not a competitor of Gaussian, Inc. and that
 it will not use this program in any manner prohibited above.
 ---------------------------------------------------------------
  

 Cite this work as:
 Gaussian 09, Revision D.01,
 M. J. Frisch, G. W. Trucks, H. B. Schlegel, G. E. Scuseria, 
 M. A. Robb, J. R. Cheeseman, G. Scalmani, V. Barone, B. Mennucci, 
 G. A. Petersson, H. Nakatsuji, M. Caricato, X. Li, H. P. Hratchian, 
 A. F. Izmaylov, J. Bloino, G. Zheng, J. L. Sonnenberg, M. Hada, 
 M. Ehara, K. Toyota, R. Fukuda, J. Hasegawa, M. Ishida, T. Nakajima, 
 Y. Honda, O. Kitao, H. Nakai, T. Vreven, J. A. Montgomery, Jr., 
 J. E. Peralta, F. Ogliaro, M. Bearpark, J. J. Heyd, E. Brothers, 
 K. N. Kudin, V. N. Staroverov, T. Keith, R. Kobayashi, J. Normand, 
 K. Raghavachari, A. Rendell, J. C. Burant, S. S. Iyengar, J. Tomasi, 
 M. Cossi, N. Rega, J. M. Millam, M. Klene, J. E. Knox, J. B. Cross, 
 V. Bakken, C. Adamo, J. Jaramillo, R. Gomperts, R. E. Stratmann, 
 O. Yazyev, A. J. Austin, R. Cammi, C. Pomelli, J. W. Ochterski, 
 R. L. Martin, K. Morokuma, V. G. Zakrzewski, G. A. Voth, 
 P. Salvador, J. J. Dannenberg, S. Dapprich, A. D. Daniels, 
 O. Farkas, J. B. Foresman, J. V. Ortiz, J. Cioslowski, 
 and D. J. Fox, Gaussian, Inc., Wallingford CT, 2013.
 
 ******************************************
 Gaussian 09:  EM64L-G09RevD.01 24-Apr-2013
                25-Nov-2013 
 ******************************************
 %Nproc=8
 Will use up to    8 processors via shared memory.
 %mem=436000000
 -------------------------------
 #SVWN/6-31G** opt=z-matrix freq
 -------------------------------
 1/10=7,14=-1,18=40,26=3,38=1/1,3;
 2/12=2,17=6,18=5,29=3,40=1/2;
 3/5=1,6=6,7=101,11=2,16=1,25=1,30=1,71=1,74=205/1,2,3;
 4//1;
 5/5=2,38=5/2;
 6/7=2,8=2,9=2,10=2,28=1/1;
 7/29=1/1,2,3,16;
 1/10=7,14=-1,18=40,26=3/3(2);
 2/29=3/2;
 99//99;
 2/29=3/2;
 3/5=1,6=6,7=101,11=2,16=1,25=1,30=1,71=1,74=205/1,2,3;
 4/5=5,16=3,69=1/1;
 5/5=2,38=5/2;
 7//1,2,3,16;
 1/14=-1,18=40,26=3/3(-5);
 2/29=3/2;
 6/7=2,8=2,9=2,10=2,19=2,28=1/1;
 99/9=1/99;
 ------------------------------------------------------------------
 1H-tetrazole CH2N4 casno=288948 state=1 config=1 method=53 basis=3
 ------------------------------------------------------------------
 Symbolic Z-matrix:
 Charge =  0 Multiplicity = 1
 X
 X                    1     1. 
 C                    1     1.       2     90. 
 N                    1    rn1      2     90.      3    an1      0
 N                    1    rn2      2     90.      3    an2      0
 N                    1    rn3      2     90.      3    an3      0
 N                    1    rn4      2     90.      3    an4      0
 H                    3    rch      4    ach      5     180.     0
 H                    4    rnh      5    anh      6     180.     0
       Variables:
  rn1                   1.2426                   
  rn2                   1.333                    
  rn3                   1.1146                   
  rn4                   0.9264                   
  rch                   1.0678                   
  rnh                   0.9941                   
  an1                  71.8427                   
  an2                 133.7028                   
  an3                 194.4597                   
  an4                 276.0768                   
  ach                 125.0248                   
  anh                 120.7626                   
 

 GradGradGradGradGradGradGradGradGradGradGradGradGradGradGradGradGradGrad
 Berny optimization.
 Initialization pass.
                       ----------------------------
                       !    Initial Parameters    !
                       ! (Angstroms and Degrees)  !
 ----------------------                            ----------------------
 !      Name          Value   Derivative information (Atomic Units)     !
 ------------------------------------------------------------------------
 !       rn1         1.2426   estimate D2E/DX2                          !
 !       rn2         1.333    estimate D2E/DX2                          !
 !       rn3         1.1146   estimate D2E/DX2                          !
 !       rn4         0.9264   estimate D2E/DX2                          !
 !       rch         1.0678   estimate D2E/DX2                          !
 !       rnh         0.9941   estimate D2E/DX2                          !
 !       an1        71.8427   estimate D2E/DX2                          !
 !       an2       133.7028   estimate D2E/DX2                          !
 !       an3       194.4597   estimate D2E/DX2                          !
 !       an4       276.0768   estimate D2E/DX2                          !
 !       ach       125.0248   estimate D2E/DX2                          !
 !       anh       120.7626   estimate D2E/DX2                          !
 ------------------------------------------------------------------------
 Trust Radius=3.00D-01 FncErr=1.00D-07 GrdErr=1.00D-06
 Number of steps in this run=     22 maximum allowed number of steps=    100.
 GradGradGradGradGradGradGradGradGradGradGradGradGradGradGradGradGradGrad

 ---------------------------------------------------------------------------------------------------
                            Z-MATRIX (ANGSTROMS AND DEGREES)
   CD    Cent   Atom    N1       Length/X        N2       Alpha/Y        N3        Beta/Z          J
 ---------------------------------------------------------------------------------------------------
      1         X 
      2         X        1   1.000000(     1)
      3      1  C        1   1.000000(     2)      2   90.000(     9)
      4      2  N        1   1.242600(     3)      2   90.000(    10)      3   71.843(    16)      0
      5      3  N        1   1.333000(     4)      2   90.000(    11)      3  133.703(    17)      0
      6      4  N        1   1.114600(     5)      2   90.000(    12)      3  194.460(    18)      0
      7      5  N        1   0.926400(     6)      2   90.000(    13)      3  276.077(    19)      0
      8      6  H        3   1.067800(     7)      4  125.025(    14)      5  180.000(    20)      0
      9      7  H        4   0.994100(     8)      5  120.763(    15)      6  180.000(    21)      0
 ---------------------------------------------------------------------------------------------------
                         Z-Matrix orientation:                         
 ---------------------------------------------------------------------
 Center     Atomic      Atomic             Coordinates (Angstroms)
 Number     Number       Type             X           Y           Z
 ---------------------------------------------------------------------
      1         -1           0        0.000000    0.000000    0.000000
      2         -1           0        0.000000    0.000000    1.000000
      3          6           0        1.000000    0.000000    0.000000
      4          7           0        0.387228   -1.180724    0.000000
      5          7           0       -0.920993   -0.963670    0.000000
      6          7           0       -1.079293    0.278314    0.000000
      7          7           0        0.098070    0.921194    0.000000
      8          1           0        2.058429    0.141157    0.000000
      9          1           0        0.749017   -2.106652    0.000000
 ---------------------------------------------------------------------
                    Distance matrix (angstroms):
                    1          2          3          4          5
     1  X    0.000000
     2  X    1.000000   0.000000
     3  C    1.000000   1.414214   0.000000
     4  N    1.242600   1.595009   1.330263   0.000000
     5  N    1.333000   1.666400   2.149157   1.326105   0.000000
     6  N    1.114600   1.497442   2.097837   2.068690   1.252032
     7  N    0.926400   1.363164   1.289216   2.121715   2.142710
     8  H    2.063263   2.292827   1.067800   2.130794   3.177672
     9  H    2.235847   2.449288   2.121551   0.994100   2.023695
                    6          7          8          9
     6  N    0.000000
     7  N    1.341447   0.000000
     8  H    3.140719   2.109850   0.000000
     9  H    3.005127   3.097029   2.601385   0.000000
 Stoichiometry    CH2N4
 Framework group  CS[SG(CH2N4)]
 Deg. of freedom    11
 Full point group                 CS      NOp   2
 Largest Abelian subgroup         CS      NOp   2
 Largest concise Abelian subgroup C1      NOp   1
                         Standard orientation:                         
 ---------------------------------------------------------------------
 Center     Atomic      Atomic             Coordinates (Angstroms)
 Number     Number       Type             X           Y           Z
 ---------------------------------------------------------------------
      1          6           0        1.052733    0.225621    0.000000
      2          7           0        0.000000    1.038857    0.000000
      3          7           0       -1.095416    0.291448    0.000000
      4          7           0       -0.716382   -0.901832    0.000000
      5          7           0        0.622191   -0.989579    0.000000
      6          1           0        2.072287    0.542964    0.000000
      7          1           0       -0.061439    2.031056    0.000000
 ---------------------------------------------------------------------
 Rotational constants (GHZ):     10.9201517     10.7345054      5.4132664
 Standard basis: 6-31G(d,p) (6D, 7F)
 There are    63 symmetry adapted cartesian basis functions of A'  symmetry.
 There are    22 symmetry adapted cartesian basis functions of A"  symmetry.
 There are    63 symmetry adapted basis functions of A'  symmetry.
 There are    22 symmetry adapted basis functions of A"  symmetry.
    85 basis functions,   154 primitive gaussians,    85 cartesian basis functions
    18 alpha electrons       18 beta electrons
       nuclear repulsion energy       169.8308489506 Hartrees.
 NAtoms=    7 NActive=    7 NUniq=    7 SFac= 1.00D+00 NAtFMM=   60 NAOKFM=F Big=F
 Integral buffers will be    131072 words long.
 Raffenetti 2 integral format.
 Two-electron integral symmetry is turned on.
 One-electron integrals computed using PRISM.
 NBasis=    85 RedAO= T EigKep=  3.44D-03  NBF=    63    22
 NBsUse=    85 1.00D-06 EigRej= -1.00D+00 NBFU=    63    22
 ExpMin= 1.61D-01 ExpMax= 4.17D+03 ExpMxC= 6.27D+02 IAcc=1 IRadAn=         1 AccDes= 0.00D+00
 Harris functional with IExCor=  205 and IRadAn=       1 diagonalized for initial guess.
 HarFok:  IExCor=  205 AccDes= 0.00D+00 IRadAn=         1 IDoV= 1 UseB2=F ITyADJ=14
 ICtDFT=  3500011 ScaDFX=  1.000000  1.000000  1.000000  1.000000
 FoFCou: FMM=F IPFlag=           0 FMFlag=      100000 FMFlg1=           0
         NFxFlg=           0 DoJE=T BraDBF=F KetDBF=T FulRan=T
         wScrn=  0.000000 ICntrl=     500 IOpCl=  0 I1Cent=   200000004 NGrid=           0
         NMat0=    1 NMatS0=      1 NMatT0=    0 NMatD0=    1 NMtDS0=    0 NMtDT0=    0
 Petite list used in FoFCou.
 Initial guess orbital symmetries:
       Occupied  (A') (A') (A') (A') (A') (A') (A') (A') (A') (A')
                 (A') (A') (A") (A') (A") (A") (A') (A')
       Virtual   (A") (A") (A') (A') (A') (A') (A') (A') (A') (A')
                 (A") (A') (A') (A') (A') (A") (A') (A") (A') (A")
                 (A') (A") (A') (A') (A') (A') (A') (A') (A") (A')
                 (A") (A") (A') (A') (A") (A") (A') (A') (A') (A')
                 (A') (A") (A') (A") (A") (A') (A') (A") (A') (A')
                 (A") (A') (A') (A") (A') (A") (A') (A') (A') (A')
                 (A') (A') (A') (A') (A') (A') (A')
 The electronic state of the initial guess is 1-A'.
 Keep J ints in memory in symmetry-blocked form, NReq=10267916.
 Requested convergence on RMS density matrix=1.00D-08 within 128 cycles.
 Requested convergence on MAX density matrix=1.00D-06.
 Requested convergence on             energy=1.00D-06.
 No special actions if energy rises.
 Integral accuracy reduced to 1.0D-05 until final iterations.
 Initial convergence to 1.0D-05 achieved.  Increase integral accuracy.
 SCF Done:  E(RS-VWN) =  -256.887208990     A.U. after   15 cycles
            NFock= 15  Conv=0.83D-08     -V/T= 2.0067

 **********************************************************************

            Population analysis using the SCF density.

 **********************************************************************

 Orbital symmetries:
       Occupied  (A') (A') (A') (A') (A') (A') (A') (A') (A') (A')
                 (A') (A") (A') (A') (A") (A") (A') (A')
       Virtual   (A") (A") (A') (A') (A') (A') (A') (A') (A') (A")
                 (A') (A') (A') (A') (A") (A') (A') (A") (A') (A")
                 (A') (A") (A') (A') (A') (A') (A') (A') (A") (A')
                 (A") (A") (A') (A') (A") (A") (A') (A') (A') (A')
                 (A') (A") (A') (A") (A") (A') (A') (A") (A') (A')
                 (A") (A') (A') (A") (A") (A') (A') (A') (A') (A')
                 (A') (A') (A') (A') (A') (A') (A')
 The electronic state is 1-A'.
 Alpha  occ. eigenvalues --  -14.00642 -13.96441 -13.94617 -13.91985  -9.89633
 Alpha  occ. eigenvalues --   -1.09852  -0.89542  -0.84662  -0.64714  -0.63744
 Alpha  occ. eigenvalues --   -0.57335  -0.48705  -0.47627  -0.35169  -0.32576
 Alpha  occ. eigenvalues --   -0.30856  -0.27230  -0.25299
 Alpha virt. eigenvalues --   -0.07057  -0.03611   0.01578   0.06635   0.12689
 Alpha virt. eigenvalues --    0.14838   0.23693   0.27192   0.35315   0.44368
 Alpha virt. eigenvalues --    0.44438   0.52262   0.53114   0.57746   0.58475
 Alpha virt. eigenvalues --    0.59293   0.61595   0.62498   0.66175   0.70877
 Alpha virt. eigenvalues --    0.73015   0.75359   0.76462   0.78285   0.85518
 Alpha virt. eigenvalues --    0.92866   0.96807   1.00881   1.13937   1.15472
 Alpha virt. eigenvalues --    1.24828   1.26921   1.31462   1.38490   1.44010
 Alpha virt. eigenvalues --    1.44910   1.56613   1.77546   1.80721   1.83471
 Alpha virt. eigenvalues --    1.92296   1.97018   2.03418   2.11178   2.16489
 Alpha virt. eigenvalues --    2.18343   2.22914   2.26142   2.30168   2.39539
 Alpha virt. eigenvalues --    2.41366   2.43817   2.46729   2.55576   2.63888
 Alpha virt. eigenvalues --    2.64836   2.72599   2.82018   2.95778   3.04523
 Alpha virt. eigenvalues --    3.17766   3.40510   3.49314   3.64282   3.94641
 Alpha virt. eigenvalues --    3.98498   4.34020
          Condensed to atoms (all electrons):
               1          2          3          4          5          6
     1  C    4.870359   0.313508  -0.124187  -0.099933   0.422917   0.380473
     2  N    0.313508   6.696809   0.200575  -0.085232  -0.073277  -0.043289
     3  N   -0.124187   0.200575   6.789963   0.279765  -0.079777   0.003398
     4  N   -0.099933  -0.085232   0.279765   6.696401   0.285331   0.005388
     5  N    0.422917  -0.073277  -0.079777   0.285331   6.758982  -0.029101
     6  H    0.380473  -0.043289   0.003398   0.005388  -0.029101   0.496362
     7  H   -0.027853   0.331957  -0.025615   0.007902   0.006980   0.001308
               7
     1  C   -0.027853
     2  N    0.331957
     3  N   -0.025615
     4  N    0.007902
     5  N    0.006980
     6  H    0.001308
     7  H    0.388648
 Mulliken charges:
               1
     1  C    0.264717
     2  N   -0.341052
     3  N   -0.044122
     4  N   -0.089623
     5  N   -0.292054
     6  H    0.185461
     7  H    0.316673
 Sum of Mulliken charges =   0.00000
 Mulliken charges with hydrogens summed into heavy atoms:
               1
     1  C    0.450178
     2  N   -0.024379
     3  N   -0.044122
     4  N   -0.089623
     5  N   -0.292054
 Electronic spatial extent (au):  <R**2>=            243.6386
 Charge=              0.0000 electrons
 Dipole moment (field-independent basis, Debye):
    X=              2.4152    Y=              4.7025    Z=              0.0000  Tot=              5.2865
 Quadrupole moment (field-independent basis, Debye-Ang):
   XX=            -28.5960   YY=            -25.9399   ZZ=            -27.8570
   XY=              1.6615   XZ=              0.0000   YZ=              0.0000
 Traceless Quadrupole moment (field-independent basis, Debye-Ang):
   XX=             -1.1317   YY=              1.5244   ZZ=             -0.3927
   XY=              1.6615   XZ=              0.0000   YZ=              0.0000
 Octapole moment (field-independent basis, Debye-Ang**2):
  XXX=             11.1144  YYY=             21.5096  ZZZ=              0.0000  XYY=             -0.6118
  XXY=              4.2703  XXZ=              0.0000  XZZ=             -0.6778  YZZ=              0.4739
  YYZ=              0.0000  XYZ=              0.0000
 Hexadecapole moment (field-independent basis, Debye-Ang**3):
 XXXX=           -137.6480 YYYY=           -115.4286 ZZZZ=            -23.9608 XXXY=              5.9758
 XXXZ=              0.0000 YYYX=             -0.7389 YYYZ=              0.0000 ZZZX=              0.0000
 ZZZY=              0.0000 XXYY=            -51.4907 XXZZ=            -29.1653 YYZZ=            -27.4227
 XXYZ=              0.0000 YYXZ=              0.0000 ZZXY=             -0.1963
 N-N= 1.698308489506D+02 E-N=-9.404791683358D+02  KE= 2.551689493035D+02
 Symmetry A'   KE= 2.456235168427D+02
 Symmetry A"   KE= 9.545432460861D+00
 Calling FoFJK, ICntrl=      2527 FMM=F ISym2X=1 I1Cent= 0 IOpClX= 0 NMat=1 NMatS=1 NMatT=0.
 ***** Axes restored to original set *****
 -------------------------------------------------------------------
 Center     Atomic                   Forces (Hartrees/Bohr)
 Number     Number              X              Y              Z
 -------------------------------------------------------------------
      1        6           0.013404943   -0.008871070    0.000000000
      2        7           0.001443277    0.005977780    0.000000000
      3        7          -0.013291400   -0.043670063    0.000000000
      4        7          -0.017506268    0.037672646    0.000000000
      5        7          -0.007981787    0.028782976    0.000000000
      6        1           0.015596965    0.002044034    0.000000000
      7        1           0.008334269   -0.021936303    0.000000000
 -------------------------------------------------------------------
 Cartesian Forces:  Max     0.043670063 RMS     0.016613122
 -----------------------------------------------------------------------------------------------
                       Internal Coordinate Forces (Hartree/Bohr or radian)
  Cent   Atom   N1       Length/X         N2         Alpha/Y        N3         Beta/Z          J
 -----------------------------------------------------------------------------------------------
         X 
         X        1   0.000000(     1)
      1  C        1   0.029027(     2)      2   0.000000(     9)
      2  N        1   0.018337(     3)      2   0.000000(    10)      3  -0.009911(    16)     0
      3  N        1   0.040617(     4)      2   0.000000(    11)      3  -0.051565(    17)     0
      4  N        1   0.026359(     5)      2   0.000000(    12)      3   0.067629(    18)     0
      5  N        1   0.027776(     6)      2   0.000000(    13)      3  -0.019229(    19)     0
      6  H        3   0.015730(     7)      4  -0.000072(    14)      5   0.000000(    20)     0
      7  H        4   0.023465(     8)      5  -0.000415(    15)      6   0.000000(    21)     0
 -----------------------------------------------------------------------------------------------
 Internal  Forces:  Max     0.067628744 RMS     0.024682467

 GradGradGradGradGradGradGradGradGradGradGradGradGradGradGradGradGradGrad
 Berny optimization.
 Search for a local minimum.
 Step number   1 out of a maximum of   22
 All quantities printed in internal units (Hartrees-Bohrs-Radians)
 Second derivative matrix not updated -- first step.
 The second derivative matrix:
                          rn1       rn2       rn3       rn4       rch
           rn1          0.65186
           rn2          0.01318   0.69869
           rn3          0.03472   0.07334   0.58262
           rn4          0.03688   0.02662   0.13967   0.63921
           rch          0.00000   0.00000   0.00000   0.00000   0.37510
           rnh          0.00000   0.00000   0.00000   0.00000   0.00000
           an1          0.02012  -0.75016   0.04258  -0.08486   0.00000
           an2          0.72119  -0.31234  -0.71865   0.05436   0.00000
           an3         -0.02914   1.04797   0.05412  -0.58583   0.00000
           an4          0.05328  -0.03228   0.65851  -0.10009   0.00000
           ach          0.04546   0.00000   0.00000   0.05066   0.00000
           anh         -0.10206   0.05276   0.00000   0.00000   0.00000
                          rnh       an1       an2       an3       an4
           rnh          0.48741
           an1          0.00000   4.53257
           an2          0.00000  -2.68051   6.02300
           an3          0.00000  -0.03573  -3.19618   4.47465
           an4          0.00000  -0.12258  -0.06592  -1.16042   2.58479
           ach          0.00000  -0.10460   0.00000   0.00000   0.07318
           anh          0.00000   0.03519  -0.09059   0.00000   0.00000
                          ach       anh
           ach          0.32000
           anh          0.00000   0.32000
 ITU=  0
     Eigenvalues ---    0.00000   0.13346   0.26445   0.33044   0.37510
     Eigenvalues ---    0.40158   0.48741   0.75609   1.20990   2.99509
     Eigenvalues ---    5.09563   9.64077
 RFO step:  Lambda=-6.87742233D-03 EMin=-6.95624114D-16
 Linear search not attempted -- first point.
 Variable       Old X    -DE/DX   Delta X   Delta X   Delta X     New X
                                 (Linear)    (Quad)   (Total)
   rn1        2.34817   0.01834   0.00000   0.01887   0.01887   2.36704
   rn2        2.51900   0.04062   0.00000   0.05499   0.05499   2.57400
   rn3        2.10629   0.02636   0.00000   0.05175   0.05175   2.15804
   rn4        1.75064   0.02778   0.00000   0.03056   0.03056   1.78120
   rch        2.01785   0.01573   0.00000   0.04118   0.04118   2.05903
   rnh        1.87858   0.02347   0.00000   0.04747   0.04747   1.92605
   an1        1.25389  -0.00991   0.00000   0.00872   0.00872   1.26262
   an2        2.33355  -0.05157   0.00000   0.00377   0.00377   2.33733
   an3        3.39396   0.06763   0.00000   0.00416   0.00416   3.39812
   an4        4.81845  -0.01923   0.00000  -0.01669  -0.01669   4.80176
   ach        2.18209  -0.00007   0.00000  -0.00105  -0.00105   2.18104
   anh        2.10770  -0.00041   0.00000  -0.00415  -0.00415   2.10356
         Item               Value     Threshold  Converged?
 Maximum Force            0.067629     0.000450     NO 
 RMS     Force            0.031558     0.000300     NO 
 Maximum Displacement     0.054992     0.001800     NO 
 RMS     Displacement     0.030749     0.001200     NO 
 Predicted change in Energy=-3.477730D-03
 GradGradGradGradGradGradGradGradGradGradGradGradGradGradGradGradGradGrad

 ---------------------------------------------------------------------------------------------------
                            Z-MATRIX (ANGSTROMS AND DEGREES)
   CD    Cent   Atom    N1       Length/X        N2       Alpha/Y        N3        Beta/Z          J
 ---------------------------------------------------------------------------------------------------
      1         X 
      2         X        1   1.000000(     1)
      3      1  C        1   1.000000(     2)      2   90.000(     9)
      4      2  N        1   1.252583(     3)      2   90.000(    10)      3   72.343(    16)      0
      5      3  N        1   1.362100(     4)      2   90.000(    11)      3  133.919(    17)      0
      6      4  N        1   1.141984(     5)      2   90.000(    12)      3  194.698(    18)      0
      7      5  N        1   0.942573(     6)      2   90.000(    13)      3  275.121(    19)      0
      8      6  H        3   1.089592(     7)      4  124.964(    14)      5  180.000(    20)      0
      9      7  H        4   1.019222(     8)      5  120.525(    15)      6  180.000(    21)      0
 ---------------------------------------------------------------------------------------------------
                         Z-Matrix orientation:                         
 ---------------------------------------------------------------------
 Center     Atomic      Atomic             Coordinates (Angstroms)
 Number     Number       Type             X           Y           Z
 ---------------------------------------------------------------------
      1         -1           0        0.000000    0.000000    0.000000
      2         -1           0        0.000000    0.000000    1.000000
      3          6           0        1.000000    0.000000    0.000000
      4          7           0        0.379941   -1.193570    0.000000
      5          7           0       -0.944807   -0.981151    0.000000
      6          7           0       -1.104613    0.289753    0.000000
      7          7           0        0.084127    0.938811    0.000000
      8          1           0        2.080240    0.142458    0.000000
      9          1           0        0.752085   -2.142423    0.000000
 ---------------------------------------------------------------------
                    Distance matrix (angstroms):
                    1          2          3          4          5
     1  X    0.000000
     2  X    1.000000   0.000000
     3  C    1.000000   1.414214   0.000000
     4  N    1.252583   1.602799   1.345022   0.000000
     5  N    1.362100   1.689768   2.178286   1.341670   0.000000
     6  N    1.141984   1.517935   2.124466   2.098606   1.280911
     7  N    0.942573   1.374206   1.311560   2.152802   2.178293
     8  H    2.085112   2.312507   1.089592   2.162403   3.226980
     9  H    2.270596   2.481050   2.156719   1.019222   2.056209
                    6          7          8          9
     6  N    0.000000
     7  N    1.354393   0.000000
     8  H    3.188257   2.149103   0.000000
     9  H    3.059870   3.152803   2.642854   0.000000
 Stoichiometry    CH2N4
 Framework group  CS[SG(CH2N4)]
 Deg. of freedom    11
 Full point group                 CS      NOp   2
 Largest Abelian subgroup         CS      NOp   2
 Largest concise Abelian subgroup C1      NOp   1
                         Standard orientation:                         
 ---------------------------------------------------------------------
 Center     Atomic      Atomic             Coordinates (Angstroms)
 Number     Number       Type             X           Y           Z
 ---------------------------------------------------------------------
      1          6           0        1.064964    0.230273    0.000000
      2          7           0        0.000000    1.051817    0.000000
      3          7           0       -1.112161    0.301367    0.000000
      4          7           0       -0.722006   -0.918679    0.000000
      5          7           0        0.629511   -1.006889    0.000000
      6          1           0        2.104766    0.555887    0.000000
      7          1           0       -0.061959    2.069154    0.000000
 ---------------------------------------------------------------------
 Rotational constants (GHZ):     10.5988209     10.4308486      5.2570820
 Standard basis: 6-31G(d,p) (6D, 7F)
 There are    63 symmetry adapted cartesian basis functions of A'  symmetry.
 There are    22 symmetry adapted cartesian basis functions of A"  symmetry.
 There are    63 symmetry adapted basis functions of A'  symmetry.
 There are    22 symmetry adapted basis functions of A"  symmetry.
    85 basis functions,   154 primitive gaussians,    85 cartesian basis functions
    18 alpha electrons       18 beta electrons
       nuclear repulsion energy       167.3074278590 Hartrees.
 NAtoms=    7 NActive=    7 NUniq=    7 SFac= 1.00D+00 NAtFMM=   60 NAOKFM=F Big=F
 Integral buffers will be    131072 words long.
 Raffenetti 2 integral format.
 Two-electron integral symmetry is turned on.
 One-electron integrals computed using PRISM.
 NBasis=    85 RedAO= T EigKep=  3.70D-03  NBF=    63    22
 NBsUse=    85 1.00D-06 EigRej= -1.00D+00 NBFU=    63    22
 Initial guess from the checkpoint file:  "/tmp/rdj3/g09-23219/Gau-25253.chk"
 B after Tr=     0.000000    0.000000    0.000000
         Rot=    1.000000    0.000000    0.000000   -0.000030 Ang=   0.00 deg.
 Initial guess orbital symmetries:
       Occupied  (A') (A') (A') (A') (A') (A') (A') (A') (A') (A')
                 (A') (A") (A') (A') (A") (A") (A') (A')
       Virtual   (A') (A') (A') (A') (A') (A') (A') (A') (A') (A')
                 (A') (A') (A') (A') (A') (A') (A') (A') (A') (A')
                 (A') (A') (A') (A') (A') (A') (A') (A') (A') (A')
                 (A') (A') (A') (A') (A') (A') (A') (A') (A') (A')
                 (A') (A') (A') (A') (A') (A') (A') (A') (A") (A")
                 (A") (A") (A") (A") (A") (A") (A") (A") (A") (A")
                 (A") (A") (A") (A") (A") (A") (A")
 ExpMin= 1.61D-01 ExpMax= 4.17D+03 ExpMxC= 6.27D+02 IAcc=1 IRadAn=         1 AccDes= 0.00D+00
 Harris functional with IExCor=  205 and IRadAn=       1 diagonalized for initial guess.
 HarFok:  IExCor=  205 AccDes= 0.00D+00 IRadAn=         1 IDoV= 1 UseB2=F ITyADJ=14
 ICtDFT=  3500011 ScaDFX=  1.000000  1.000000  1.000000  1.000000
 FoFCou: FMM=F IPFlag=           0 FMFlag=      100000 FMFlg1=           0
         NFxFlg=           0 DoJE=T BraDBF=F KetDBF=T FulRan=T
         wScrn=  0.000000 ICntrl=     500 IOpCl=  0 I1Cent=   200000004 NGrid=           0
         NMat0=    1 NMatS0=      1 NMatT0=    0 NMatD0=    1 NMtDS0=    0 NMtDT0=    0
 Petite list used in FoFCou.
 Keep J ints in memory in symmetry-blocked form, NReq=10267916.
 Requested convergence on RMS density matrix=1.00D-08 within 128 cycles.
 Requested convergence on MAX density matrix=1.00D-06.
 Requested convergence on             energy=1.00D-06.
 No special actions if energy rises.
 Integral accuracy reduced to 1.0D-05 until final iterations.
 Initial convergence to 1.0D-05 achieved.  Increase integral accuracy.
 SCF Done:  E(RS-VWN) =  -256.890847701     A.U. after   13 cycles
            NFock= 13  Conv=0.86D-08     -V/T= 2.0081
 Calling FoFJK, ICntrl=      2527 FMM=F ISym2X=1 I1Cent= 0 IOpClX= 0 NMat=1 NMatS=1 NMatT=0.
 ***** Axes restored to original set *****
 -------------------------------------------------------------------
 Center     Atomic                   Forces (Hartrees/Bohr)
 Number     Number              X              Y              Z
 -------------------------------------------------------------------
      1        6           0.002729471   -0.003643117    0.000000000
      2        7           0.000763519    0.004621200    0.000000000
      3        7          -0.000992638   -0.010854559    0.000000000
      4        7           0.000209694    0.009328866    0.000000000
      5        7          -0.002349278    0.000847087    0.000000000
      6        1          -0.000392334   -0.000031218    0.000000000
      7        1           0.000031565   -0.000268257    0.000000000
 -------------------------------------------------------------------
 Cartesian Forces:  Max     0.010854559 RMS     0.003484686
 -----------------------------------------------------------------------------------------------
                       Internal Coordinate Forces (Hartree/Bohr or radian)
  Cent   Atom   N1       Length/X         N2         Alpha/Y        N3         Beta/Z          J
 -----------------------------------------------------------------------------------------------
         X 
         X        1   0.000000(     1)
      1  C        1   0.002323(     2)      2   0.000000(     9)
      2  N        1  -0.003849(     3)      2   0.000000(    10)      3  -0.004891(    16)     0
      3  N        1   0.008465(     4)      2   0.000000(    11)      3  -0.017463(    17)     0
      4  N        1   0.002164(     5)      2   0.000000(    12)      3   0.019588(    18)     0
      5  N        1   0.000634(     6)      2   0.000000(    13)      3  -0.004303(    19)     0
      6  H        3  -0.000393(     7)      4   0.000042(    14)      5   0.000000(    20)     0
      7  H        4   0.000261(     8)      5  -0.000132(    15)      6   0.000000(    21)     0
 -----------------------------------------------------------------------------------------------
 Internal  Forces:  Max     0.019588048 RMS     0.006280206

 GradGradGradGradGradGradGradGradGradGradGradGradGradGradGradGradGradGrad
 Berny optimization.
 Search for a local minimum.
 Step number   2 out of a maximum of   22
 All quantities printed in internal units (Hartrees-Bohrs-Radians)
 Update second derivatives using D2CorN and points    1    2
 DE= -3.64D-03 DEPred=-3.48D-03 R= 1.05D+00
 TightC=F SS=  1.41D+00  RLast= 1.07D-01 DXNew= 5.0454D-01 3.1955D-01
 Trust test= 1.05D+00 RLast= 1.07D-01 DXMaxT set to 3.20D-01
 The second derivative matrix:
                          rn1       rn2       rn3       rn4       rch
           rn1          0.65848
           rn2          0.01610   0.65950
           rn3          0.04229   0.05052   0.57437
           rn4          0.04189   0.01470   0.13627   0.63807
           rch          0.00778  -0.01304  -0.00174   0.00014   0.37755
           rnh          0.00838  -0.01676  -0.00363  -0.00080   0.00153
           an1          0.02576  -0.74128   0.05318  -0.07835   0.00924
           an2          0.73639  -0.27130  -0.67907   0.07784   0.03185
           an3         -0.04467   0.99908   0.00918  -0.61225  -0.03537
           an4          0.05384  -0.01618   0.66939  -0.09414   0.00710
           ach          0.04524   0.00026  -0.00003   0.05061  -0.00012
           anh         -0.10270   0.05448   0.00057   0.00022   0.00006
                          rnh       an1       an2       an3       an4
           rnh          0.48768
           an1          0.01038   4.53638
           an2          0.03660  -2.67296   6.02882
           an3         -0.04091  -0.04235  -3.19623   4.46748
           an4          0.00871  -0.12461  -0.07809  -1.14527   2.57863
           ach         -0.00011  -0.10484  -0.00082   0.00090   0.07302
           anh          0.00020   0.03432  -0.09377   0.00359  -0.00084
                          ach       anh
           ach          0.32000
           anh          0.00000   0.31996
 ITU=  1  0
     Eigenvalues ---    0.00003   0.12820   0.26441   0.32998   0.37689
     Eigenvalues ---    0.39763   0.48730   0.75151   1.20896   2.99413
     Eigenvalues ---    5.08056   9.62732
 RFO step:  Lambda=-1.35399391D-04 EMin= 3.08803624D-05
 Quartic linear search produced a step of  0.09798.
 Variable       Old X    -DE/DX   Delta X   Delta X   Delta X     New X
                                 (Linear)    (Quad)   (Total)
   rn1        2.36704  -0.00385   0.00185   0.00252   0.00437   2.37141
   rn2        2.57400   0.00846   0.00539   0.01801   0.02340   2.59740
   rn3        2.15804   0.00216   0.00507  -0.00119   0.00388   2.16191
   rn4        1.78120   0.00063   0.00299  -0.01575  -0.01275   1.76845
   rch        2.05903  -0.00039   0.00404  -0.00415  -0.00011   2.05892
   rnh        1.92605   0.00026   0.00465  -0.00313   0.00152   1.92757
   an1        1.26262  -0.00489   0.00085  -0.00473  -0.00387   1.25874
   an2        2.33733  -0.01746   0.00037  -0.01057  -0.01020   2.32713
   an3        3.39812   0.01959   0.00041  -0.01239  -0.01198   3.38614
   an4        4.80176  -0.00430  -0.00164  -0.00744  -0.00907   4.79269
   ach        2.18104   0.00004  -0.00010   0.00242   0.00232   2.18336
   anh        2.10356  -0.00013  -0.00041  -0.00510  -0.00550   2.09806
         Item               Value     Threshold  Converged?
 Maximum Force            0.019588     0.000450     NO 
 RMS     Force            0.008281     0.000300     NO 
 Maximum Displacement     0.023401     0.001800     NO 
 RMS     Displacement     0.009692     0.001200     NO 
 Predicted change in Energy=-8.619102D-05
 GradGradGradGradGradGradGradGradGradGradGradGradGradGradGradGradGradGrad

 ---------------------------------------------------------------------------------------------------
                            Z-MATRIX (ANGSTROMS AND DEGREES)
   CD    Cent   Atom    N1       Length/X        N2       Alpha/Y        N3        Beta/Z          J
 ---------------------------------------------------------------------------------------------------
      1         X 
      2         X        1   1.000000(     1)
      3      1  C        1   1.000000(     2)      2   90.000(     9)
      4      2  N        1   1.254896(     3)      2   90.000(    10)      3   72.121(    16)      0
      5      3  N        1   1.374483(     4)      2   90.000(    11)      3  133.335(    17)      0
      6      4  N        1   1.144035(     5)      2   90.000(    12)      3  194.012(    18)      0
      7      5  N        1   0.935824(     6)      2   90.000(    13)      3  274.601(    19)      0
      8      6  H        3   1.089533(     7)      4  125.097(    14)      5  180.000(    20)      0
      9      7  H        4   1.020027(     8)      5  120.210(    15)      6  180.000(    21)      0
 ---------------------------------------------------------------------------------------------------
                         Z-Matrix orientation:                         
 ---------------------------------------------------------------------
 Center     Atomic      Atomic             Coordinates (Angstroms)
 Number     Number       Type             X           Y           Z
 ---------------------------------------------------------------------
      1         -1           0        0.000000    0.000000    0.000000
      2         -1           0        0.000000    0.000000    1.000000
      3          6           0        1.000000    0.000000    0.000000
      4          7           0        0.385269   -1.194292    0.000000
      5          7           0       -0.943250   -0.999742    0.000000
      6          7           0       -1.109997    0.276990    0.000000
      7          7           0        0.075066    0.932809    0.000000
      8          1           0        2.079294    0.149022    0.000000
      9          1           0        0.765370   -2.140853    0.000000
 ---------------------------------------------------------------------
                    Distance matrix (angstroms):
                    1          2          3          4          5
     1  X    0.000000
     2  X    1.000000   0.000000
     3  C    1.000000   1.414214   0.000000
     4  N    1.254896   1.604607   1.343215   0.000000
     5  N    1.374483   1.699766   2.185339   1.342688   0.000000
     6  N    1.144035   1.519479   2.128100   2.097734   1.287575
     7  N    0.935824   1.369587   1.313634   2.149601   2.184427
     8  H    2.084627   2.312071   1.089533   2.161993   3.233486
     9  H    2.273553   2.483756   2.153672   1.020027   2.054633
                    6          7          8          9
     6  N    0.000000
     7  N    1.354427   0.000000
     8  H    3.191857   2.152034   0.000000
     9  H    3.059896   3.150225   2.640061   0.000000
 Stoichiometry    CH2N4
 Framework group  CS[SG(CH2N4)]
 Deg. of freedom    11
 Full point group                 CS      NOp   2
 Largest Abelian subgroup         CS      NOp   2
 Largest concise Abelian subgroup C1      NOp   1
                         Standard orientation:                         
 ---------------------------------------------------------------------
 Center     Atomic      Atomic             Coordinates (Angstroms)
 Number     Number       Type             X           Y           Z
 ---------------------------------------------------------------------
      1          6           0        1.067140    0.232969    0.000000
      2          7           0        0.000000    1.048714    0.000000
      3          7           0       -1.117053    0.303728    0.000000
      4          7           0       -0.720710   -0.921328    0.000000
      5          7           0        0.631057   -1.006171    0.000000
      6          1           0        2.106203    0.560735    0.000000
      7          1           0       -0.062102    2.066849    0.000000
 ---------------------------------------------------------------------
 Rotational constants (GHZ):     10.5895706     10.3962540      5.2460110
 Standard basis: 6-31G(d,p) (6D, 7F)
 There are    63 symmetry adapted cartesian basis functions of A'  symmetry.
 There are    22 symmetry adapted cartesian basis functions of A"  symmetry.
 There are    63 symmetry adapted basis functions of A'  symmetry.
 There are    22 symmetry adapted basis functions of A"  symmetry.
    85 basis functions,   154 primitive gaussians,    85 cartesian basis functions
    18 alpha electrons       18 beta electrons
       nuclear repulsion energy       167.1181081845 Hartrees.
 NAtoms=    7 NActive=    7 NUniq=    7 SFac= 1.00D+00 NAtFMM=   60 NAOKFM=F Big=F
 Integral buffers will be    131072 words long.
 Raffenetti 2 integral format.
 Two-electron integral symmetry is turned on.
 One-electron integrals computed using PRISM.
 NBasis=    85 RedAO= T EigKep=  3.71D-03  NBF=    63    22
 NBsUse=    85 1.00D-06 EigRej= -1.00D+00 NBFU=    63    22
 Initial guess from the checkpoint file:  "/tmp/rdj3/g09-23219/Gau-25253.chk"
 B after Tr=     0.000000    0.000000    0.000000
         Rot=    1.000000    0.000000    0.000000   -0.000492 Ang=  -0.06 deg.
 Initial guess orbital symmetries:
       Occupied  (A') (A') (A') (A') (A') (A') (A') (A') (A') (A')
                 (A') (A") (A') (A') (A") (A") (A') (A')
       Virtual   (A') (A') (A') (A') (A') (A') (A') (A') (A') (A')
                 (A') (A') (A') (A') (A') (A') (A') (A') (A') (A')
                 (A') (A') (A') (A') (A') (A') (A') (A') (A') (A')
                 (A') (A') (A') (A') (A') (A') (A') (A') (A') (A')
                 (A') (A') (A') (A') (A') (A') (A') (A') (A") (A")
                 (A") (A") (A") (A") (A") (A") (A") (A") (A") (A")
                 (A") (A") (A") (A") (A") (A") (A")
 ExpMin= 1.61D-01 ExpMax= 4.17D+03 ExpMxC= 6.27D+02 IAcc=1 IRadAn=         1 AccDes= 0.00D+00
 Harris functional with IExCor=  205 and IRadAn=       1 diagonalized for initial guess.
 HarFok:  IExCor=  205 AccDes= 0.00D+00 IRadAn=         1 IDoV= 1 UseB2=F ITyADJ=14
 ICtDFT=  3500011 ScaDFX=  1.000000  1.000000  1.000000  1.000000
 FoFCou: FMM=F IPFlag=           0 FMFlag=      100000 FMFlg1=           0
         NFxFlg=           0 DoJE=T BraDBF=F KetDBF=T FulRan=T
         wScrn=  0.000000 ICntrl=     500 IOpCl=  0 I1Cent=   200000004 NGrid=           0
         NMat0=    1 NMatS0=      1 NMatT0=    0 NMatD0=    1 NMtDS0=    0 NMtDT0=    0
 Petite list used in FoFCou.
 Keep J ints in memory in symmetry-blocked form, NReq=10267916.
 Requested convergence on RMS density matrix=1.00D-08 within 128 cycles.
 Requested convergence on MAX density matrix=1.00D-06.
 Requested convergence on             energy=1.00D-06.
 No special actions if energy rises.
 Integral accuracy reduced to 1.0D-05 until final iterations.
 Initial convergence to 1.0D-05 achieved.  Increase integral accuracy.
 SCF Done:  E(RS-VWN) =  -256.890954178     A.U. after   12 cycles
            NFock= 12  Conv=0.41D-08     -V/T= 2.0082
 Calling FoFJK, ICntrl=      2527 FMM=F ISym2X=1 I1Cent= 0 IOpClX= 0 NMat=1 NMatS=1 NMatT=0.
 ***** Axes restored to original set *****
 -------------------------------------------------------------------
 Center     Atomic                   Forces (Hartrees/Bohr)
 Number     Number              X              Y              Z
 -------------------------------------------------------------------
      1        6          -0.000251082   -0.002147911    0.000000000
      2        7           0.000370146    0.000112583    0.000000000
      3        7           0.002068875   -0.002846938    0.000000000
      4        7           0.001135988    0.004962402    0.000000000
      5        7          -0.002898849   -0.000266445    0.000000000
      6        1          -0.000418654   -0.000052284    0.000000000
      7        1          -0.000006424    0.000238593    0.000000000
 -------------------------------------------------------------------
 Cartesian Forces:  Max     0.004962402 RMS     0.001571119
 -----------------------------------------------------------------------------------------------
                       Internal Coordinate Forces (Hartree/Bohr or radian)
  Cent   Atom   N1       Length/X         N2         Alpha/Y        N3         Beta/Z          J
 -----------------------------------------------------------------------------------------------
         X 
         X        1   0.000000(     1)
      1  C        1  -0.000674(     2)      2   0.000000(     9)
      2  N        1  -0.000276(     3)      2   0.000000(    10)      3  -0.001150(    16)     0
      3  N        1   0.000703(     4)      2   0.000000(    11)      3  -0.009077(    17)     0
      4  N        1   0.000099(     5)      2   0.000000(    12)      3   0.011004(    18)     0
      5  N        1  -0.000498(     6)      2   0.000000(    13)      3  -0.005072(    19)     0
      6  H        3  -0.000422(     7)      4   0.000011(    14)      5   0.000000(    20)     0
      7  H        4  -0.000224(     8)      5   0.000160(    15)      6   0.000000(    21)     0
 -----------------------------------------------------------------------------------------------
 Internal  Forces:  Max     0.011003699 RMS     0.003324225

 GradGradGradGradGradGradGradGradGradGradGradGradGradGradGradGradGradGrad
 Berny optimization.
 Search for a local minimum.
 Step number   3 out of a maximum of   22
 All quantities printed in internal units (Hartrees-Bohrs-Radians)
 Update second derivatives using D2CorN and points    1    2    3
 DE= -1.06D-04 DEPred=-8.62D-05 R= 1.24D+00
 TightC=F SS=  1.41D+00  RLast= 3.36D-02 DXNew= 5.3742D-01 1.0072D-01
 Trust test= 1.24D+00 RLast= 3.36D-02 DXMaxT set to 3.20D-01
 The second derivative matrix:
                          rn1       rn2       rn3       rn4       rch
           rn1          0.66389
           rn2          0.02190   0.62496
           rn3          0.04765   0.04033   0.57355
           rn4          0.04340   0.02213   0.13911   0.63464
           rch          0.01353  -0.01071   0.00165   0.00014   0.38180
           rnh          0.01439  -0.01895  -0.00144   0.00050   0.00591
           an1          0.03091  -0.71933   0.06263  -0.08251   0.01432
           an2          0.76527  -0.13166  -0.62947   0.03950   0.05500
           an3         -0.08346   0.84071  -0.04778  -0.56932  -0.06673
           an4          0.06480   0.05663   0.69100  -0.11864   0.01367
           ach          0.04559  -0.00074  -0.00027   0.05102   0.00024
           anh         -0.10473   0.05518   0.00028  -0.00019  -0.00157
                          rnh       an1       an2       an3       an4
           rnh          0.49170
           an1          0.01753   4.53403
           an2          0.07168  -2.69002   5.94489
           an3         -0.08432  -0.03491  -3.19469   4.58778
           an4          0.02161  -0.13920  -0.15048  -1.11209   2.52905
           ach          0.00003  -0.10359   0.00862  -0.01054   0.07817
           anh         -0.00102   0.03069  -0.11948   0.03648  -0.01367
                          ach       anh
           ach          0.32000
           anh         -0.00015   0.32088
 ITU=  1  1  0
     Eigenvalues ---   -0.00455   0.13981   0.27001   0.32987   0.38043
     Eigenvalues ---    0.40715   0.48965   0.75087   1.20572   2.99616
     Eigenvalues ---    5.04714   9.59492
 RFO step:  Lambda=-4.63165553D-03 EMin=-4.55072136D-03
 I=     1 Eig=   -4.55D-03 Dot1=  3.65D-04
 I=     1 Stepn=  6.00D-01 RXN=   6.00D-01 EDone=F
 Mixed    1 eigenvectors in step.  Raw Step.Grad=  3.65D-04.
 RFO eigenvector is Hessian eigenvector with negative curvature.
 Taking step of  6.00D-01 in eigenvector direction(s).  Step.Grad= -4.05D-04.
 Quartic linear search produced a step of  0.22727.
 Maximum step size (   0.320) exceeded in Quadratic search.
    -- Step size scaled by   0.533
 Variable       Old X    -DE/DX   Delta X   Delta X   Delta X     New X
                                 (Linear)    (Quad)   (Total)
   rn1        2.37141  -0.00028   0.00099   0.15168   0.15267   2.52408
   rn2        2.59740   0.00070   0.00532   0.09249   0.09781   2.69521
   rn3        2.16191   0.00010   0.00088  -0.03845  -0.03757   2.12434
   rn4        1.76845  -0.00050  -0.00290  -0.14645  -0.14934   1.61911
   rch        2.05892  -0.00042  -0.00003  -0.00332  -0.00334   2.05558
   rnh        1.92757  -0.00022   0.00035  -0.00042  -0.00008   1.92749
   an1        1.25874  -0.00115  -0.00088  -0.06897  -0.06985   1.18889
   an2        2.32713  -0.00908  -0.00232  -0.12983  -0.13215   2.19498
   an3        3.38614   0.01100  -0.00272  -0.14209  -0.14481   3.24133
   an4        4.79269  -0.00507  -0.00206  -0.07605  -0.07811   4.71458
   ach        2.18336   0.00001   0.00053  -0.00297  -0.00244   2.18092
   anh        2.09806   0.00016  -0.00125   0.00463   0.00338   2.10144
         Item               Value     Threshold  Converged?
 Maximum Force            0.011004     0.000450     NO 
 RMS     Force            0.004393     0.000300     NO 
 Maximum Displacement     0.152674     0.001800     NO 
 RMS     Displacement     0.094001     0.001200     NO 
 Predicted change in Energy=-4.189654D-04
 GradGradGradGradGradGradGradGradGradGradGradGradGradGradGradGradGradGrad

 ---------------------------------------------------------------------------------------------------
                            Z-MATRIX (ANGSTROMS AND DEGREES)
   CD    Cent   Atom    N1       Length/X        N2       Alpha/Y        N3        Beta/Z          J
 ---------------------------------------------------------------------------------------------------
      1         X 
      2         X        1   1.000000(     1)
      3      1  C        1   1.000000(     2)      2   90.000(     9)
      4      2  N        1   1.335688(     3)      2   90.000(    10)      3   68.119(    16)      0
      5      3  N        1   1.426242(     4)      2   90.000(    11)      3  125.763(    17)      0
      6      4  N        1   1.124155(     5)      2   90.000(    12)      3  185.714(    18)      0
      7      5  N        1   0.856795(     6)      2   90.000(    13)      3  270.125(    19)      0
      8      6  H        3   1.087765(     7)      4  124.958(    14)      5  180.000(    20)      0
      9      7  H        4   1.019986(     8)      5  120.404(    15)      6  180.000(    21)      0
 ---------------------------------------------------------------------------------------------------
                         Z-Matrix orientation:                         
 ---------------------------------------------------------------------
 Center     Atomic      Atomic             Coordinates (Angstroms)
 Number     Number       Type             X           Y           Z
 ---------------------------------------------------------------------
      1         -1           0        0.000000    0.000000    0.000000
      2         -1           0        0.000000    0.000000    1.000000
      3          6           0        1.000000    0.000000    0.000000
      4          7           0        0.497792   -1.239462    0.000000
      5          7           0       -0.833544   -1.157312    0.000000
      6          7           0       -1.118568    0.111931    0.000000
      7          7           0        0.001876    0.856793    0.000000
      8          1           0        2.060308    0.242857    0.000000
      9          1           0        0.958833   -2.149304    0.000000
 ---------------------------------------------------------------------
                    Distance matrix (angstroms):
                    1          2          3          4          5
     1  X    0.000000
     2  X    1.000000   0.000000
     3  C    1.000000   1.414214   0.000000
     4  N    1.335688   1.668551   1.337340   0.000000
     5  N    1.426242   1.741886   2.168238   1.333868   0.000000
     6  N    1.124155   1.504568   2.121523   2.106866   1.300852
     7  N    0.856795   1.316851   1.315426   2.154116   2.180492
     8  H    2.074572   2.303009   1.087765   2.153771   3.214787
     9  H    2.353480   2.557121   2.149698   1.019986   2.048576
                    6          7          8          9
     6  N    0.000000
     7  N    1.345443   0.000000
     8  H    3.181572   2.148036   0.000000
     9  H    3.070632   3.154740   2.633568   0.000000
 Stoichiometry    CH2N4
 Framework group  CS[SG(CH2N4)]
 Deg. of freedom    11
 Full point group                 CS      NOp   2
 Largest Abelian subgroup         CS      NOp   2
 Largest concise Abelian subgroup C1      NOp   1
                         Standard orientation:                         
 ---------------------------------------------------------------------
 Center     Atomic      Atomic             Coordinates (Angstroms)
 Number     Number       Type             X           Y           Z
 ---------------------------------------------------------------------
      1          6           0        1.058010    0.233936    0.000000
      2          7           0        0.000000    1.051917    0.000000
      3          7           0       -1.108873    0.310565    0.000000
      4          7           0       -0.716015   -0.929548    0.000000
      5          7           0        0.627085   -1.008903    0.000000
      6          1           0        2.096376    0.558019    0.000000
      7          1           0       -0.059812    2.070148    0.000000
 ---------------------------------------------------------------------
 Rotational constants (GHZ):     10.6359970     10.4018421      5.2588082
 Standard basis: 6-31G(d,p) (6D, 7F)
 There are    63 symmetry adapted cartesian basis functions of A'  symmetry.
 There are    22 symmetry adapted cartesian basis functions of A"  symmetry.
 There are    63 symmetry adapted basis functions of A'  symmetry.
 There are    22 symmetry adapted basis functions of A"  symmetry.
    85 basis functions,   154 primitive gaussians,    85 cartesian basis functions
    18 alpha electrons       18 beta electrons
       nuclear repulsion energy       167.3005811238 Hartrees.
 NAtoms=    7 NActive=    7 NUniq=    7 SFac= 1.00D+00 NAtFMM=   60 NAOKFM=F Big=F
 Integral buffers will be    131072 words long.
 Raffenetti 2 integral format.
 Two-electron integral symmetry is turned on.
 One-electron integrals computed using PRISM.
 NBasis=    85 RedAO= T EigKep=  3.67D-03  NBF=    63    22
 NBsUse=    85 1.00D-06 EigRej= -1.00D+00 NBFU=    63    22
 Initial guess from the checkpoint file:  "/tmp/rdj3/g09-23219/Gau-25253.chk"
 B after Tr=     0.000000    0.000000    0.000000
         Rot=    1.000000    0.000000    0.000000    0.000241 Ang=   0.03 deg.
 Initial guess orbital symmetries:
       Occupied  (A') (A') (A') (A') (A') (A') (A') (A') (A') (A')
                 (A') (A") (A') (A') (A") (A") (A') (A')
       Virtual   (A') (A') (A') (A') (A') (A') (A') (A') (A') (A')
                 (A') (A') (A') (A') (A') (A') (A') (A') (A') (A')
                 (A') (A') (A') (A') (A') (A') (A') (A') (A') (A')
                 (A') (A') (A') (A') (A') (A') (A') (A') (A') (A')
                 (A') (A') (A') (A') (A') (A') (A') (A') (A") (A")
                 (A") (A") (A") (A") (A") (A") (A") (A") (A") (A")
                 (A") (A") (A") (A") (A") (A") (A")
 ExpMin= 1.61D-01 ExpMax= 4.17D+03 ExpMxC= 6.27D+02 IAcc=1 IRadAn=         1 AccDes= 0.00D+00
 Harris functional with IExCor=  205 and IRadAn=       1 diagonalized for initial guess.
 HarFok:  IExCor=  205 AccDes= 0.00D+00 IRadAn=         1 IDoV= 1 UseB2=F ITyADJ=14
 ICtDFT=  3500011 ScaDFX=  1.000000  1.000000  1.000000  1.000000
 FoFCou: FMM=F IPFlag=           0 FMFlag=      100000 FMFlg1=           0
         NFxFlg=           0 DoJE=T BraDBF=F KetDBF=T FulRan=T
         wScrn=  0.000000 ICntrl=     500 IOpCl=  0 I1Cent=   200000004 NGrid=           0
         NMat0=    1 NMatS0=      1 NMatT0=    0 NMatD0=    1 NMtDS0=    0 NMtDT0=    0
 Petite list used in FoFCou.
 Keep J ints in memory in symmetry-blocked form, NReq=10267916.
 Requested convergence on RMS density matrix=1.00D-08 within 128 cycles.
 Requested convergence on MAX density matrix=1.00D-06.
 Requested convergence on             energy=1.00D-06.
 No special actions if energy rises.
 Integral accuracy reduced to 1.0D-05 until final iterations.
 Initial convergence to 1.0D-05 achieved.  Increase integral accuracy.
 SCF Done:  E(RS-VWN) =  -256.890783263     A.U. after   13 cycles
            NFock= 13  Conv=0.17D-08     -V/T= 2.0081
 Calling FoFJK, ICntrl=      2527 FMM=F ISym2X=1 I1Cent= 0 IOpClX= 0 NMat=1 NMatS=1 NMatT=0.
 ***** Axes restored to original set *****
 -------------------------------------------------------------------
 Center     Atomic                   Forces (Hartrees/Bohr)
 Number     Number              X              Y              Z
 -------------------------------------------------------------------
      1        6           0.006685851    0.004958215    0.000000000
      2        7          -0.000805891    0.001586138    0.000000000
      3        7          -0.009907713    0.002145330    0.000000000
      4        7           0.002096840   -0.008440226    0.000000000
      5        7           0.001096132   -0.000797142    0.000000000
      6        1           0.000948372    0.000232091    0.000000000
      7        1          -0.000113591    0.000315594    0.000000000
 -------------------------------------------------------------------
 Cartesian Forces:  Max     0.009907713 RMS     0.003476122
 -----------------------------------------------------------------------------------------------
                       Internal Coordinate Forces (Hartree/Bohr or radian)
  Cent   Atom   N1       Length/X         N2         Alpha/Y        N3         Beta/Z          J
 -----------------------------------------------------------------------------------------------
         X 
         X        1   0.000000(     1)
      1  C        1   0.007623(     2)      2   0.000000(     9)
      2  N        1  -0.002128(     3)      2   0.000000(    10)      3   0.000309(    16)     0
      3  N        1   0.004076(     4)      2   0.000000(    11)      3   0.025002(    17)     0
      4  N        1  -0.002927(     5)      2   0.000000(    12)      3  -0.017397(    18)     0
      5  N        1  -0.000795(     6)      2   0.000000(    13)      3   0.001778(    19)     0
      6  H        3   0.000976(     7)      4   0.000030(    14)      5   0.000000(    20)     0
      7  H        4  -0.000333(     8)      5   0.000080(    15)      6   0.000000(    21)     0
 -----------------------------------------------------------------------------------------------
 Internal  Forces:  Max     0.025002028 RMS     0.006971203

 GradGradGradGradGradGradGradGradGradGradGradGradGradGradGradGradGradGrad
 Berny optimization.
 Search for a local minimum.
 Step number   4 out of a maximum of   22
 All quantities printed in internal units (Hartrees-Bohrs-Radians)
 Update second derivatives using D2CorN and points    1    2    4    3
 The second derivative matrix:
                          rn1       rn2       rn3       rn4       rch
           rn1          0.66983
           rn2          0.02342   0.61798
           rn3          0.05162   0.04258   0.57489
           rn4          0.04136   0.02592   0.13853   0.63505
           rch          0.01438  -0.00886   0.00443   0.00140   0.38382
           rnh          0.01677  -0.01714   0.00122   0.00114   0.00827
           an1          0.02966  -0.71228   0.06496  -0.08228   0.01618
           an2          0.73677  -0.10755  -0.61491   0.05033   0.05647
           an3         -0.06371   0.81062  -0.06614  -0.57116  -0.06653
           an4          0.05458   0.07174   0.69335  -0.12232   0.01100
           ach          0.04567  -0.00050  -0.00020   0.05111   0.00048
           anh         -0.10511   0.05400  -0.00031  -0.00024  -0.00232
                          rnh       an1       an2       an3       an4
           rnh          0.49438
           an1          0.01950   4.53467
           an2          0.07473  -2.68169   5.96731
           an3         -0.08794  -0.04135  -3.18822   4.58203
           an4          0.01959  -0.13997  -0.15030  -1.10926   2.52432
           ach          0.00020  -0.10307   0.01336  -0.01648   0.08066
           anh         -0.00169   0.02929  -0.13010   0.05023  -0.01879
                          ach       anh
           ach          0.32004
           anh         -0.00036   0.32161
 ITU=  0  1  1  0
 Energy rises -- skip Quadratic search.
 Quartic linear search produced a step of -0.68802.
 Variable       Old X    -DE/DX   Delta X   Delta X   Delta X     New X
                                 (Linear)    (Quad)   (Total)
   rn1        2.52408  -0.00213  -0.10504   0.00000  -0.10504   2.41904
   rn2        2.69521   0.00408  -0.06730   0.00000  -0.06730   2.62791
   rn3        2.12434  -0.00293   0.02585   0.00000   0.02585   2.15019
   rn4        1.61911  -0.00079   0.10275   0.00000   0.10275   1.72186
   rch        2.05558   0.00098   0.00230   0.00000   0.00230   2.05788
   rnh        1.92749  -0.00033   0.00005   0.00000   0.00005   1.92755
   an1        1.18889   0.00031   0.04806   0.00000   0.04806   1.23695
   an2        2.19498   0.02500   0.09092   0.00000   0.09092   2.28590
   an3        3.24133  -0.01740   0.09963   0.00000   0.09963   3.34096
   an4        4.71458   0.00178   0.05374   0.00000   0.05374   4.76832
   ach        2.18092   0.00003   0.00168   0.00000   0.00168   2.18260
   anh        2.10144   0.00008  -0.00233   0.00000  -0.00233   2.09911
         Item               Value     Threshold  Converged?
 Maximum Force            0.025002     0.000450     NO 
 RMS     Force            0.008956     0.000300     NO 
 Maximum Displacement     0.105043     0.001800     NO 
 RMS     Displacement     0.064674     0.001200     NO 
 Predicted change in Energy=-7.745823D-05
 GradGradGradGradGradGradGradGradGradGradGradGradGradGradGradGradGradGrad

 ---------------------------------------------------------------------------------------------------
                            Z-MATRIX (ANGSTROMS AND DEGREES)
   CD    Cent   Atom    N1       Length/X        N2       Alpha/Y        N3        Beta/Z          J
 ---------------------------------------------------------------------------------------------------
      1         X 
      2         X        1   1.000000(     1)
      3      1  C        1   1.000000(     2)      2   90.000(     9)
      4      2  N        1   1.280102(     3)      2   90.000(    10)      3   70.872(    16)      0
      5      3  N        1   1.390631(     4)      2   90.000(    11)      3  130.972(    17)      0
      6      4  N        1   1.137833(     5)      2   90.000(    12)      3  191.423(    18)      0
      7      5  N        1   0.911169(     6)      2   90.000(    13)      3  273.205(    19)      0
      8      6  H        3   1.088982(     7)      4  125.054(    14)      5  180.000(    20)      0
      9      7  H        4   1.020014(     8)      5  120.270(    15)      6  180.000(    21)      0
 ---------------------------------------------------------------------------------------------------
                         Z-Matrix orientation:                         
 ---------------------------------------------------------------------
 Center     Atomic      Atomic             Coordinates (Angstroms)
 Number     Number       Type             X           Y           Z
 ---------------------------------------------------------------------
      1         -1           0        0.000000    0.000000    0.000000
      2         -1           0        0.000000    0.000000    1.000000
      3          6           0        1.000000    0.000000    0.000000
      4          7           0        0.419460   -1.209427    0.000000
      5          7           0       -0.911831   -1.049962    0.000000
      6          7           0       -1.115294    0.225348    0.000000
      7          7           0        0.050936    0.909744    0.000000
      8          1           0        2.074321    0.178087    0.000000
      9          1           0        0.825205   -2.145269    0.000000
 ---------------------------------------------------------------------
                    Distance matrix (angstroms):
                    1          2          3          4          5
     1  X    0.000000
     2  X    1.000000   0.000000
     3  C    1.000000   1.414214   0.000000
     4  N    1.280102   1.624396   1.341544   0.000000
     5  N    1.390631   1.712850   2.181173   1.340807   0.000000
     6  N    1.137833   1.514815   2.127264   2.100964   1.291438
     7  N    0.911169   1.352859   1.314670   2.150976   2.183430
     8  H    2.081952   2.309659   1.088982   2.159574   3.228809
     9  H    2.298509   2.506620   2.152378   1.020014   2.053531
                    6          7          8          9
     6  N    0.000000
     7  N    1.352217   0.000000
     8  H    3.189966   2.151606   0.000000
     9  H    3.063554   3.151602   2.637855   0.000000
 Stoichiometry    CH2N4
 Framework group  CS[SG(CH2N4)]
 Deg. of freedom    11
 Full point group                 CS      NOp   2
 Largest Abelian subgroup         CS      NOp   2
 Largest concise Abelian subgroup C1      NOp   1
                         Standard orientation:                         
 ---------------------------------------------------------------------
 Center     Atomic      Atomic             Coordinates (Angstroms)
 Number     Number       Type             X           Y           Z
 ---------------------------------------------------------------------
      1          6           0        1.064912    0.233851    0.000000
      2          7           0        0.000000    1.049757    0.000000
      3          7           0       -1.115093    0.305222    0.000000
      4          7           0       -0.719545   -0.924149    0.000000
      5          7           0        0.630142   -1.006846    0.000000
      6          1           0        2.103562    0.561096    0.000000
      7          1           0       -0.061567    2.067911    0.000000
 ---------------------------------------------------------------------
 Rotational constants (GHZ):     10.5766326     10.4139138      5.2473213
 Standard basis: 6-31G(d,p) (6D, 7F)
 There are    63 symmetry adapted cartesian basis functions of A'  symmetry.
 There are    22 symmetry adapted cartesian basis functions of A"  symmetry.
 There are    63 symmetry adapted basis functions of A'  symmetry.
 There are    22 symmetry adapted basis functions of A"  symmetry.
    85 basis functions,   154 primitive gaussians,    85 cartesian basis functions
    18 alpha electrons       18 beta electrons
       nuclear repulsion energy       167.1319560202 Hartrees.
 NAtoms=    7 NActive=    7 NUniq=    7 SFac= 1.00D+00 NAtFMM=   60 NAOKFM=F Big=F
 Integral buffers will be    131072 words long.
 Raffenetti 2 integral format.
 Two-electron integral symmetry is turned on.
 One-electron integrals computed using PRISM.
 NBasis=    85 RedAO= T EigKep=  3.70D-03  NBF=    63    22
 NBsUse=    85 1.00D-06 EigRej= -1.00D+00 NBFU=    63    22
 Lowest energy guess from the checkpoint file:  "/tmp/rdj3/g09-23219/Gau-25253.chk"
 B after Tr=     0.000000    0.000000    0.000000
         Rot=    1.000000    0.000000    0.000000   -0.000060 Ang=  -0.01 deg.
 B after Tr=     0.000000    0.000000    0.000000
         Rot=    1.000000    0.000000    0.000000   -0.000300 Ang=  -0.03 deg.
 Initial guess orbital symmetries:
       Occupied  (A") (A') (A') (A') (A") (A') (A') (A') (A") (A')
                 (A') (A') (A') (A') (A') (A') (A') (A')
       Virtual   (A") (A') (A') (A') (A") (A') (A') (A') (A") (A')
                 (A') (A') (A') (A') (A') (A') (A') (A') (A') (A')
                 (A') (A') (A') (A') (A') (A') (A') (A') (A') (A')
                 (A') (A') (A') (A') (A') (A') (A') (A') (A') (A')
                 (A') (A') (A') (A') (A') (A') (A') (A') (A") (A")
                 (A") (A") (A") (A") (A") (A") (A") (A") (A") (A")
                 (A") (A") (A") (A") (A") (A") (A")
 Keep J ints in memory in symmetry-blocked form, NReq=10267916.
 Requested convergence on RMS density matrix=1.00D-08 within 128 cycles.
 Requested convergence on MAX density matrix=1.00D-06.
 Requested convergence on             energy=1.00D-06.
 No special actions if energy rises.
 Integral accuracy reduced to 1.0D-05 until final iterations.
 An orbital has undefined symmetry, so N**3 symmetry is turned off.
 Initial convergence to 1.0D-05 achieved.  Increase integral accuracy.
 SCF Done:  E(RS-VWN) =  -256.890981992     A.U. after   10 cycles
            NFock= 10  Conv=0.38D-08     -V/T= 2.0082
 Calling FoFJK, ICntrl=      2527 FMM=F ISym2X=1 I1Cent= 0 IOpClX= 0 NMat=1 NMatS=1 NMatT=0.
 ***** Axes restored to original set *****
 -------------------------------------------------------------------
 Center     Atomic                   Forces (Hartrees/Bohr)
 Number     Number              X              Y              Z
 -------------------------------------------------------------------
      1        6           0.001068047   -0.000078557    0.000000000
      2        7          -0.000352530    0.000679584    0.000000000
      3        7          -0.000816625   -0.001074921    0.000000000
      4        7           0.001830739    0.000900768    0.000000000
      5        7          -0.001632700   -0.000724127    0.000000000
      6        1          -0.000014296    0.000054595    0.000000000
      7        1          -0.000082635    0.000242659    0.000000000
 -------------------------------------------------------------------
 Cartesian Forces:  Max     0.001830739 RMS     0.000722999
 -----------------------------------------------------------------------------------------------
                       Internal Coordinate Forces (Hartree/Bohr or radian)
  Cent   Atom   N1       Length/X         N2         Alpha/Y        N3         Beta/Z          J
 -----------------------------------------------------------------------------------------------
         X 
         X        1   0.000000(     1)
      1  C        1   0.001013(     2)      2   0.000000(     9)
      2  N        1  -0.000996(     3)      2   0.000000(    10)      3   0.000169(    16)     0
      3  N        1   0.001360(     4)      2   0.000000(    11)      3  -0.000255(    17)     0
      4  N        1  -0.001616(     5)      2   0.000000(    12)      3   0.002678(    18)     0
      5  N        1  -0.000814(     6)      2   0.000000(    13)      3  -0.002737(    19)     0
      6  H        3  -0.000005(     7)      4   0.000116(    14)      5   0.000000(    20)     0
      7  H        4  -0.000256(     8)      5   0.000040(    15)      6   0.000000(    21)     0
 -----------------------------------------------------------------------------------------------
 Internal  Forces:  Max     0.002737183 RMS     0.001023066

 GradGradGradGradGradGradGradGradGradGradGradGradGradGradGradGradGradGrad
 Berny optimization.
 Search for a local minimum.
 Step number   5 out of a maximum of   22
 All quantities printed in internal units (Hartrees-Bohrs-Radians)
 Update second derivatives using D2CorN and points    1    2    3    5
 The second derivative matrix:
                          rn1       rn2       rn3       rn4       rch
           rn1          0.67202
           rn2          0.02314   0.61531
           rn3          0.05565   0.04688   0.57573
           rn4          0.04137   0.02803   0.13527   0.63325
           rch          0.01358  -0.00999   0.00520   0.00228   0.38352
           rnh          0.01678  -0.01756   0.00236   0.00151   0.00809
           an1          0.02544  -0.71553   0.06327  -0.07950   0.01597
           an2          0.71906  -0.12416  -0.62116   0.06098   0.05275
           an3         -0.04334   0.83544  -0.06517  -0.58618  -0.05934
           an4          0.04543   0.06244   0.68807  -0.11811   0.00836
           ach          0.04533  -0.00081  -0.00014   0.05146   0.00047
           anh         -0.10459   0.05457  -0.00058  -0.00080  -0.00223
                          rnh       an1       an2       an3       an4
           rnh          0.49441
           an1          0.01879   4.53769
           an2          0.06922  -2.67270   5.99290
           an3         -0.07978  -0.04507  -3.19024   4.54649
           an4          0.01574  -0.13512  -0.13415  -1.11560   2.53494
           ach          0.00017  -0.10292   0.01379  -0.01627   0.08092
           anh         -0.00160   0.02923  -0.12989   0.04866  -0.01862
                          ach       anh
           ach          0.32004
           anh         -0.00035   0.32158
 ITU=  0  0  1  1  0
     Eigenvalues ---    0.00228   0.14635   0.27288   0.33066   0.38221
     Eigenvalues ---    0.40915   0.49284   0.75895   1.20477   2.99682
     Eigenvalues ---    5.04125   9.58972
 RFO step:  Lambda=-2.37727501D-05 EMin= 2.27971822D-03
 Quartic linear search produced a step of  0.08855.
 Variable       Old X    -DE/DX   Delta X   Delta X   Delta X     New X
                                 (Linear)    (Quad)   (Total)
   rn1        2.41904  -0.00100   0.00422   0.02220   0.02642   2.44546
   rn2        2.62791   0.00136   0.00270   0.02555   0.02825   2.65616
   rn3        2.15019  -0.00162  -0.00104  -0.00817  -0.00921   2.14099
   rn4        1.72186  -0.00081  -0.00413  -0.02884  -0.03297   1.68889
   rch        2.05788  -0.00001  -0.00009  -0.00020  -0.00029   2.05759
   rnh        1.92755  -0.00026   0.00000  -0.00070  -0.00070   1.92684
   an1        1.23695   0.00017  -0.00193  -0.00969  -0.01162   1.22533
   an2        2.28590  -0.00026  -0.00365  -0.02144  -0.02509   2.26081
   an3        3.34096   0.00268  -0.00400  -0.02660  -0.03060   3.31036
   an4        4.76832  -0.00274  -0.00216  -0.01459  -0.01674   4.75158
   ach        2.18260   0.00012  -0.00007   0.00208   0.00202   2.18462
   anh        2.09911   0.00004   0.00009  -0.00171  -0.00162   2.09749
         Item               Value     Threshold  Converged?
 Maximum Force            0.002737     0.000450     NO 
 RMS     Force            0.001321     0.000300     NO 
 Maximum Displacement     0.032967     0.001800     NO 
 RMS     Displacement     0.019698     0.001200     NO 
 Predicted change in Energy=-1.045638D-05
 GradGradGradGradGradGradGradGradGradGradGradGradGradGradGradGradGradGrad

 ---------------------------------------------------------------------------------------------------
                            Z-MATRIX (ANGSTROMS AND DEGREES)
   CD    Cent   Atom    N1       Length/X        N2       Alpha/Y        N3        Beta/Z          J
 ---------------------------------------------------------------------------------------------------
      1         X 
      2         X        1   1.000000(     1)
      3      1  C        1   1.000000(     2)      2   90.000(     9)
      4      2  N        1   1.294081(     3)      2   90.000(    10)      3   70.206(    16)      0
      5      3  N        1   1.405579(     4)      2   90.000(    11)      3  129.535(    17)      0
      6      4  N        1   1.132962(     5)      2   90.000(    12)      3  189.670(    18)      0
      7      5  N        1   0.893723(     6)      2   90.000(    13)      3  272.245(    19)      0
      8      6  H        3   1.088827(     7)      4  125.169(    14)      5  180.000(    20)      0
      9      7  H        4   1.019641(     8)      5  120.178(    15)      6  180.000(    21)      0
 ---------------------------------------------------------------------------------------------------
                         Z-Matrix orientation:                         
 ---------------------------------------------------------------------
 Center     Atomic      Atomic             Coordinates (Angstroms)
 Number     Number       Type             X           Y           Z
 ---------------------------------------------------------------------
      1         -1           0        0.000000    0.000000    0.000000
      2         -1           0        0.000000    0.000000    1.000000
      3          6           0        1.000000    0.000000    0.000000
      4          7           0        0.438220   -1.217624    0.000000
      5          7           0       -0.894714   -1.084038    0.000000
      6          7           0       -1.116866    0.190298    0.000000
      7          7           0        0.035014    0.893037    0.000000
      8          1           0        2.070933    0.196591    0.000000
      9          1           0        0.860321   -2.145794    0.000000
 ---------------------------------------------------------------------
                    Distance matrix (angstroms):
                    1          2          3          4          5
     1  X    0.000000
     2  X    1.000000   0.000000
     3  C    1.000000   1.414214   0.000000
     4  N    1.294081   1.635434   1.340972   0.000000
     5  N    1.405579   1.725008   2.182906   1.339612   0.000000
     6  N    1.132962   1.511159   2.125402   2.097746   1.293555
     7  N    0.893723   1.341172   1.314806   2.148829   2.184770
     8  H    2.080243   2.308118   1.088827   2.160036   3.230336
     9  H    2.311835   2.518846   2.150335   1.019641   2.051213
                    6          7          8          9
     6  N    0.000000
     7  N    1.349322   0.000000
     8  H    3.187804   2.151744   0.000000
     9  H    3.060489   3.148909   2.636730   0.000000
[...]
   XY=              1.7101   XZ=              0.0000   YZ=              0.0000
 Traceless Quadrupole moment (field-independent basis, Debye-Ang):
   XX=             -1.0842   YY=              1.6872   ZZ=             -0.6030
   XY=              1.7101   XZ=              0.0000   YZ=              0.0000
 Octapole moment (field-independent basis, Debye-Ang**2):
  XXX=             11.6064  YYY=             22.2688  ZZZ=              0.0000  XYY=             -0.5745
  XXY=              4.3722  XXZ=              0.0000  XZZ=             -0.6787  YZZ=              0.4450
  YYZ=              0.0000  XYZ=              0.0000
 Hexadecapole moment (field-independent basis, Debye-Ang**3):
 XXXX=           -140.4074 YYYY=           -118.0217 ZZZZ=            -24.3665 XXXY=              6.5442
 XXXZ=              0.0000 YYYX=             -0.8005 YYYZ=              0.0000 ZZZX=              0.0000
 ZZZY=              0.0000 XXYY=            -52.9349 XXZZ=            -30.0177 YYZZ=            -28.3160
 XXYZ=              0.0000 YYXZ=              0.0000 ZZXY=             -0.2157
 N-N= 1.671656176621D+02 E-N=-9.349547783955D+02  KE= 2.548121474147D+02
 Symmetry A'   KE= 2.453140918375D+02
 Symmetry A"   KE= 9.498055577172D+00
  Exact polarizability:  38.344   1.131  37.761   0.000   0.000  15.878
 Approx polarizability:  81.928   0.369  86.535   0.000   0.000  28.474
 Calling FoFJK, ICntrl=    100527 FMM=F ISym2X=1 I1Cent= 0 IOpClX= 0 NMat=1 NMatS=1 NMatT=0.
 Full mass-weighted force constant matrix:
 Low frequencies ---   -9.7109   -4.1348   -0.0009   -0.0001    0.0011    0.8431
 Low frequencies ---  610.2695  686.0627  736.2538
 Diagonal vibrational polarizability:
        1.2231636       1.0624226       7.7142715
 Harmonic frequencies (cm**-1), IR intensities (KM/Mole), Raman scattering
 activities (A**4/AMU), depolarization ratios for plane and unpolarized
 incident light, reduced masses (AMU), force constants (mDyne/A),
 and normal coordinates:
                      1                      2                      3
                     A"                     A"                     A"
 Frequencies --    610.2695               686.0626               736.2538
 Red. masses --      1.8103                 1.8454                 8.4140
 Frc consts  --      0.3972                 0.5118                 2.6873
 IR Inten    --     81.3170                11.0047                 7.3783
  Atom  AN      X      Y      Z        X      Y      Z        X      Y      Z
     1   6     0.00   0.00  -0.09     0.00   0.00   0.16     0.00   0.00  -0.11
     2   7     0.00   0.00   0.22     0.00   0.00  -0.09     0.00   0.00  -0.12
     3   7     0.00   0.00  -0.09     0.00   0.00   0.09     0.00   0.00   0.42
     4   7     0.00   0.00   0.00     0.00   0.00   0.03     0.00   0.00  -0.50
     5   7     0.00   0.00   0.03     0.00   0.00  -0.16     0.00   0.00   0.34
     6   1     0.00   0.00  -0.25     0.00   0.00   0.54     0.00   0.00  -0.05
     7   1     0.00   0.00  -0.94     0.00   0.00  -0.80     0.00   0.00  -0.65
                      4                      5                      6
                     A"                     A'                     A'
 Frequencies --    806.3026               957.8717               996.0655
 Red. masses --      1.4018                 3.4733                 4.3755
 Frc consts  --      0.5370                 1.8776                 2.5577
 IR Inten    --     20.3635                 4.0622                 3.0250
  Atom  AN      X      Y      Z        X      Y      Z        X      Y      Z
     1   6     0.00   0.00   0.18     0.16   0.09   0.00    -0.25  -0.04   0.00
     2   7     0.00   0.00  -0.04     0.07  -0.01   0.00     0.03   0.38   0.00
     3   7     0.00   0.00   0.01     0.10  -0.11   0.00     0.12  -0.11   0.00
     4   7     0.00   0.00  -0.02    -0.06  -0.14   0.00     0.10  -0.08   0.00
     5   7     0.00   0.00  -0.03    -0.24   0.23   0.00    -0.03  -0.13   0.00
     6   1     0.00   0.00  -0.98     0.38  -0.60   0.00    -0.04  -0.76   0.00
     7   1     0.00   0.00  -0.09    -0.55  -0.05   0.00    -0.08   0.38   0.00
                      7                      8                      9
                     A'                     A'                     A'
 Frequencies --   1060.8014              1098.2279              1131.6663
 Red. masses --      2.6318                 5.2364                 2.2218
 Frc consts  --      1.7449                 3.7210                 1.6764
 IR Inten    --     37.1819                13.6854                 7.2261
  Atom  AN      X      Y      Z        X      Y      Z        X      Y      Z
     1   6    -0.03  -0.03   0.00    -0.17   0.05   0.00     0.05  -0.10   0.00
     2   7    -0.12  -0.02   0.00    -0.01  -0.14   0.00    -0.15  -0.06   0.00
     3   7     0.29   0.11   0.00     0.11   0.10   0.00    -0.05   0.08   0.00
     4   7    -0.09  -0.02   0.00     0.37  -0.05   0.00     0.17   0.13   0.00
     5   7     0.02  -0.07   0.00    -0.34   0.02   0.00     0.01  -0.02   0.00
     6   1    -0.18   0.45   0.00    -0.34   0.50   0.00     0.25  -0.76   0.00
     7   1    -0.80  -0.06   0.00     0.54  -0.12   0.00    -0.51  -0.08   0.00
                     10                     11                     12
                     A'                     A'                     A'
 Frequencies --   1241.1120              1289.2191              1442.2479
 Red. masses --      2.5269                10.9797                 3.7716
 Frc consts  --      2.2933                10.7521                 4.6223
 IR Inten    --      6.5048                10.7415                 7.0719
  Atom  AN      X      Y      Z        X      Y      Z        X      Y      Z
     1   6     0.13   0.02   0.00     0.32   0.06   0.00    -0.23   0.24   0.00
     2   7     0.10   0.09   0.00    -0.09   0.20   0.00     0.25  -0.15   0.00
     3   7    -0.11  -0.12   0.00    -0.25   0.46   0.00    -0.08   0.12   0.00
     4   7     0.07   0.12   0.00     0.07  -0.55   0.00     0.00  -0.04   0.00
     5   7    -0.13  -0.16   0.00    -0.02  -0.20   0.00     0.08  -0.08   0.00
     6   1    -0.04   0.61   0.00     0.34   0.18   0.00    -0.06  -0.41   0.00
     7   1    -0.71   0.05   0.00    -0.08   0.25   0.00    -0.73  -0.24   0.00
                     13                     14                     15
                     A'                     A'                     A'
 Frequencies --   1479.7756              3228.1358              3568.5605
 Red. masses --      4.4703                 1.1015                 1.0838
 Frc consts  --      5.7673                 6.7628                 8.1321
 IR Inten    --     13.3498                 4.1448                87.1517
  Atom  AN      X      Y      Z        X      Y      Z        X      Y      Z
     1   6     0.11   0.38   0.00     0.09   0.03   0.00     0.00   0.00   0.00
     2   7    -0.15  -0.05   0.00     0.00   0.00   0.00    -0.01   0.08   0.00
     3   7     0.11  -0.06   0.00     0.00   0.00   0.00     0.00   0.00   0.00
     4   7    -0.06   0.09   0.00     0.00   0.00   0.00     0.00   0.00   0.00
     5   7    -0.06  -0.27   0.00     0.00   0.00   0.00     0.00   0.00   0.00
     6   1     0.40  -0.41   0.00    -0.95  -0.29   0.00    -0.02   0.00   0.00
     7   1     0.62  -0.01   0.00     0.01   0.02   0.00     0.06  -0.99   0.00

 -------------------
 - Thermochemistry -
 -------------------
 Temperature   298.150 Kelvin.  Pressure   1.00000 Atm.
 Atom     1 has atomic number  6 and mass  12.00000
 Atom     2 has atomic number  7 and mass  14.00307
 Atom     3 has atomic number  7 and mass  14.00307
 Atom     4 has atomic number  7 and mass  14.00307
 Atom     5 has atomic number  7 and mass  14.00307
 Atom     6 has atomic number  1 and mass   1.00783
 Atom     7 has atomic number  1 and mass   1.00783
 Molecular mass:    70.02795 amu.
 Principal axes and moments of inertia in atomic units:
                           1         2         3
     Eigenvalues --   170.55182 173.23342 343.78523
           X            0.79129   0.61144   0.00000
           Y           -0.61144   0.79129   0.00000
           Z            0.00000   0.00000   1.00000
 This molecule is an asymmetric top.
 Rotational symmetry number  1.
 Rotational temperatures (Kelvin)      0.50784     0.49998     0.25194
 Rotational constants (GHZ):          10.58178    10.41797     5.24962
 Zero-point vibrational energy     121615.8 (Joules/Mol)
                                   29.06687 (Kcal/Mol)
 Warning -- explicit consideration of   1 degrees of freedom as
           vibrations may cause significant error
 Vibrational temperatures:    878.04   987.09  1059.30  1160.09  1378.16
          (Kelvin)           1433.11  1526.25  1580.10  1628.21  1785.68
                             1854.90  2075.07  2129.06  4644.56  5134.36
 
 Zero-point correction=                           0.046321 (Hartree/Particle)
 Thermal correction to Energy=                    0.049796
 Thermal correction to Enthalpy=                  0.050740
 Thermal correction to Gibbs Free Energy=         0.020237
 Sum of electronic and zero-point Energies=           -256.844670
 Sum of electronic and thermal Energies=              -256.841195
 Sum of electronic and thermal Enthalpies=            -256.840250
 Sum of electronic and thermal Free Energies=         -256.870754
 
                     E (Thermal)             CV                S
                      KCal/Mol        Cal/Mol-Kelvin    Cal/Mol-Kelvin
 Total                   31.248             11.393             64.201
 Electronic               0.000              0.000              0.000
 Translational            0.889              2.981             38.656
 Rotational               0.889              2.981             23.833
 Vibrational             29.470              5.431              1.711
 Vibration     1          0.969              1.010              0.432
                       Q            Log10(Q)             Ln(Q)
 Total Bot       0.491865D-09         -9.308154        -21.432817
 Total V=0       0.995371D+12         11.997985         27.626381
 Vib (Bot)       0.591901D-21        -21.227751        -48.878702
 Vib (Bot)    1  0.242091D+00         -0.616022         -1.418443
 Vib (V=0)       0.119781D+01          0.078389          0.180496
 Vib (V=0)    1  0.105552D+01          0.023468          0.054038
 Electronic      0.100000D+01          0.000000          0.000000
 Translational   0.230336D+08          7.362362         16.952466
 Rotational      0.360773D+05          4.557234         10.493419
 ***** Axes restored to original set *****
 -------------------------------------------------------------------
 Center     Atomic                   Forces (Hartrees/Bohr)
 Number     Number              X              Y              Z
 -------------------------------------------------------------------
      1        6           0.000003733    0.000031534    0.000000000
      2        7           0.000026016   -0.000003816    0.000000000
      3        7          -0.000017877   -0.000008719    0.000000000
      4        7           0.000001896   -0.000012611    0.000000000
      5        7          -0.000010061   -0.000008550    0.000000000
      6        1          -0.000000767    0.000002556    0.000000000
      7        1          -0.000002940   -0.000000394    0.000000000
 -------------------------------------------------------------------
 Cartesian Forces:  Max     0.000031534 RMS     0.000010797
 -----------------------------------------------------------------------------------------------
                       Internal Coordinate Forces (Hartree/Bohr or radian)
  Cent   Atom   N1       Length/X         N2         Alpha/Y        N3         Beta/Z          J
 -----------------------------------------------------------------------------------------------
         X 
         X        1   0.000000(     1)
      1  C        1   0.000001(     2)      2   0.000000(     9)
      2  N        1   0.000015(     3)      2   0.000000(    10)      3  -0.000051(    16)     0
      3  N        1   0.000016(     4)      2   0.000000(    11)      3   0.000025(    17)     0
      4  N        1  -0.000004(     5)      2   0.000000(    12)      3  -0.000026(    18)     0
      5  N        1  -0.000009(     6)      2   0.000000(    13)      3  -0.000016(    19)     0
      6  H        3   0.000000(     7)      4   0.000005(    14)      5   0.000000(    20)     0
      7  H        4  -0.000001(     8)      5  -0.000005(    15)      6   0.000000(    21)     0
 -----------------------------------------------------------------------------------------------
 Internal  Forces:  Max     0.000051041 RMS     0.000015146

 GradGradGradGradGradGradGradGradGradGradGradGradGradGradGradGradGradGrad
 Berny optimization.
 Search for a local minimum.
 Step number   1 out of a maximum of    2
 All quantities printed in internal units (Hartrees-Bohrs-Radians)
 Second derivative matrix not updated -- analytic derivatives used.
 The second derivative matrix:
                          rn1       rn2       rn3       rn4       rch
           rn1          0.58333
           rn2         -0.04173   0.57477
           rn3          0.06867  -0.01335   0.54583
           rn4          0.09482   0.08118   0.01405   0.54577
           rch         -0.00285  -0.00181   0.00026  -0.00207   0.36507
           rnh          0.01308  -0.00697  -0.00060  -0.00051   0.00030
           an1          0.11755  -0.37759  -0.23264   0.14133   0.01226
           an2          0.25948  -0.10014  -0.35900  -0.17045   0.00285
           an3          0.22750   0.47367   0.16127  -0.25280  -0.00168
           an4         -0.11993   0.15819   0.30528  -0.13886  -0.01455
           ach          0.03375   0.01259  -0.01435   0.02600   0.00289
           anh         -0.04718   0.01907   0.02565  -0.02116  -0.00102
                          rnh       an1       an2       an3       an4
           rnh          0.45206
           an1         -0.01531   2.76006
           an2          0.01877  -1.16615   3.06705
           an3          0.00106  -0.34706  -1.42867   2.24646
           an4         -0.00384  -0.23335  -0.19038  -0.35889   1.36155
           ach          0.00054   0.00209  -0.02055  -0.00545   0.07620
           anh         -0.00066  -0.04263  -0.00630   0.01112  -0.00510
                          ach       anh
           ach          0.19629
           anh          0.00074   0.19508
 ITU=  0
     Eigenvalues ---    0.00001   0.14769   0.19353   0.26461   0.36525
     Eigenvalues ---    0.45134   0.60086   0.68223   0.80144   1.76074
     Eigenvalues ---    3.09858   4.52704
 Quadratic step=4.931D+00 exceeds max=3.000D-01 adjusted using Lamda=-1.052D-04.
 Angle between NR and scaled steps=   0.01 degrees.
 Angle between quadratic step and forces=  60.96 degrees.
 Linear search not attempted -- first point.
 Variable       Old X    -DE/DX   Delta X   Delta X   Delta X     New X
                                 (Linear)    (Quad)   (Total)
   rn1        2.44105   0.00002   0.00000   0.13360   0.13360   2.57465
   rn2        2.65059   0.00002   0.00000   0.10899   0.10899   2.75958
   rn3        2.14458   0.00000   0.00000  -0.02459  -0.02459   2.11999
   rn4        1.69411  -0.00001   0.00000  -0.14182  -0.14182   1.55229
   rch        2.05772   0.00000   0.00000   0.00001   0.00001   2.05773
   rnh        1.92707   0.00000   0.00000   0.00000   0.00000   1.92708
   an1        1.22751  -0.00005   0.00000  -0.05555  -0.05555   1.17196
   an2        2.26635   0.00002   0.00000  -0.10943  -0.10943   2.15692
   an3        3.31616  -0.00003   0.00000  -0.14034  -0.14034   3.17582
   an4        4.75309  -0.00002   0.00000  -0.07167  -0.07167   4.68142
   ach        2.18453   0.00001   0.00000   0.00012   0.00012   2.18466
   anh        2.09844  -0.00001   0.00000  -0.00007  -0.00007   2.09837
         Item               Value     Threshold  Converged?
 Maximum Force            0.000051     0.000450     YES
 RMS     Force            0.000020     0.000300     YES
 Maximum Displacement     0.141821     0.001800     NO 
 RMS     Displacement     0.086765     0.001200     NO 
 Predicted change in Energy=-9.815888D-06
 GradGradGradGradGradGradGradGradGradGradGradGradGradGradGradGradGradGrad

 1\1\GINC-N366\Freq\RSVWN\6-31G(d,p)\C1H2N4\RDJ3\25-Nov-2013\1\\#N Geom
 =AllCheck Guess=TCheck SCRF=Check GenChk RSVWN/6-31G(d,p) Freq\\1H-tet
 razole CH2N4 casno=288948 state=1 config=1 method=53 basis=3\\0,1\X\X,
 1,1.\C,1,1.,2,90.\N,1,rn1,2,90.,3,an1,0\N,1,rn2,2,90.,3,an2,0\N,1,rn3,
 2,90.,3,an3,0\N,1,rn4,2,90.,3,an4,0\H,3,rch,4,ach,5,180.,0\H,4,rnh,5,a
 nh,6,180.,0\\rn1=1.29174782\rn2=1.40263177\rn3=1.1348636\rn4=0.8964868
 8\rch=1.08889675\rnh=1.01976374\an1=70.33139161\an2=129.85235842\an3=1
 90.00177287\an4=272.33215274\ach=125.16451206\anh=120.23158216\\Versio
 n=EM64L-G09RevD.01\State=1-A'\HF=-256.8909909\RMSD=4.433e-09\RMSF=1.08
 0e-05\ZeroPoint=0.046321\Thermal=0.0497963\Dipole=1.733021,-1.2036406,
 0.\DipoleDeriv=0.1361074,0.0425647,0.,-0.0871685,0.3890153,0.,0.,0.,0.
 0656059,-0.2178193,0.2896163,0.,0.196508,-0.2672848,0.,0.,0.,-0.120737
 ,0.1258411,-0.3507474,0.,-0.3051537,-0.2163883,0.,0.,0.,-0.1052148,-0.
 0129263,0.1523964,0.,0.210375,0.0173609,0.,0.,0.,-0.1585207,-0.3145079
 ,-0.1178335,0.,-0.0151885,-0.321991,0.,0.,0.,-0.1895124,0.0761149,0.01
 18645,0.,0.0120369,0.1249821,0.,0.,0.,0.1687217,0.2071901,-0.027861,0.
 ,-0.0114092,0.2743059,0.,0.,0.,0.3396573\Polar=39.1487759,-0.4028936,3
 6.9564008,0.,0.,15.878028\PG=CS [SG(C1H2N4)]\NImag=0\\0.92795200,0.038
 02495,0.61460532,0.,0.,0.13002821,-0.15320048,-0.07881881,0.,0.5828346
 6,-0.10806633,-0.29784785,0.,-0.12043896,0.96351814,0.,0.,-0.06159761,
 0.,0.,0.09706480,-0.08658825,-0.09517594,0.,-0.23752341,-0.03209391,0.
 ,0.45560954,0.00186745,-0.02649638,0.,-0.00083260,-0.10077457,0.,0.059
 64825,0.57254147,0.,0.,0.02177157,0.,0.,-0.07011087,0.,0.,0.11414829,-
 0.12007371,0.06151326,0.,-0.08674669,0.03625765,0.,-0.10289505,0.00839
 613,0.,0.51837473,-0.03689469,0.01926449,0.,0.11295596,-0.08833407,0.,
 0.07056763,-0.33513346,0.,-0.08047217,0.51589712,0.,0.,0.01948483,0.,0
 .,0.02642939,0.,0.,-0.09586286,0.,0.,0.12347057,-0.24403931,0.14307712
 ,0.,0.01483576,0.08906339,0.,-0.02753539,-0.10450519,0.,-0.19585039,-0
 .07055380,0.,0.46786119,0.14290502,-0.24510954,0.,-0.02144235,-0.09580
 371,0.,-0.00240393,-0.10767281,0.,-0.02636220,-0.11086868,0.,-0.078800
 35,0.55231321,0.,0.,-0.07624714,0.,0.,0.02072498,0.,0.,0.03520589,0.,0
 .,-0.08977194,0.,0.,0.10851417,-0.33949041,-0.05773029,0.,-0.00101112,
 0.00227680,0.,0.00046891,0.00289097,0.,-0.00156412,-0.00028227,0.,-0.0
 1250080,-0.00378147,0.,0.35450223,-0.05332875,-0.05955624,0.,-0.029950
 05,0.00071223,0.,-0.00094417,-0.00655892,0.,0.00647627,-0.00251669,0.,
 0.02045831,0.01124165,0.,0.05707982,0.05692436,0.,0.,-0.02513995,0.,0.
 ,-0.00340860,0.,0.,0.00596931,0.,0.,0.00848746,0.,0.,-0.00556670,0.,0.
 ,0.02042089,0.01544015,-0.01089030,0.,-0.11918870,0.13300135,0.,-0.001
 53635,0.03253498,0.,-0.01124477,0.00467934,0.,-0.00277106,-0.01011472,
 0.,-0.00040470,0.00020856,0.,0.11970542,0.01549234,-0.00485981,0.,0.13
 852680,-0.38147016,0.,0.00040207,0.00409467,0.,-0.00580895,0.00169129,
 0.,0.00126051,-0.00410013,0.,-0.00045356,-0.00024638,0.,-0.14941921,0.
 38489052,0.,0.,-0.00829991,0.,0.,-0.00910210,0.,0.,-0.01112133,0.,0.,0
 .00776255,0.,0.,0.00714074,0.,0.,-0.00076241,0.,0.,0.01438247\\-0.0000
 0373,-0.00003153,0.,-0.00002602,0.00000382,0.,0.00001788,0.00000872,0.
 ,-0.00000190,0.00001261,0.,0.00001006,0.00000855,0.,0.00000077,-0.0000
 0256,0.,0.00000294,0.00000039,0.\\\@


 Experience is what you get when you don't get what you want.
 -- Dan Stanford
 Job cpu time:       0 days  0 hours  0 minutes 43.9 seconds.
 File lengths (MBytes):  RWF=     10 Int=      0 D2E=      0 Chk=      2 Scr=      1
 Normal termination of Gaussian 09 at Mon Nov 25 18:19:45 2013.
