 Entering Gaussian System, Link 0=g09
 Initial command:
 /usr/local/gaussian/g09.d01.em64t.legacy.linda/g09/l1.exe "/tmp/rdj3/g09-23219/Gau-30401.inp" -scrdir="/tmp/rdj3/g09-23219/"
 Entering Link 1 = /usr/local/gaussian/g09.d01.em64t.legacy.linda/g09/l1.exe PID=     30402.
  
 Copyright (c) 1988,1990,1992,1993,1995,1998,2003,2009,2013,
            Gaussian, Inc.  All Rights Reserved.
  
 This is part of the Gaussian(R) 09 program.  It is based on
 the Gaussian(R) 03 system (copyright 2003, Gaussian, Inc.),
 the Gaussian(R) 98 system (copyright 1998, Gaussian, Inc.),
 the Gaussian(R) 94 system (copyright 1995, Gaussian, Inc.),
 the Gaussian 92(TM) system (copyright 1992, Gaussian, Inc.),
 the Gaussian 90(TM) system (copyright 1990, Gaussian, Inc.),
 the Gaussian 88(TM) system (copyright 1988, Gaussian, Inc.),
 the Gaussian 86(TM) system (copyright 1986, Carnegie Mellon
 University), and the Gaussian 82(TM) system (copyright 1983,
 Carnegie Mellon University). Gaussian is a federally registered
 trademark of Gaussian, Inc.
  
 This software contains proprietary and confidential information,
 including trade secrets, belonging to Gaussian, Inc.
  
 This software is provided under written license and may be
 used, copied, transmitted, or stored only in accord with that
 written license.
  
 The following legend is applicable only to US Government
 contracts under FAR:
  
                    RESTRICTED RIGHTS LEGEND
  
 Use, reproduction and disclosure by the US Government is
 subject to restrictions as set forth in subparagraphs (a)
 and (c) of the Commercial Computer Software - Restricted
 Rights clause in FAR 52.227-19.
  
 Gaussian, Inc.
 340 Quinnipiac St., Bldg. 40, Wallingford CT 06492
  
  
 ---------------------------------------------------------------
 Warning -- This program may not be used in any manner that
 competes with the business of Gaussian, Inc. or will provide
 assistance to any competitor of Gaussian, Inc.  The licensee
 of this program is prohibited from giving any competitor of
 Gaussian, Inc. access to this program.  By using this program,
 the user acknowledges that Gaussian, Inc. is engaged in the
 business of creating and licensing software in the field of
 computational chemistry and represents and warrants to the
 licensee that it is not a competitor of Gaussian, Inc. and that
 it will not use this program in any manner prohibited above.
 ---------------------------------------------------------------
  

 Cite this work as:
 Gaussian 09, Revision D.01,
 M. J. Frisch, G. W. Trucks, H. B. Schlegel, G. E. Scuseria, 
 M. A. Robb, J. R. Cheeseman, G. Scalmani, V. Barone, B. Mennucci, 
 G. A. Petersson, H. Nakatsuji, M. Caricato, X. Li, H. P. Hratchian, 
 A. F. Izmaylov, J. Bloino, G. Zheng, J. L. Sonnenberg, M. Hada, 
 M. Ehara, K. Toyota, R. Fukuda, J. Hasegawa, M. Ishida, T. Nakajima, 
 Y. Honda, O. Kitao, H. Nakai, T. Vreven, J. A. Montgomery, Jr., 
 J. E. Peralta, F. Ogliaro, M. Bearpark, J. J. Heyd, E. Brothers, 
 K. N. Kudin, V. N. Staroverov, T. Keith, R. Kobayashi, J. Normand, 
 K. Raghavachari, A. Rendell, J. C. Burant, S. S. Iyengar, J. Tomasi, 
 M. Cossi, N. Rega, J. M. Millam, M. Klene, J. E. Knox, J. B. Cross, 
 V. Bakken, C. Adamo, J. Jaramillo, R. Gomperts, R. E. Stratmann, 
 O. Yazyev, A. J. Austin, R. Cammi, C. Pomelli, J. W. Ochterski, 
 R. L. Martin, K. Morokuma, V. G. Zakrzewski, G. A. Voth, 
 P. Salvador, J. J. Dannenberg, S. Dapprich, A. D. Daniels, 
 O. Farkas, J. B. Foresman, J. V. Ortiz, J. Cioslowski, 
 and D. J. Fox, Gaussian, Inc., Wallingford CT, 2013.
 
 ******************************************
 Gaussian 09:  EM64L-G09RevD.01 24-Apr-2013
                25-Nov-2013 
 ******************************************
 %Nproc=8
 Will use up to    8 processors via shared memory.
 %mem=436000000
 -------------------------------
 #SVWN/cc-pVTZ opt=z-matrix freq
 -------------------------------
 1/10=7,14=-1,18=40,26=3,38=1/1,3;
 2/12=2,17=6,18=5,29=3,40=1/2;
 3/5=16,6=1,11=2,16=1,25=1,30=1,71=1,74=205/1,2,3;
 4//1;
 5/5=2,38=5/2;
 6/7=2,8=2,9=2,10=2,28=1/1;
 7/29=1/1,2,3,16;
 1/10=7,14=-1,18=40,26=3/3(2);
 2/29=3/2;
 99//99;
 2/29=3/2;
 3/5=16,6=1,11=2,16=1,25=1,30=1,71=1,74=205/1,2,3;
 4/5=5,16=3,69=1/1;
 5/5=2,38=5/2;
 7//1,2,3,16;
 1/14=-1,18=40,26=3/3(-5);
 2/29=3/2;
 6/7=2,8=2,9=2,10=2,19=2,28=1/1;
 99/9=1/99;
 ------------------------------------------------------------------
 1H-tetrazole CH2N4 casno=288948 state=1 config=1 method=53 basis=6
 ------------------------------------------------------------------
 Symbolic Z-matrix:
 Charge =  0 Multiplicity = 1
 X
 X                    1     1. 
 C                    1     1.       2     90. 
 N                    1    rn1      2     90.      3    an1      0
 N                    1    rn2      2     90.      3    an2      0
 N                    1    rn3      2     90.      3    an3      0
 N                    1    rn4      2     90.      3    an4      0
 H                    3    rch      4    ach      5     180.     0
 H                    4    rnh      5    anh      6     180.     0
       Variables:
  rn1                   1.2426                   
  rn2                   1.333                    
  rn3                   1.1146                   
  rn4                   0.9264                   
  rch                   1.0678                   
  rnh                   0.9941                   
  an1                  71.8427                   
  an2                 133.7028                   
  an3                 194.4597                   
  an4                 276.0768                   
  ach                 125.0248                   
  anh                 120.7626                   
 

 GradGradGradGradGradGradGradGradGradGradGradGradGradGradGradGradGradGrad
 Berny optimization.
 Initialization pass.
                       ----------------------------
                       !    Initial Parameters    !
                       ! (Angstroms and Degrees)  !
 ----------------------                            ----------------------
 !      Name          Value   Derivative information (Atomic Units)     !
 ------------------------------------------------------------------------
 !       rn1         1.2426   estimate D2E/DX2                          !
 !       rn2         1.333    estimate D2E/DX2                          !
 !       rn3         1.1146   estimate D2E/DX2                          !
 !       rn4         0.9264   estimate D2E/DX2                          !
 !       rch         1.0678   estimate D2E/DX2                          !
 !       rnh         0.9941   estimate D2E/DX2                          !
 !       an1        71.8427   estimate D2E/DX2                          !
 !       an2       133.7028   estimate D2E/DX2                          !
 !       an3       194.4597   estimate D2E/DX2                          !
 !       an4       276.0768   estimate D2E/DX2                          !
 !       ach       125.0248   estimate D2E/DX2                          !
 !       anh       120.7626   estimate D2E/DX2                          !
 ------------------------------------------------------------------------
 Trust Radius=3.00D-01 FncErr=1.00D-07 GrdErr=1.00D-06
 Number of steps in this run=     22 maximum allowed number of steps=    100.
 GradGradGradGradGradGradGradGradGradGradGradGradGradGradGradGradGradGrad

 ---------------------------------------------------------------------------------------------------
                            Z-MATRIX (ANGSTROMS AND DEGREES)
   CD    Cent   Atom    N1       Length/X        N2       Alpha/Y        N3        Beta/Z          J
 ---------------------------------------------------------------------------------------------------
      1         X 
      2         X        1   1.000000(     1)
      3      1  C        1   1.000000(     2)      2   90.000(     9)
      4      2  N        1   1.242600(     3)      2   90.000(    10)      3   71.843(    16)      0
      5      3  N        1   1.333000(     4)      2   90.000(    11)      3  133.703(    17)      0
      6      4  N        1   1.114600(     5)      2   90.000(    12)      3  194.460(    18)      0
      7      5  N        1   0.926400(     6)      2   90.000(    13)      3  276.077(    19)      0
      8      6  H        3   1.067800(     7)      4  125.025(    14)      5  180.000(    20)      0
      9      7  H        4   0.994100(     8)      5  120.763(    15)      6  180.000(    21)      0
 ---------------------------------------------------------------------------------------------------
                         Z-Matrix orientation:                         
 ---------------------------------------------------------------------
 Center     Atomic      Atomic             Coordinates (Angstroms)
 Number     Number       Type             X           Y           Z
 ---------------------------------------------------------------------
      1         -1           0        0.000000    0.000000    0.000000
      2         -1           0        0.000000    0.000000    1.000000
      3          6           0        1.000000    0.000000    0.000000
      4          7           0        0.387228   -1.180724    0.000000
      5          7           0       -0.920993   -0.963670    0.000000
      6          7           0       -1.079293    0.278314    0.000000
      7          7           0        0.098070    0.921194    0.000000
      8          1           0        2.058429    0.141157    0.000000
      9          1           0        0.749017   -2.106652    0.000000
 ---------------------------------------------------------------------
                    Distance matrix (angstroms):
                    1          2          3          4          5
     1  X    0.000000
     2  X    1.000000   0.000000
     3  C    1.000000   1.414214   0.000000
     4  N    1.242600   1.595009   1.330263   0.000000
     5  N    1.333000   1.666400   2.149157   1.326105   0.000000
     6  N    1.114600   1.497442   2.097837   2.068690   1.252032
     7  N    0.926400   1.363164   1.289216   2.121715   2.142710
     8  H    2.063263   2.292827   1.067800   2.130794   3.177672
     9  H    2.235847   2.449288   2.121551   0.994100   2.023695
                    6          7          8          9
     6  N    0.000000
     7  N    1.341447   0.000000
     8  H    3.140719   2.109850   0.000000
     9  H    3.005127   3.097029   2.601385   0.000000
 Stoichiometry    CH2N4
 Framework group  CS[SG(CH2N4)]
 Deg. of freedom    11
 Full point group                 CS      NOp   2
 Largest Abelian subgroup         CS      NOp   2
 Largest concise Abelian subgroup C1      NOp   1
                         Standard orientation:                         
 ---------------------------------------------------------------------
 Center     Atomic      Atomic             Coordinates (Angstroms)
 Number     Number       Type             X           Y           Z
 ---------------------------------------------------------------------
      1          6           0        1.052733    0.225621    0.000000
      2          7           0        0.000000    1.038857    0.000000
      3          7           0       -1.095416    0.291448    0.000000
      4          7           0       -0.716382   -0.901832    0.000000
      5          7           0        0.622191   -0.989579    0.000000
      6          1           0        2.072287    0.542964    0.000000
      7          1           0       -0.061439    2.031056    0.000000
 ---------------------------------------------------------------------
 Rotational constants (GHZ):     10.9201517     10.7345054      5.4132664
 Standard basis: CC-pVTZ (5D, 7F)
 There are   142 symmetry adapted cartesian basis functions of A'  symmetry.
 There are    63 symmetry adapted cartesian basis functions of A"  symmetry.
 There are   120 symmetry adapted basis functions of A'  symmetry.
 There are    58 symmetry adapted basis functions of A"  symmetry.
   178 basis functions,   294 primitive gaussians,   205 cartesian basis functions
    18 alpha electrons       18 beta electrons
       nuclear repulsion energy       169.8308489506 Hartrees.
 NAtoms=    7 NActive=    7 NUniq=    7 SFac= 1.00D+00 NAtFMM=   60 NAOKFM=F Big=F
 Integral buffers will be    131072 words long.
 Raffenetti 2 integral format.
 Two-electron integral symmetry is turned on.
 One-electron integrals computed using PRISM.
 NBasis=   178 RedAO= T EigKep=  9.93D-04  NBF=   120    58
 NBsUse=   178 1.00D-06 EigRej= -1.00D+00 NBFU=   120    58
 ExpMin= 1.03D-01 ExpMax= 1.14D+04 ExpMxC= 3.89D+02 IAcc=1 IRadAn=         1 AccDes= 0.00D+00
 Harris functional with IExCor=  205 and IRadAn=       1 diagonalized for initial guess.
 HarFok:  IExCor=  205 AccDes= 0.00D+00 IRadAn=         1 IDoV= 1 UseB2=F ITyADJ=14
 ICtDFT=  3500011 ScaDFX=  1.000000  1.000000  1.000000  1.000000
 FoFCou: FMM=F IPFlag=           0 FMFlag=      100000 FMFlg1=           0
         NFxFlg=           0 DoJE=T BraDBF=F KetDBF=T FulRan=T
         wScrn=  0.000000 ICntrl=     500 IOpCl=  0 I1Cent=   200000004 NGrid=           0
         NMat0=    1 NMatS0=      1 NMatT0=    0 NMatD0=    1 NMtDS0=    0 NMtDT0=    0
 Petite list used in FoFCou.
 Initial guess orbital symmetries:
       Occupied  (A') (A') (A') (A') (A') (A') (A') (A') (A') (A')
                 (A') (A') (A") (A') (A") (A") (A') (A')
       Virtual   (A") (A") (A') (A') (A') (A') (A') (A') (A") (A')
                 (A') (A') (A') (A') (A') (A") (A') (A") (A') (A')
                 (A") (A') (A") (A') (A") (A') (A') (A') (A") (A')
                 (A") (A') (A') (A") (A') (A') (A") (A') (A') (A')
                 (A") (A") (A') (A") (A') (A') (A') (A") (A') (A')
                 (A') (A') (A') (A") (A") (A') (A") (A') (A') (A')
                 (A") (A') (A') (A') (A') (A') (A") (A") (A') (A")
                 (A') (A") (A") (A') (A") (A') (A") (A') (A') (A')
                 (A") (A') (A') (A") (A') (A') (A") (A') (A") (A")
                 (A") (A') (A') (A") (A') (A') (A') (A") (A") (A')
                 (A') (A') (A") (A') (A") (A') (A') (A') (A') (A')
                 (A') (A") (A') (A') (A") (A') (A") (A') (A") (A")
                 (A') (A") (A') (A") (A') (A") (A") (A') (A') (A')
                 (A") (A') (A") (A") (A') (A") (A') (A') (A') (A')
                 (A") (A') (A") (A') (A') (A") (A') (A') (A") (A')
                 (A') (A') (A') (A') (A') (A') (A') (A') (A') (A')
 The electronic state of the initial guess is 1-A'.
 Keep J ints in memory in symmetry-blocked form, NReq=191556701.
 Requested convergence on RMS density matrix=1.00D-08 within 128 cycles.
 Requested convergence on MAX density matrix=1.00D-06.
 Requested convergence on             energy=1.00D-06.
 No special actions if energy rises.
 Integral accuracy reduced to 1.0D-05 until final iterations.
 Initial convergence to 1.0D-05 achieved.  Increase integral accuracy.
 SCF Done:  E(RS-VWN) =  -256.985301442     A.U. after   14 cycles
            NFock= 14  Conv=0.87D-08     -V/T= 2.0084

 **********************************************************************

            Population analysis using the SCF density.

 **********************************************************************

 Orbital symmetries:
       Occupied  (A') (A') (A') (A') (A') (A') (A') (A') (A') (A')
                 (A') (A") (A') (A') (A") (A") (A') (A')
       Virtual   (A") (A") (A') (A') (A') (A') (A') (A') (A") (A')
                 (A') (A') (A') (A') (A') (A") (A') (A") (A') (A')
                 (A') (A") (A") (A') (A") (A') (A') (A") (A') (A')
                 (A") (A') (A") (A') (A') (A') (A") (A') (A') (A')
                 (A") (A") (A') (A') (A") (A') (A') (A") (A') (A')
                 (A') (A') (A") (A') (A") (A') (A") (A') (A') (A')
                 (A") (A') (A') (A') (A') (A') (A") (A") (A') (A")
                 (A') (A") (A") (A') (A") (A') (A") (A') (A') (A')
                 (A") (A') (A') (A") (A') (A') (A") (A') (A") (A")
                 (A") (A') (A') (A") (A') (A') (A') (A") (A") (A')
                 (A') (A') (A") (A') (A") (A') (A') (A') (A') (A')
                 (A') (A") (A') (A') (A") (A') (A") (A') (A") (A")
                 (A') (A") (A') (A") (A') (A") (A") (A') (A') (A')
                 (A") (A') (A") (A") (A') (A") (A') (A') (A') (A")
                 (A') (A') (A") (A') (A") (A') (A') (A') (A") (A')
                 (A') (A') (A') (A') (A') (A') (A') (A') (A') (A')
 The electronic state is 1-A'.
 Alpha  occ. eigenvalues --  -13.99535 -13.95690 -13.93953 -13.91317  -9.88964
 Alpha  occ. eigenvalues --   -1.10229  -0.89991  -0.85139  -0.65204  -0.64314
 Alpha  occ. eigenvalues --   -0.57897  -0.49502  -0.48165  -0.36088  -0.33409
 Alpha  occ. eigenvalues --   -0.31658  -0.28202  -0.26334
 Alpha virt. eigenvalues --   -0.08077  -0.04838  -0.02021   0.02711   0.09332
 Alpha virt. eigenvalues --    0.10919   0.11454   0.19553   0.21581   0.23664
 Alpha virt. eigenvalues --    0.30407   0.30865   0.33885   0.36108   0.36312
 Alpha virt. eigenvalues --    0.36827   0.39391   0.39409   0.44022   0.44814
 Alpha virt. eigenvalues --    0.48312   0.48540   0.50003   0.52615   0.53745
 Alpha virt. eigenvalues --    0.60873   0.61826   0.68293   0.69210   0.72572
 Alpha virt. eigenvalues --    0.73115   0.75432   0.83389   0.84328   0.87579
 Alpha virt. eigenvalues --    0.89635   0.94053   0.94538   1.08429   1.13700
 Alpha virt. eigenvalues --    1.15436   1.19126   1.23685   1.29416   1.29446
 Alpha virt. eigenvalues --    1.32247   1.34690   1.39039   1.41165   1.47521
 Alpha virt. eigenvalues --    1.50440   1.55359   1.56895   1.57984   1.64427
 Alpha virt. eigenvalues --    1.67553   1.80785   1.81621   1.82487   1.89277
 Alpha virt. eigenvalues --    1.95207   2.00311   2.17260   2.27397   2.35078
 Alpha virt. eigenvalues --    2.45357   2.53557   2.57166   2.63153   2.63870
 Alpha virt. eigenvalues --    2.71300   2.71358   2.75067   2.78251   2.82727
 Alpha virt. eigenvalues --    2.83657   2.93072   2.94732   2.98482   3.00142
 Alpha virt. eigenvalues --    3.01548   3.10386   3.15115   3.17897   3.22458
 Alpha virt. eigenvalues --    3.24923   3.26525   3.31283   3.35562   3.39844
 Alpha virt. eigenvalues --    3.43324   3.44117   3.47256   3.48647   3.50738
 Alpha virt. eigenvalues --    3.56329   3.64102   3.64999   3.68427   3.72185
 Alpha virt. eigenvalues --    3.79439   3.81577   3.82124   3.85261   3.86077
 Alpha virt. eigenvalues --    3.88429   3.92934   4.04005   4.07795   4.20087
 Alpha virt. eigenvalues --    4.23769   4.26372   4.33002   4.35280   4.38863
 Alpha virt. eigenvalues --    4.39541   4.45274   4.50094   4.52840   4.55269
 Alpha virt. eigenvalues --    4.57472   4.63928   4.64898   4.67460   4.73255
 Alpha virt. eigenvalues --    4.73489   4.75098   4.77842   4.82543   4.84511
 Alpha virt. eigenvalues --    4.85352   4.92749   5.04800   5.08986   5.14687
 Alpha virt. eigenvalues --    5.16138   5.16305   5.21772   5.27818   5.38366
 Alpha virt. eigenvalues --    5.38529   5.42355   5.57019   5.61050   5.69208
 Alpha virt. eigenvalues --    5.73246   5.78031   5.82451   5.83384   5.98374
 Alpha virt. eigenvalues --    6.05257   6.18186   6.56789   6.78184   6.89525
 Alpha virt. eigenvalues --    7.84328  10.74083  12.05949  13.13712  13.80015
          Condensed to atoms (all electrons):
               1          2          3          4          5          6
     1  C    4.820001   0.472768  -0.107293  -0.116125   0.594465   0.429764
     2  N    0.472768   6.049957   0.316885  -0.108720  -0.090309  -0.036305
     3  N   -0.107293   0.316885   6.555777   0.437142  -0.115972   0.003339
     4  N   -0.116125  -0.108720   0.437142   6.474921   0.375837   0.002602
     5  N    0.594465  -0.090309  -0.115972   0.375837   6.379353  -0.023741
     6  H    0.429764  -0.036305   0.003339   0.002602  -0.023741   0.482582
     7  H   -0.030528   0.388640  -0.024916   0.007881   0.008322  -0.001510
               7
     1  C   -0.030528
     2  N    0.388640
     3  N   -0.024916
     4  N    0.007881
     5  N    0.008322
     6  H   -0.001510
     7  H    0.472959
 Mulliken charges:
               1
     1  C   -0.063052
     2  N    0.007084
     3  N   -0.064961
     4  N   -0.073539
     5  N   -0.127954
     6  H    0.143270
     7  H    0.179152
 Sum of Mulliken charges =   0.00000
 Mulliken charges with hydrogens summed into heavy atoms:
               1
     1  C    0.080219
     2  N    0.186236
     3  N   -0.064961
     4  N   -0.073539
     5  N   -0.127954
 Electronic spatial extent (au):  <R**2>=            244.5469
 Charge=              0.0000 electrons
 Dipole moment (field-independent basis, Debye):
    X=              2.4117    Y=              4.6789    Z=              0.0000  Tot=              5.2638
 Quadrupole moment (field-independent basis, Debye-Ang):
   XX=            -29.0057   YY=            -26.4308   ZZ=            -28.1782
   XY=              1.7327   XZ=              0.0000   YZ=              0.0000
 Traceless Quadrupole moment (field-independent basis, Debye-Ang):
   XX=             -1.1342   YY=              1.4408   ZZ=             -0.3066
   XY=              1.7327   XZ=              0.0000   YZ=              0.0000
 Octapole moment (field-independent basis, Debye-Ang**2):
  XXX=             11.5013  YYY=             21.7780  ZZZ=              0.0000  XYY=             -0.6549
  XXY=              4.4099  XXZ=              0.0000  XZZ=             -0.7945  YZZ=              0.5834
  YYZ=              0.0000  XYZ=              0.0000
 Hexadecapole moment (field-independent basis, Debye-Ang**3):
 XXXX=           -141.4860 YYYY=           -119.7473 ZZZZ=            -25.6829 XXXY=              6.5920
 XXXZ=              0.0000 YYYX=             -0.5084 YYYZ=              0.0000 ZZZX=              0.0000
 ZZZY=              0.0000 XXYY=            -53.2204 XXZZ=            -30.1762 YYZZ=            -28.3352
 XXYZ=              0.0000 YYXZ=              0.0000 ZZXY=             -0.1200
 N-N= 1.698308489506D+02 E-N=-9.402699583182D+02  KE= 2.548530473795D+02
 Symmetry A'   KE= 2.451702524981D+02
 Symmetry A"   KE= 9.682794881352D+00
 Calling FoFJK, ICntrl=      2527 FMM=F ISym2X=1 I1Cent= 0 IOpClX= 0 NMat=1 NMatS=1 NMatT=0.
 ***** Axes restored to original set *****
 -------------------------------------------------------------------
 Center     Atomic                   Forces (Hartrees/Bohr)
 Number     Number              X              Y              Z
 -------------------------------------------------------------------
      1        6           0.007099591   -0.008501050    0.000000000
      2        7          -0.000926542    0.009665642    0.000000000
      3        7          -0.007304010   -0.032583766    0.000000000
      4        7          -0.012731060    0.029157417    0.000000000
      5        7          -0.006512068    0.019833288    0.000000000
      6        1           0.012938362    0.001763474    0.000000000
      7        1           0.007435727   -0.019335005    0.000000000
 -------------------------------------------------------------------
 Cartesian Forces:  Max     0.032583766 RMS     0.012686045
 -----------------------------------------------------------------------------------------------
                       Internal Coordinate Forces (Hartree/Bohr or radian)
  Cent   Atom   N1       Length/X         N2         Alpha/Y        N3         Beta/Z          J
 -----------------------------------------------------------------------------------------------
         X 
         X        1   0.000000(     1)
      1  C        1   0.020011(     2)      2   0.000000(     9)
      2  N        1   0.011312(     3)      2   0.000000(    10)      3  -0.007407(    16)     0
      3  N        1   0.028534(     4)      2   0.000000(    11)      3  -0.043291(    17)     0
      4  N        1   0.019608(     5)      2   0.000000(    12)      3   0.052773(    18)     0
      5  N        1   0.019032(     6)      2   0.000000(    13)      3  -0.015012(    19)     0
      6  H        3   0.013058(     7)      4   0.000076(    14)      5   0.000000(    20)     0
      7  H        4   0.020715(     8)      5  -0.000208(    15)      6   0.000000(    21)     0
 -----------------------------------------------------------------------------------------------
 Internal  Forces:  Max     0.052772812 RMS     0.019059094

 GradGradGradGradGradGradGradGradGradGradGradGradGradGradGradGradGradGrad
 Berny optimization.
 Search for a local minimum.
 Step number   1 out of a maximum of   22
 All quantities printed in internal units (Hartrees-Bohrs-Radians)
 Second derivative matrix not updated -- first step.
 The second derivative matrix:
                          rn1       rn2       rn3       rn4       rch
           rn1          0.65186
           rn2          0.01318   0.69869
           rn3          0.03472   0.07334   0.58262
           rn4          0.03688   0.02662   0.13967   0.63921
           rch          0.00000   0.00000   0.00000   0.00000   0.37510
           rnh          0.00000   0.00000   0.00000   0.00000   0.00000
           an1          0.02012  -0.75016   0.04258  -0.08486   0.00000
           an2          0.72119  -0.31234  -0.71865   0.05436   0.00000
           an3         -0.02914   1.04797   0.05412  -0.58583   0.00000
           an4          0.05328  -0.03228   0.65851  -0.10009   0.00000
           ach          0.04546   0.00000   0.00000   0.05066   0.00000
           anh         -0.10206   0.05276   0.00000   0.00000   0.00000
                          rnh       an1       an2       an3       an4
           rnh          0.48741
           an1          0.00000   4.53257
           an2          0.00000  -2.68051   6.02300
           an3          0.00000  -0.03573  -3.19618   4.47465
           an4          0.00000  -0.12258  -0.06592  -1.16042   2.58479
           ach          0.00000  -0.10460   0.00000   0.00000   0.07318
           anh          0.00000   0.03519  -0.09059   0.00000   0.00000
                          ach       anh
           ach          0.32000
           anh          0.00000   0.32000
 ITU=  0
     Eigenvalues ---    0.00000   0.13346   0.26445   0.33044   0.37510
     Eigenvalues ---    0.40158   0.48741   0.75609   1.20990   2.99509
     Eigenvalues ---    5.09563   9.64077
 RFO step:  Lambda=-3.91709805D-03 EMin=-6.95624114D-16
 Linear search not attempted -- first point.
 Variable       Old X    -DE/DX   Delta X   Delta X   Delta X     New X
                                 (Linear)    (Quad)   (Total)
   rn1        2.34817   0.01131   0.00000   0.01758   0.01758   2.36575
   rn2        2.51900   0.02853   0.00000   0.03957   0.03957   2.55857
   rn3        2.10629   0.01961   0.00000   0.03741   0.03741   2.14370
   rn4        1.75064   0.01903   0.00000   0.01532   0.01532   1.76596
   rch        2.01785   0.01306   0.00000   0.03445   0.03445   2.05230
   rnh        1.87858   0.02072   0.00000   0.04216   0.04216   1.92074
   an1        1.25389  -0.00741   0.00000   0.00259   0.00259   1.25648
   an2        2.33355  -0.04329   0.00000  -0.00298  -0.00298   2.33058
   an3        3.39396   0.05277   0.00000  -0.00190  -0.00190   3.39206
   an4        4.81845  -0.01501   0.00000  -0.01539  -0.01539   4.80306
   ach        2.18209   0.00008   0.00000  -0.00032  -0.00032   2.18178
   anh        2.10770  -0.00021   0.00000  -0.00266  -0.00266   2.10504
         Item               Value     Threshold  Converged?
 Maximum Force            0.052773     0.000450     NO 
 RMS     Force            0.024542     0.000300     NO 
 Maximum Displacement     0.042162     0.001800     NO 
 RMS     Displacement     0.023693     0.001200     NO 
 Predicted change in Energy=-1.971744D-03
 GradGradGradGradGradGradGradGradGradGradGradGradGradGradGradGradGradGrad

 ---------------------------------------------------------------------------------------------------
                            Z-MATRIX (ANGSTROMS AND DEGREES)
   CD    Cent   Atom    N1       Length/X        N2       Alpha/Y        N3        Beta/Z          J
 ---------------------------------------------------------------------------------------------------
      1         X 
      2         X        1   1.000000(     1)
      3      1  C        1   1.000000(     2)      2   90.000(     9)
      4      2  N        1   1.251903(     3)      2   90.000(    10)      3   71.991(    16)      0
      5      3  N        1   1.353938(     4)      2   90.000(    11)      3  133.532(    17)      0
      6      4  N        1   1.134397(     5)      2   90.000(    12)      3  194.351(    18)      0
      7      5  N        1   0.934504(     6)      2   90.000(    13)      3  275.195(    19)      0
      8      6  H        3   1.086031(     7)      4  125.007(    14)      5  180.000(    20)      0
      9      7  H        4   1.016411(     8)      5  120.610(    15)      6  180.000(    21)      0
 ---------------------------------------------------------------------------------------------------
                         Z-Matrix orientation:                         
 ---------------------------------------------------------------------
 Center     Atomic      Atomic             Coordinates (Angstroms)
 Number     Number       Type             X           Y           Z
 ---------------------------------------------------------------------
      1         -1           0        0.000000    0.000000    0.000000
      2         -1           0        0.000000    0.000000    1.000000
      3          6           0        1.000000    0.000000    0.000000
      4          7           0        0.387043   -1.190571    0.000000
      5          7           0       -0.932541   -0.981588    0.000000
      6          7           0       -1.099000    0.281170    0.000000
      7          7           0        0.084617    0.930666    0.000000
      8          1           0        2.076072    0.146742    0.000000
      9          1           0        0.761388   -2.135535    0.000000
 ---------------------------------------------------------------------
                    Distance matrix (angstroms):
                    1          2          3          4          5
     1  X    0.000000
     2  X    1.000000   0.000000
     3  C    1.000000   1.414214   0.000000
     4  N    1.251903   1.602267   1.339095   0.000000
     5  N    1.353938   1.683196   2.167540   1.336031   0.000000
     6  N    1.134397   1.512236   2.117748   2.091493   1.273681
     7  N    0.934504   1.368685   1.305398   2.142686   2.165946
     8  H    2.081252   2.309028   1.086031   2.154350   3.213236
     9  H    2.267205   2.477947   2.148824   1.016411   2.049632
                    6          7          8          9
     6  N    0.000000
     7  N    1.350109   0.000000
     8  H    3.177917   2.140194   0.000000
     9  H    3.049837   3.140001   2.633853   0.000000
 Stoichiometry    CH2N4
 Framework group  CS[SG(CH2N4)]
 Deg. of freedom    11
 Full point group                 CS      NOp   2
 Largest Abelian subgroup         CS      NOp   2
 Largest concise Abelian subgroup C1      NOp   1
                         Standard orientation:                         
 ---------------------------------------------------------------------
 Center     Atomic      Atomic             Coordinates (Angstroms)
 Number     Number       Type             X           Y           Z
 ---------------------------------------------------------------------
      1          6           0        1.060477    0.230075    0.000000
      2          7           0        0.000000    1.047733    0.000000
      3          7           0       -1.105992    0.298226    0.000000
      4          7           0       -0.720532   -0.915728    0.000000
      5          7           0        0.626869   -1.001204    0.000000
      6          1           0        2.097038    0.554120    0.000000
      7          1           0       -0.062309    2.062232    0.000000
 ---------------------------------------------------------------------
 Rotational constants (GHZ):     10.6725592     10.5392873      5.3027523
 Standard basis: CC-pVTZ (5D, 7F)
 There are   142 symmetry adapted cartesian basis functions of A'  symmetry.
 There are    63 symmetry adapted cartesian basis functions of A"  symmetry.
 There are   120 symmetry adapted basis functions of A'  symmetry.
 There are    58 symmetry adapted basis functions of A"  symmetry.
   178 basis functions,   294 primitive gaussians,   205 cartesian basis functions
    18 alpha electrons       18 beta electrons
       nuclear repulsion energy       168.0308128673 Hartrees.
 NAtoms=    7 NActive=    7 NUniq=    7 SFac= 1.00D+00 NAtFMM=   60 NAOKFM=F Big=F
 Integral buffers will be    131072 words long.
 Raffenetti 2 integral format.
 Two-electron integral symmetry is turned on.
 One-electron integrals computed using PRISM.
 NBasis=   178 RedAO= T EigKep=  1.06D-03  NBF=   120    58
 NBsUse=   178 1.00D-06 EigRej= -1.00D+00 NBFU=   120    58
 Initial guess from the checkpoint file:  "/tmp/rdj3/g09-23219/Gau-30402.chk"
 B after Tr=     0.000000    0.000000    0.000000
         Rot=    1.000000    0.000000    0.000000   -0.000214 Ang=  -0.02 deg.
 Initial guess orbital symmetries:
       Occupied  (A') (A') (A') (A') (A') (A') (A') (A') (A') (A')
                 (A') (A") (A') (A') (A") (A") (A') (A')
       Virtual   (A') (A') (A') (A') (A') (A') (A') (A') (A') (A')
                 (A') (A') (A') (A') (A') (A') (A') (A') (A') (A')
                 (A') (A') (A') (A') (A') (A') (A') (A') (A') (A')
                 (A') (A') (A') (A') (A') (A') (A') (A') (A') (A')
                 (A') (A') (A') (A') (A') (A') (A') (A') (A') (A')
                 (A') (A') (A') (A') (A') (A') (A') (A') (A') (A')
                 (A') (A') (A') (A') (A') (A') (A') (A') (A') (A')
                 (A') (A') (A') (A') (A') (A') (A') (A') (A') (A')
                 (A') (A') (A') (A') (A') (A') (A') (A') (A') (A')
                 (A') (A') (A') (A') (A') (A') (A') (A') (A') (A')
                 (A') (A') (A') (A') (A') (A") (A") (A") (A") (A")
                 (A") (A") (A") (A") (A") (A") (A") (A") (A") (A")
                 (A") (A") (A") (A") (A") (A") (A") (A") (A") (A")
                 (A") (A") (A") (A") (A") (A") (A") (A") (A") (A")
                 (A") (A") (A") (A") (A") (A") (A") (A") (A") (A")
                 (A") (A") (A") (A") (A") (A") (A") (A") (A") (A")
 ExpMin= 1.03D-01 ExpMax= 1.14D+04 ExpMxC= 3.89D+02 IAcc=1 IRadAn=         1 AccDes= 0.00D+00
 Harris functional with IExCor=  205 and IRadAn=       1 diagonalized for initial guess.
 HarFok:  IExCor=  205 AccDes= 0.00D+00 IRadAn=         1 IDoV= 1 UseB2=F ITyADJ=14
 ICtDFT=  3500011 ScaDFX=  1.000000  1.000000  1.000000  1.000000
 FoFCou: FMM=F IPFlag=           0 FMFlag=      100000 FMFlg1=           0
         NFxFlg=           0 DoJE=T BraDBF=F KetDBF=T FulRan=T
         wScrn=  0.000000 ICntrl=     500 IOpCl=  0 I1Cent=   200000004 NGrid=           0
         NMat0=    1 NMatS0=      1 NMatT0=    0 NMatD0=    1 NMtDS0=    0 NMtDT0=    0
 Petite list used in FoFCou.
 Keep J ints in memory in symmetry-blocked form, NReq=191556701.
 Requested convergence on RMS density matrix=1.00D-08 within 128 cycles.
 Requested convergence on MAX density matrix=1.00D-06.
 Requested convergence on             energy=1.00D-06.
 No special actions if energy rises.
 Integral accuracy reduced to 1.0D-05 until final iterations.
 Initial convergence to 1.0D-05 achieved.  Increase integral accuracy.
 SCF Done:  E(RS-VWN) =  -256.987415736     A.U. after   12 cycles
            NFock= 12  Conv=0.84D-08     -V/T= 2.0094
 Calling FoFJK, ICntrl=      2527 FMM=F ISym2X=1 I1Cent= 0 IOpClX= 0 NMat=1 NMatS=1 NMatT=0.
 ***** Axes restored to original set *****
 -------------------------------------------------------------------
 Center     Atomic                   Forces (Hartrees/Bohr)
 Number     Number              X              Y              Z
 -------------------------------------------------------------------
      1        6           0.002069041   -0.003183880    0.000000000
      2        7          -0.000331491    0.004353837    0.000000000
      3        7          -0.000462243   -0.010248069    0.000000000
      4        7           0.001071813    0.008247870    0.000000000
      5        7          -0.002311036    0.001197978    0.000000000
      6        1          -0.000107249    0.000099447    0.000000000
      7        1           0.000071166   -0.000467182    0.000000000
 -------------------------------------------------------------------
 Cartesian Forces:  Max     0.010248069 RMS     0.003199087
 -----------------------------------------------------------------------------------------------
                       Internal Coordinate Forces (Hartree/Bohr or radian)
  Cent   Atom   N1       Length/X         N2         Alpha/Y        N3         Beta/Z          J
 -----------------------------------------------------------------------------------------------
         X 
         X        1   0.000000(     1)
      1  C        1   0.001880(     2)      2   0.000000(     9)
      2  N        1  -0.003640(     3)      2   0.000000(    10)      3  -0.002323(    16)     0
      3  N        1   0.007682(     4)      2   0.000000(    11)      3  -0.017085(    17)     0
      4  N        1   0.001006(     5)      2   0.000000(    12)      3   0.017699(    18)     0
      5  N        1   0.000984(     6)      2   0.000000(    13)      3  -0.004256(    19)     0
      6  H        3  -0.000093(     7)      4   0.000232(    14)      5   0.000000(    20)     0
      7  H        4   0.000461(     8)      5  -0.000203(    15)      6   0.000000(    21)     0
 -----------------------------------------------------------------------------------------------
 Internal  Forces:  Max     0.017698741 RMS     0.005801288

 GradGradGradGradGradGradGradGradGradGradGradGradGradGradGradGradGradGrad
 Berny optimization.
 Search for a local minimum.
 Step number   2 out of a maximum of   22
 All quantities printed in internal units (Hartrees-Bohrs-Radians)
 Update second derivatives using D2CorN and points    1    2
 DE= -2.11D-03 DEPred=-1.97D-03 R= 1.07D+00
 TightC=F SS=  1.41D+00  RLast= 8.21D-02 DXNew= 5.0454D-01 2.4623D-01
 Trust test= 1.07D+00 RLast= 8.21D-02 DXMaxT set to 3.00D-01
 The second derivative matrix:
                          rn1       rn2       rn3       rn4       rch
           rn1          0.66154
           rn2          0.01425   0.65448
           rn3          0.04390   0.04992   0.57785
           rn4          0.03989   0.01535   0.13613   0.63711
           rch          0.00978  -0.01858  -0.00157  -0.00210   0.37626
           rnh          0.01122  -0.02442  -0.00351  -0.00323  -0.00004
           an1          0.02388  -0.74476   0.04890  -0.08238   0.00601
           an2          0.74265  -0.26053  -0.67105   0.07397   0.04361
           an3         -0.05276   0.99703   0.00508  -0.60582  -0.04531
           an4          0.05452  -0.01136   0.67114  -0.09427   0.01047
           ach          0.04507  -0.00051  -0.00063   0.05041  -0.00060
           anh         -0.10254   0.05481   0.00071   0.00040   0.00045
                          rnh       an1       an2       an3       an4
           rnh          0.48556
           an1          0.00724   4.53347
           an2          0.05349  -2.67774   6.01546
           an3         -0.05537  -0.03947  -3.19468   4.47965
           an4          0.01347  -0.12444  -0.08635  -1.14079   2.57520
           ach         -0.00072  -0.10470  -0.00035   0.00045   0.07334
           anh          0.00066   0.03476  -0.09401   0.00347  -0.00105
                          ach       anh
           ach          0.32001
           anh          0.00004   0.31992
 ITU=  1  0
     Eigenvalues ---   -0.00005   0.12844   0.26500   0.33097   0.37458
     Eigenvalues ---    0.39737   0.48521   0.74974   1.20823   2.99422
     Eigenvalues ---    5.07987   9.62293
 RFO step:  Lambda=-2.71379522D-04 EMin=-4.78740245D-05
 Quartic linear search produced a step of  0.11754.
 Maximum step size (   0.300) exceeded in Quadratic search.
    -- Step size scaled by   0.364
 Variable       Old X    -DE/DX   Delta X   Delta X   Delta X     New X
                                 (Linear)    (Quad)   (Total)
   rn1        2.36575  -0.00364   0.00207   0.12963   0.13170   2.49745
   rn2        2.55857   0.00768   0.00465   0.10949   0.11414   2.67271
   rn3        2.14370   0.00101   0.00440  -0.03596  -0.03156   2.11214
   rn4        1.76596   0.00098   0.00180  -0.14046  -0.13866   1.62729
   rch        2.05230  -0.00009   0.00405  -0.00116   0.00289   2.05519
   rnh        1.92074   0.00046   0.00496  -0.00064   0.00432   1.92506
   an1        1.25648  -0.00232   0.00030  -0.05552  -0.05521   1.20127
   an2        2.33058  -0.01709  -0.00035  -0.11433  -0.11468   2.21589
   an3        3.39206   0.01770  -0.00022  -0.13977  -0.14000   3.25206
   an4        4.80306  -0.00426  -0.00181  -0.06693  -0.06874   4.73432
   ach        2.18178   0.00023  -0.00004   0.00150   0.00146   2.18324
   anh        2.10504  -0.00020  -0.00031  -0.00346  -0.00377   2.10127
         Item               Value     Threshold  Converged?
 Maximum Force            0.017699     0.000450     NO 
 RMS     Force            0.007655     0.000300     NO 
 Maximum Displacement     0.139997     0.001800     NO 
 RMS     Displacement     0.087160     0.001200     NO 
 Predicted change in Energy=-1.045130D-04
 GradGradGradGradGradGradGradGradGradGradGradGradGradGradGradGradGradGrad

 ---------------------------------------------------------------------------------------------------
                            Z-MATRIX (ANGSTROMS AND DEGREES)
   CD    Cent   Atom    N1       Length/X        N2       Alpha/Y        N3        Beta/Z          J
 ---------------------------------------------------------------------------------------------------
      1         X 
      2         X        1   1.000000(     1)
      3      1  C        1   1.000000(     2)      2   90.000(     9)
      4      2  N        1   1.321593(     3)      2   90.000(    10)      3   68.828(    16)      0
      5      3  N        1   1.414336(     4)      2   90.000(    11)      3  126.961(    17)      0
      6      4  N        1   1.117697(     5)      2   90.000(    12)      3  186.330(    18)      0
      7      5  N        1   0.861127(     6)      2   90.000(    13)      3  271.257(    19)      0
      8      6  H        3   1.087558(     7)      4  125.090(    14)      5  180.000(    20)      0
      9      7  H        4   1.018697(     8)      5  120.394(    15)      6  180.000(    21)      0
 ---------------------------------------------------------------------------------------------------
                         Z-Matrix orientation:                         
 ---------------------------------------------------------------------
 Center     Atomic      Atomic             Coordinates (Angstroms)
 Number     Number       Type             X           Y           Z
 ---------------------------------------------------------------------
      1         -1           0        0.000000    0.000000    0.000000
      2         -1           0        0.000000    0.000000    1.000000
      3          6           0        1.000000    0.000000    0.000000
      4          7           0        0.477326   -1.232383    0.000000
      5          7           0       -0.850406   -1.130113    0.000000
      6          7           0       -1.110883    0.123223    0.000000
      7          7           0        0.018887    0.860920    0.000000
      8          1           0        2.063365    0.228119    0.000000
      9          1           0        0.923723   -2.148065    0.000000
 ---------------------------------------------------------------------
                    Distance matrix (angstroms):
                    1          2          3          4          5
     1  X    0.000000
     2  X    1.000000   0.000000
     3  C    1.000000   1.414214   0.000000
     4  N    1.321593   1.657290   1.338640   0.000000
     5  N    1.414336   1.732151   2.168215   1.331665   0.000000
     6  N    1.117697   1.499749   2.114477   2.088080   1.280117
     7  N    0.861127   1.319674   1.305284   2.142915   2.172529
     8  H    2.075937   2.304238   1.087558   2.156058   3.214787
     9  H    2.338258   2.543118   2.149419   1.018697   2.045425
                    6          7          8          9
     6  N    0.000000
     7  N    1.349288   0.000000
     8  H    3.175981   2.140169   0.000000
     9  H    3.049324   3.142088   2.635343   0.000000
 Stoichiometry    CH2N4
 Framework group  CS[SG(CH2N4)]
 Deg. of freedom    11
 Full point group                 CS      NOp   2
 Largest Abelian subgroup         CS      NOp   2
 Largest concise Abelian subgroup C1      NOp   1
                         Standard orientation:                         
 ---------------------------------------------------------------------
 Center     Atomic      Atomic             Coordinates (Angstroms)
 Number     Number       Type             X           Y           Z
 ---------------------------------------------------------------------
      1          6           0        1.059809    0.227549    0.000000
      2          7           0        0.000000    1.045327    0.000000
      3          7           0       -1.107017    0.305162    0.000000
      4          7           0       -0.719477   -0.914885    0.000000
      5          7           0        0.626875   -1.003846    0.000000
      6          1           0        2.098422    0.550140    0.000000
      7          1           0       -0.059941    2.062260    0.000000
 ---------------------------------------------------------------------
 Rotational constants (GHZ):     10.7109694     10.4973522      5.3015425
 Standard basis: CC-pVTZ (5D, 7F)
 There are   142 symmetry adapted cartesian basis functions of A'  symmetry.
 There are    63 symmetry adapted cartesian basis functions of A"  symmetry.
 There are   120 symmetry adapted basis functions of A'  symmetry.
 There are    58 symmetry adapted basis functions of A"  symmetry.
   178 basis functions,   294 primitive gaussians,   205 cartesian basis functions
    18 alpha electrons       18 beta electrons
       nuclear repulsion energy       167.9957830028 Hartrees.
 NAtoms=    7 NActive=    7 NUniq=    7 SFac= 1.00D+00 NAtFMM=   60 NAOKFM=F Big=F
 Integral buffers will be    131072 words long.
 Raffenetti 2 integral format.
 Two-electron integral symmetry is turned on.
 One-electron integrals computed using PRISM.
 NBasis=   178 RedAO= T EigKep=  1.07D-03  NBF=   120    58
 NBsUse=   178 1.00D-06 EigRej= -1.00D+00 NBFU=   120    58
 Initial guess from the checkpoint file:  "/tmp/rdj3/g09-23219/Gau-30402.chk"
 B after Tr=     0.000000    0.000000    0.000000
         Rot=    1.000000    0.000000    0.000000    0.000860 Ang=   0.10 deg.
 Initial guess orbital symmetries:
       Occupied  (A') (A') (A') (A') (A') (A') (A') (A') (A') (A')
                 (A') (A") (A') (A') (A") (A") (A') (A')
       Virtual   (A') (A') (A') (A') (A') (A') (A') (A') (A') (A')
                 (A') (A') (A') (A') (A') (A') (A') (A') (A') (A')
                 (A') (A') (A') (A') (A') (A') (A') (A') (A') (A')
                 (A') (A') (A') (A') (A') (A') (A') (A') (A') (A')
                 (A') (A') (A') (A') (A') (A') (A') (A') (A') (A')
                 (A') (A') (A') (A') (A') (A') (A') (A') (A') (A')
                 (A') (A') (A') (A') (A') (A') (A') (A') (A') (A')
                 (A') (A') (A') (A') (A') (A') (A') (A') (A') (A')
                 (A') (A') (A') (A') (A') (A') (A') (A') (A') (A')
                 (A') (A') (A') (A') (A') (A') (A') (A') (A') (A')
                 (A') (A') (A') (A') (A') (A") (A") (A") (A") (A")
                 (A") (A") (A") (A") (A") (A") (A") (A") (A") (A")
                 (A") (A") (A") (A") (A") (A") (A") (A") (A") (A")
                 (A") (A") (A") (A") (A") (A") (A") (A") (A") (A")
                 (A") (A") (A") (A") (A") (A") (A") (A") (A") (A")
                 (A") (A") (A") (A") (A") (A") (A") (A") (A") (A")
 ExpMin= 1.03D-01 ExpMax= 1.14D+04 ExpMxC= 3.89D+02 IAcc=1 IRadAn=         1 AccDes= 0.00D+00
 Harris functional with IExCor=  205 and IRadAn=       1 diagonalized for initial guess.
 HarFok:  IExCor=  205 AccDes= 0.00D+00 IRadAn=         1 IDoV= 1 UseB2=F ITyADJ=14
 ICtDFT=  3500011 ScaDFX=  1.000000  1.000000  1.000000  1.000000
 FoFCou: FMM=F IPFlag=           0 FMFlag=      100000 FMFlg1=           0
         NFxFlg=           0 DoJE=T BraDBF=F KetDBF=T FulRan=T
         wScrn=  0.000000 ICntrl=     500 IOpCl=  0 I1Cent=   200000004 NGrid=           0
         NMat0=    1 NMatS0=      1 NMatT0=    0 NMatD0=    1 NMtDS0=    0 NMtDT0=    0
 Petite list used in FoFCou.
 Keep J ints in memory in symmetry-blocked form, NReq=191556701.
 Requested convergence on RMS density matrix=1.00D-08 within 128 cycles.
 Requested convergence on MAX density matrix=1.00D-06.
 Requested convergence on             energy=1.00D-06.
 No special actions if energy rises.
 Integral accuracy reduced to 1.0D-05 until final iterations.
 Initial convergence to 1.0D-05 achieved.  Increase integral accuracy.
 SCF Done:  E(RS-VWN) =  -256.987481806     A.U. after   11 cycles
            NFock= 11  Conv=0.68D-08     -V/T= 2.0094
 Calling FoFJK, ICntrl=      2527 FMM=F ISym2X=1 I1Cent= 0 IOpClX= 0 NMat=1 NMatS=1 NMatT=0.
 ***** Axes restored to original set *****
 -------------------------------------------------------------------
 Center     Atomic                   Forces (Hartrees/Bohr)
 Number     Number              X              Y              Z
 -------------------------------------------------------------------
      1        6           0.004723049   -0.002256617    0.000000000
      2        7           0.002763226    0.000647661    0.000000000
      3        7          -0.001179024   -0.002653028    0.000000000
      4        7          -0.001436183    0.004745328    0.000000000
      5        7          -0.003525039   -0.001341554    0.000000000
      6        1          -0.001016786   -0.000435961    0.000000000
      7        1          -0.000329243    0.001294171    0.000000000
 -------------------------------------------------------------------
 Cartesian Forces:  Max     0.004745328 RMS     0.002020097
 -----------------------------------------------------------------------------------------------
                       Internal Coordinate Forces (Hartree/Bohr or radian)
  Cent   Atom   N1       Length/X         N2         Alpha/Y        N3         Beta/Z          J
 -----------------------------------------------------------------------------------------------
         X 
         X        1   0.000000(     1)
      1  C        1   0.003866(     2)      2   0.000000(     9)
      2  N        1  -0.001239(     3)      2   0.000000(    10)      3  -0.007334(    16)     0
      3  N        1   0.003004(     4)      2   0.000000(    11)      3  -0.002044(    17)     0
      4  N        1   0.001951(     5)      2   0.000000(    12)      3   0.009627(    18)     0
      5  N        1  -0.001419(     6)      2   0.000000(    13)      3  -0.005687(    19)     0
      6  H        3  -0.001086(     7)      4  -0.000438(    14)      5   0.000000(    20)     0
      7  H        4  -0.001308(     8)      5   0.000522(    15)      6   0.000000(    21)     0
 -----------------------------------------------------------------------------------------------
 Internal  Forces:  Max     0.009627276 RMS     0.003219402

 GradGradGradGradGradGradGradGradGradGradGradGradGradGradGradGradGradGrad
 Berny optimization.
 Search for a local minimum.
 Step number   3 out of a maximum of   22
 All quantities printed in internal units (Hartrees-Bohrs-Radians)
 Update second derivatives using D2CorN and points    1    2    3
 DE= -6.61D-05 DEPred=-1.05D-04 R= 6.32D-01
 TightC=F SS=  1.41D+00  RLast= 3.02D-01 DXNew= 5.0454D-01 9.0579D-01
 Trust test= 6.32D-01 RLast= 3.02D-01 DXMaxT set to 5.05D-01
 The second derivative matrix:
                          rn1       rn2       rn3       rn4       rch
           rn1          0.65891
           rn2          0.01204   0.65194
           rn3          0.04155   0.04705   0.57834
           rn4          0.04208   0.01679   0.13861   0.63575
           rch          0.01029  -0.01849  -0.00185  -0.00232   0.37664
           rnh          0.01173  -0.02444  -0.00391  -0.00342   0.00038
           an1          0.03186  -0.73715   0.04963  -0.08928   0.00722
           an2          0.74057  -0.26225  -0.66752   0.07718   0.04359
           an3         -0.05677   0.99206   0.00702  -0.60254  -0.04757
           an4          0.06021  -0.00572   0.67252  -0.09906   0.01119
           ach          0.04565   0.00005  -0.00071   0.04987  -0.00051
           anh         -0.10319   0.05420   0.00085   0.00100   0.00031
                          rnh       an1       an2       an3       an4
           rnh          0.48602
           an1          0.00879   4.52795
           an2          0.05353  -2.68228   6.02141
           an3         -0.05807  -0.04498  -3.18691   4.48952
           an4          0.01444  -0.13036  -0.08877  -1.14253   2.56965
           ach         -0.00061  -0.10486  -0.00088  -0.00018   0.07307
           anh          0.00050   0.03474  -0.09338   0.00442  -0.00087
                          ach       anh
           ach          0.32002
           anh          0.00001   0.31998
 ITU=  1  1  0
     Eigenvalues ---    0.00065   0.12806   0.26533   0.33081   0.37496
     Eigenvalues ---    0.39749   0.48552   0.74921   1.20821   2.99426
     Eigenvalues ---    5.07887   9.62274
 RFO step:  Lambda=-8.89540578D-05 EMin= 6.46880259D-04
 Quartic linear search produced a step of -0.07780.
 Variable       Old X    -DE/DX   Delta X   Delta X   Delta X     New X
                                 (Linear)    (Quad)   (Total)
   rn1        2.49745  -0.00124  -0.01025   0.03036   0.02012   2.51756
   rn2        2.67271   0.00300  -0.00888   0.03172   0.02284   2.69555
   rn3        2.11214   0.00195   0.00246   0.00628   0.00874   2.12088
   rn4        1.62729  -0.00142   0.01079  -0.04281  -0.03203   1.59527
   rch        2.05519  -0.00109  -0.00022  -0.00253  -0.00276   2.05243
   rnh        1.92506  -0.00131  -0.00034  -0.00207  -0.00241   1.92265
   an1        1.20127  -0.00733   0.00430  -0.01484  -0.01054   1.19073
   an2        2.21589  -0.00204   0.00892  -0.02759  -0.01867   2.19723
   an3        3.25206   0.00963   0.01089  -0.03594  -0.02505   3.22701
   an4        4.73432  -0.00569   0.00535  -0.02382  -0.01847   4.71586
   ach        2.18324  -0.00044  -0.00011   0.00162   0.00150   2.18475
   anh        2.10127   0.00052   0.00029  -0.00001   0.00028   2.10155
         Item               Value     Threshold  Converged?
 Maximum Force            0.009627     0.000450     NO 
 RMS     Force            0.004110     0.000300     NO 
 Maximum Displacement     0.032025     0.001800     NO 
 RMS     Displacement     0.017010     0.001200     NO 
 Predicted change in Energy=-4.627967D-05
 GradGradGradGradGradGradGradGradGradGradGradGradGradGradGradGradGradGrad

 ---------------------------------------------------------------------------------------------------
                            Z-MATRIX (ANGSTROMS AND DEGREES)
   CD    Cent   Atom    N1       Length/X        N2       Alpha/Y        N3        Beta/Z          J
 ---------------------------------------------------------------------------------------------------
      1         X 
      2         X        1   1.000000(     1)
      3      1  C        1   1.000000(     2)      2   90.000(     9)
      4      2  N        1   1.332238(     3)      2   90.000(    10)      3   68.224(    16)      0
      5      3  N        1   1.426422(     4)      2   90.000(    11)      3  125.892(    17)      0
      6      4  N        1   1.122322(     5)      2   90.000(    12)      3  184.894(    18)      0
      7      5  N        1   0.844180(     6)      2   90.000(    13)      3  270.199(    19)      0
      8      6  H        3   1.086099(     7)      4  125.177(    14)      5  180.000(    20)      0
      9      7  H        4   1.017423(     8)      5  120.410(    15)      6  180.000(    21)      0
 ---------------------------------------------------------------------------------------------------
                         Z-Matrix orientation:                         
 ---------------------------------------------------------------------
 Center     Atomic      Atomic             Coordinates (Angstroms)
 Number     Number       Type             X           Y           Z
 ---------------------------------------------------------------------
      1         -1           0        0.000000    0.000000    0.000000
      2         -1           0        0.000000    0.000000    1.000000
      3          6           0        1.000000    0.000000    0.000000
      4          7           0        0.494238   -1.237169    0.000000
      5          7           0       -0.836251   -1.155579    0.000000
      6          7           0       -1.118229    0.095753    0.000000
      7          7           0        0.002927    0.844175    0.000000
      8          1           0        2.058511    0.243241    0.000000
      9          1           0        0.954570   -2.144496    0.000000
 ---------------------------------------------------------------------
                    Distance matrix (angstroms):
                    1          2          3          4          5
     1  X    0.000000
     2  X    1.000000   0.000000
     3  C    1.000000   1.414214   0.000000
     4  N    1.332238   1.665790   1.336556   0.000000
     5  N    1.426422   1.742033   2.169604   1.332988   0.000000
     6  N    1.122322   1.503198   2.120392   2.092064   1.282710
     7  N    0.844180   1.308679   1.306440   2.138546   2.168695
     8  H    2.072832   2.301441   1.086099   2.153732   3.215018
     9  H    2.347354   2.551484   2.144978   1.017423   2.045727
                    6          7          8          9
     6  N    0.000000
     7  N    1.348008   0.000000
     8  H    3.180162   2.141622   0.000000
     9  H    3.052084   3.136524   2.630585   0.000000
 Stoichiometry    CH2N4
 Framework group  CS[SG(CH2N4)]
 Deg. of freedom    11
 Full point group                 CS      NOp   2
 Largest Abelian subgroup         CS      NOp   2
 Largest concise Abelian subgroup C1      NOp   1
                         Standard orientation:                         
 ---------------------------------------------------------------------
 Center     Atomic      Atomic             Coordinates (Angstroms)
 Number     Number       Type             X           Y           Z
 ---------------------------------------------------------------------
      1          6           0        1.061016    0.231884    0.000000
      2          7           0        0.000000    1.044673    0.000000
      3          7           0       -1.107430    0.302745    0.000000
      4          7           0       -0.719319   -0.919840    0.000000
      5          7           0        0.626297   -1.000109    0.000000
      6          1           0        2.097589    0.556120    0.000000
      7          1           0       -0.060521    2.060294    0.000000
 ---------------------------------------------------------------------
 Rotational constants (GHZ):     10.6664203     10.5335444      5.2997830
 Standard basis: CC-pVTZ (5D, 7F)
 There are   142 symmetry adapted cartesian basis functions of A'  symmetry.
 There are    63 symmetry adapted cartesian basis functions of A"  symmetry.
 There are   120 symmetry adapted basis functions of A'  symmetry.
 There are    58 symmetry adapted basis functions of A"  symmetry.
   178 basis functions,   294 primitive gaussians,   205 cartesian basis functions
    18 alpha electrons       18 beta electrons
       nuclear repulsion energy       167.9625534648 Hartrees.
 NAtoms=    7 NActive=    7 NUniq=    7 SFac= 1.00D+00 NAtFMM=   60 NAOKFM=F Big=F
 Integral buffers will be    131072 words long.
 Raffenetti 2 integral format.
 Two-electron integral symmetry is turned on.
 One-electron integrals computed using PRISM.
 NBasis=   178 RedAO= T EigKep=  1.07D-03  NBF=   120    58
 NBsUse=   178 1.00D-06 EigRej= -1.00D+00 NBFU=   120    58
 Initial guess from the checkpoint file:  "/tmp/rdj3/g09-23219/Gau-30402.chk"
 B after Tr=     0.000000    0.000000    0.000000
         Rot=    1.000000    0.000000    0.000000   -0.000940 Ang=  -0.11 deg.
 Initial guess orbital symmetries:
       Occupied  (A') (A') (A') (A') (A') (A') (A') (A') (A') (A')
                 (A') (A") (A') (A') (A") (A") (A') (A')
       Virtual   (A') (A') (A') (A') (A') (A') (A') (A') (A') (A')
                 (A') (A') (A') (A') (A') (A') (A') (A') (A') (A')
                 (A') (A') (A') (A') (A') (A') (A') (A') (A') (A')
                 (A') (A') (A') (A') (A') (A') (A') (A') (A') (A')
                 (A') (A') (A') (A') (A') (A') (A') (A') (A') (A')
                 (A') (A') (A') (A') (A') (A') (A') (A') (A') (A')
                 (A') (A') (A') (A') (A') (A') (A') (A') (A') (A')
                 (A') (A') (A') (A') (A') (A') (A') (A') (A') (A')
                 (A') (A') (A') (A') (A') (A') (A') (A') (A') (A')
                 (A') (A') (A') (A') (A') (A') (A') (A') (A') (A')
                 (A') (A') (A') (A') (A') (A") (A") (A") (A") (A")
                 (A") (A") (A") (A") (A") (A") (A") (A") (A") (A")
                 (A") (A") (A") (A") (A") (A") (A") (A") (A") (A")
                 (A") (A") (A") (A") (A") (A") (A") (A") (A") (A")
                 (A") (A") (A") (A") (A") (A") (A") (A") (A") (A")
                 (A") (A") (A") (A") (A") (A") (A") (A") (A") (A")
 ExpMin= 1.03D-01 ExpMax= 1.14D+04 ExpMxC= 3.89D+02 IAcc=1 IRadAn=         1 AccDes= 0.00D+00
 Harris functional with IExCor=  205 and IRadAn=       1 diagonalized for initial guess.
 HarFok:  IExCor=  205 AccDes= 0.00D+00 IRadAn=         1 IDoV= 1 UseB2=F ITyADJ=14
 ICtDFT=  3500011 ScaDFX=  1.000000  1.000000  1.000000  1.000000
 FoFCou: FMM=F IPFlag=           0 FMFlag=      100000 FMFlg1=           0
         NFxFlg=           0 DoJE=T BraDBF=F KetDBF=T FulRan=T
         wScrn=  0.000000 ICntrl=     500 IOpCl=  0 I1Cent=   200000004 NGrid=           0
         NMat0=    1 NMatS0=      1 NMatT0=    0 NMatD0=    1 NMtDS0=    0 NMtDT0=    0
 Petite list used in FoFCou.
 Keep J ints in memory in symmetry-blocked form, NReq=191556701.
 Requested convergence on RMS density matrix=1.00D-08 within 128 cycles.
 Requested convergence on MAX density matrix=1.00D-06.
 Requested convergence on             energy=1.00D-06.
 No special actions if energy rises.
 Integral accuracy reduced to 1.0D-05 until final iterations.
 Initial convergence to 1.0D-05 achieved.  Increase integral accuracy.
 SCF Done:  E(RS-VWN) =  -256.987520914     A.U. after   11 cycles
            NFock= 11  Conv=0.23D-08     -V/T= 2.0094
 Calling FoFJK, ICntrl=      2527 FMM=F ISym2X=1 I1Cent= 0 IOpClX= 0 NMat=1 NMatS=1 NMatT=0.
 ***** Axes restored to original set *****
 -------------------------------------------------------------------
 Center     Atomic                   Forces (Hartrees/Bohr)
 Number     Number              X              Y              Z
 -------------------------------------------------------------------
      1        6           0.001332958   -0.001034631    0.000000000
      2        7           0.000507182    0.000006977    0.000000000
      3        7          -0.001292874   -0.002289056    0.000000000
      4        7           0.002563894    0.001527207    0.000000000
      5        7          -0.002723093    0.001659679    0.000000000
      6        1          -0.000195603   -0.000008436    0.000000000
      7        1          -0.000192465    0.000138260    0.000000000
 -------------------------------------------------------------------
 Cartesian Forces:  Max     0.002723093 RMS     0.001178902
 -----------------------------------------------------------------------------------------------
                       Internal Coordinate Forces (Hartree/Bohr or radian)
  Cent   Atom   N1       Length/X         N2         Alpha/Y        N3         Beta/Z          J
 -----------------------------------------------------------------------------------------------
         X 
         X        1   0.000000(     1)
      1  C        1   0.001111(     2)      2   0.000000(     9)
      2  N        1   0.000077(     3)      2   0.000000(    10)      3  -0.000834(    16)     0
      3  N        1   0.002542(     4)      2   0.000000(    11)      3  -0.000674(    17)     0
      4  N        1  -0.002424(     5)      2   0.000000(    12)      3   0.003691(    18)     0
      5  N        1   0.001650(     6)      2   0.000000(    13)      3  -0.004353(    19)     0
      6  H        3  -0.000193(     7)      4   0.000073(    14)      5   0.000000(    20)     0
      7  H        4  -0.000210(     8)      5  -0.000210(    15)      6   0.000000(    21)     0
 -----------------------------------------------------------------------------------------------
 Internal  Forces:  Max     0.004353220 RMS     0.001545462

 GradGradGradGradGradGradGradGradGradGradGradGradGradGradGradGradGradGrad
 Berny optimization.
 Search for a local minimum.
 Step number   4 out of a maximum of   22
 All quantities printed in internal units (Hartrees-Bohrs-Radians)
 Update second derivatives using D2CorN and points    1    2    3    4
 DE= -3.91D-05 DEPred=-4.63D-05 R= 8.45D-01
 TightC=F SS=  1.41D+00  RLast= 5.89D-02 DXNew= 8.4853D-01 1.7677D-01
 Trust test= 8.45D-01 RLast= 5.89D-02 DXMaxT set to 5.05D-01
 The second derivative matrix:
                          rn1       rn2       rn3       rn4       rch
           rn1          0.65874
           rn2          0.00302   0.63177
           rn3          0.05010   0.05317   0.58421
           rn4          0.03658   0.02325   0.12461   0.65223
           rch          0.01123  -0.01721  -0.00218  -0.00293   0.37674
           rnh          0.01276  -0.02336  -0.00403  -0.00424   0.00050
           an1          0.03537  -0.72914   0.04613  -0.09058   0.00703
           an2          0.74365  -0.25037  -0.67309   0.07845   0.04323
           an3         -0.07062   0.98703  -0.00769  -0.57692  -0.04844
           an4          0.07567   0.01877   0.67018  -0.11588   0.00983
           ach          0.04542  -0.00076  -0.00032   0.04990  -0.00044
           anh         -0.10251   0.05498   0.00117  -0.00006   0.00023
                          rnh       an1       an2       an3       an4
           rnh          0.48618
           an1          0.00870   4.52495
           an2          0.05331  -2.68657   6.01644
           an3         -0.05950  -0.04221  -3.17790   4.52167
           an4          0.01343  -0.14028  -0.10535  -1.14923   2.54435
           ach         -0.00054  -0.10461  -0.00047  -0.00066   0.07416
           anh          0.00043   0.03433  -0.09402   0.00364  -0.00150
                          ach       anh
           ach          0.31998
           anh          0.00006   0.31999
 ITU=  1  1  1  0
     Eigenvalues ---   -0.00276   0.12982   0.26975   0.33202   0.37519
     Eigenvalues ---    0.39818   0.48564   0.74902   1.20795   2.99446
     Eigenvalues ---    5.07583   9.62214
 RFO step:  Lambda=-2.79792296D-03 EMin=-2.76133465D-03
 I=     1 Eig=   -2.76D-03 Dot1= -1.91D-04
 I=     1 Stepn= -6.00D-01 RXN=   6.00D-01 EDone=F
 Mixed    1 eigenvectors in step.  Raw Step.Grad=  1.91D-04.
 RFO eigenvector is Hessian eigenvector with negative curvature.
 Taking step of  6.00D-01 in eigenvector direction(s).  Step.Grad= -3.81D-04.
 Quartic linear search produced a step of -0.05672.
 Maximum step size (   0.505) exceeded in Quadratic search.
    -- Step size scaled by   0.841
 Variable       Old X    -DE/DX   Delta X   Delta X   Delta X     New X
                                 (Linear)    (Quad)   (Total)
   rn1        2.51756   0.00008  -0.00114   0.22324   0.22210   2.73966
   rn2        2.69555   0.00254  -0.00130   0.19631   0.19502   2.89056
   rn3        2.12088  -0.00242  -0.00050  -0.06967  -0.07016   2.05072
   rn4        1.59527   0.00165   0.00182  -0.22128  -0.21947   1.37580
   rch        2.05243  -0.00019   0.00016  -0.00300  -0.00285   2.04958
   rnh        1.92265  -0.00021   0.00014  -0.00156  -0.00142   1.92123
   an1        1.19073  -0.00083   0.00060  -0.09245  -0.09185   1.09887
   an2        2.19723  -0.00067   0.00106  -0.19018  -0.18912   2.00811
   an3        3.22701   0.00369   0.00142  -0.23199  -0.23057   2.99645
   an4        4.71586  -0.00435   0.00105  -0.11741  -0.11636   4.59949
   ach        2.18475   0.00007  -0.00009  -0.00055  -0.00064   2.18411
   anh        2.10155  -0.00021  -0.00002  -0.00581  -0.00583   2.09572
         Item               Value     Threshold  Converged?
 Maximum Force            0.004353     0.000450     NO 
 RMS     Force            0.002019     0.000300     NO 
 Maximum Displacement     0.230568     0.001800     NO 
 RMS     Displacement     0.144740     0.001200     NO 
 Predicted change in Energy=-5.293536D-04
 GradGradGradGradGradGradGradGradGradGradGradGradGradGradGradGradGradGrad

 ---------------------------------------------------------------------------------------------------
                            Z-MATRIX (ANGSTROMS AND DEGREES)
   CD    Cent   Atom    N1       Length/X        N2       Alpha/Y        N3        Beta/Z          J
 ---------------------------------------------------------------------------------------------------
      1         X 
      2         X        1   1.000000(     1)
      3      1  C        1   1.000000(     2)      2   90.000(     9)
      4      2  N        1   1.449767(     3)      2   90.000(    10)      3   62.961(    16)      0
      5      3  N        1   1.529620(     4)      2   90.000(    11)      3  115.056(    17)      0
      6      4  N        1   1.085192(     5)      2   90.000(    12)      3  171.684(    18)      0
      7      5  N        1   0.728044(     6)      2   90.000(    13)      3  263.532(    19)      0
      8      6  H        3   1.084593(     7)      4  125.140(    14)      5  180.000(    20)      0
      9      7  H        4   1.016669(     8)      5  120.076(    15)      6  180.000(    21)      0
 ---------------------------------------------------------------------------------------------------
                         Z-Matrix orientation:                         
 ---------------------------------------------------------------------
 Center     Atomic      Atomic             Coordinates (Angstroms)
 Number     Number       Type             X           Y           Z
 ---------------------------------------------------------------------
      1         -1           0        0.000000    0.000000    0.000000
      2         -1           0        0.000000    0.000000    1.000000
      3          6           0        1.000000    0.000000    0.000000
      4          7           0        0.659063   -1.291302    0.000000
      5          7           0       -0.647804   -1.385672    0.000000
      6          7           0       -1.073781   -0.156960    0.000000
      7          7           0       -0.082019    0.723409    0.000000
      8          1           0        2.016899    0.377172    0.000000
      9          1           0        1.230609   -2.132106    0.000000
 ---------------------------------------------------------------------
                    Distance matrix (angstroms):
                    1          2          3          4          5
     1  X    0.000000
     2  X    1.000000   0.000000
     3  C    1.000000   1.414214   0.000000
     4  N    1.449767   1.761200   1.335552   0.000000
     5  N    1.529620   1.827495   2.152986   1.310271   0.000000
     6  N    1.085192   1.475683   2.079712   2.071106   1.300457
     7  N    0.728044   1.236951   1.301571   2.146686   2.183652
     8  H    2.051862   2.282573   1.084593   2.151167   3.195037
     9  H    2.461762   2.657118   2.144541   1.016669   2.021286
                    6          7          8          9
     6  N    0.000000
     7  N    1.326138   0.000000
     8  H    3.136494   2.127284   0.000000
     9  H    3.035031   3.142763   2.629587   0.000000
 Stoichiometry    CH2N4
 Framework group  CS[SG(CH2N4)]
 Deg. of freedom    11
 Full point group                 CS      NOp   2
 Largest Abelian subgroup         CS      NOp   2
 Largest concise Abelian subgroup C1      NOp   1
                         Standard orientation:                         
 ---------------------------------------------------------------------
 Center     Atomic      Atomic             Coordinates (Angstroms)
 Number     Number       Type             X           Y           Z
 ---------------------------------------------------------------------
      1          6           0        1.047917    0.212592    0.000000
      2          7           0        0.000000    1.040582    0.000000
      3          7           0       -1.101785    0.331443    0.000000
      4          7           0       -0.704761   -0.906927    0.000000
      5          7           0        0.616921   -1.015549    0.000000
      6          1           0        2.087595    0.521479    0.000000
      7          1           0       -0.047721    2.056130    0.000000
 ---------------------------------------------------------------------
 Rotational constants (GHZ):     11.0305999     10.3934232      5.3512682
 Standard basis: CC-pVTZ (5D, 7F)
 There are   142 symmetry adapted cartesian basis functions of A'  symmetry.
 There are    63 symmetry adapted cartesian basis functions of A"  symmetry.
 There are   120 symmetry adapted basis functions of A'  symmetry.
 There are    58 symmetry adapted basis functions of A"  symmetry.
   178 basis functions,   294 primitive gaussians,   205 cartesian basis functions
    18 alpha electrons       18 beta electrons
       nuclear repulsion energy       168.7696146640 Hartrees.
 NAtoms=    7 NActive=    7 NUniq=    7 SFac= 1.00D+00 NAtFMM=   60 NAOKFM=F Big=F
 Integral buffers will be    131072 words long.
 Raffenetti 2 integral format.
 Two-electron integral symmetry is turned on.
 One-electron integrals computed using PRISM.
 NBasis=   178 RedAO= T EigKep=  1.04D-03  NBF=   120    58
 NBsUse=   178 1.00D-06 EigRej= -1.00D+00 NBFU=   120    58
 Initial guess from the checkpoint file:  "/tmp/rdj3/g09-23219/Gau-30402.chk"
 B after Tr=     0.000000    0.000000    0.000000
         Rot=    0.999987    0.000000    0.000000    0.005169 Ang=   0.59 deg.
 Initial guess orbital symmetries:
       Occupied  (A') (A') (A') (A') (A') (A') (A') (A') (A') (A')
                 (A') (A") (A') (A') (A") (A") (A') (A')
       Virtual   (A') (A') (A') (A') (A') (A') (A') (A') (A') (A')
                 (A') (A') (A') (A') (A') (A') (A') (A') (A') (A')
                 (A') (A') (A') (A') (A') (A') (A') (A') (A') (A')
                 (A') (A') (A') (A') (A') (A') (A') (A') (A') (A')
                 (A') (A') (A') (A') (A') (A') (A') (A') (A') (A')
                 (A') (A') (A') (A') (A') (A') (A') (A') (A') (A')
                 (A') (A') (A') (A') (A') (A') (A') (A') (A') (A')
                 (A') (A') (A') (A') (A') (A') (A') (A') (A') (A')
                 (A') (A') (A') (A') (A') (A') (A') (A') (A') (A')
                 (A') (A') (A') (A') (A') (A') (A') (A') (A') (A')
                 (A') (A') (A') (A') (A') (A") (A") (A") (A") (A")
                 (A") (A") (A") (A") (A") (A") (A") (A") (A") (A")
                 (A") (A") (A") (A") (A") (A") (A") (A") (A") (A")
                 (A") (A") (A") (A") (A") (A") (A") (A") (A") (A")
                 (A") (A") (A") (A") (A") (A") (A") (A") (A") (A")
                 (A") (A") (A") (A") (A") (A") (A") (A") (A") (A")
 ExpMin= 1.03D-01 ExpMax= 1.14D+04 ExpMxC= 3.89D+02 IAcc=1 IRadAn=         1 AccDes= 0.00D+00
 Harris functional with IExCor=  205 and IRadAn=       1 diagonalized for initial guess.
 HarFok:  IExCor=  205 AccDes= 0.00D+00 IRadAn=         1 IDoV= 1 UseB2=F ITyADJ=14
 ICtDFT=  3500011 ScaDFX=  1.000000  1.000000  1.000000  1.000000
 FoFCou: FMM=F IPFlag=           0 FMFlag=      100000 FMFlg1=           0
         NFxFlg=           0 DoJE=T BraDBF=F KetDBF=T FulRan=T
         wScrn=  0.000000 ICntrl=     500 IOpCl=  0 I1Cent=   200000004 NGrid=           0
         NMat0=    1 NMatS0=      1 NMatT0=    0 NMatD0=    1 NMtDS0=    0 NMtDT0=    0
 Petite list used in FoFCou.
 Keep J ints in memory in symmetry-blocked form, NReq=191556701.
 Requested convergence on RMS density matrix=1.00D-08 within 128 cycles.
 Requested convergence on MAX density matrix=1.00D-06.
 Requested convergence on             energy=1.00D-06.
 No special actions if energy rises.
 Integral accuracy reduced to 1.0D-05 until final iterations.
 Initial convergence to 1.0D-05 achieved.  Increase integral accuracy.
 SCF Done:  E(RS-VWN) =  -256.986066340     A.U. after   12 cycles
            NFock= 12  Conv=0.10D-07     -V/T= 2.0091
 Calling FoFJK, ICntrl=      2527 FMM=F ISym2X=1 I1Cent= 0 IOpClX= 0 NMat=1 NMatS=1 NMatT=0.
 ***** Axes restored to original set *****
 -------------------------------------------------------------------
 Center     Atomic                   Forces (Hartrees/Bohr)
 Number     Number              X              Y              Z
 -------------------------------------------------------------------
      1        6           0.021084549    0.001799398    0.000000000
      2        7           0.014557036    0.000802142    0.000000000
      3        7          -0.016352066    0.013501058    0.000000000
      4        7          -0.024173500   -0.011830136    0.000000000
      5        7           0.001294108   -0.003751583    0.000000000
      6        1           0.001680468   -0.000913159    0.000000000
      7        1           0.001909405    0.000392279    0.000000000
 -------------------------------------------------------------------
 Cartesian Forces:  Max     0.024173500 RMS     0.009404994
 -----------------------------------------------------------------------------------------------
                       Internal Coordinate Forces (Hartree/Bohr or radian)
  Cent   Atom   N1       Length/X         N2         Alpha/Y        N3         Beta/Z          J
 -----------------------------------------------------------------------------------------------
         X 
         X        1   0.000000(     1)
      1  C        1   0.023896(     2)      2   0.000000(     9)
      2  N        1   0.004355(     3)      2   0.000000(    10)      3  -0.040770(    16)     0
      3  N        1  -0.004086(     4)      2   0.000000(    11)      3   0.057378(    17)     0
      4  N        1   0.025630(     5)      2   0.000000(    12)      3  -0.016835(    18)     0
      5  N        1  -0.003873(     6)      2   0.000000(    13)      3   0.001188(    19)     0
      6  H        3   0.001258(     7)      4  -0.002953(    14)      5   0.000000(    20)     0
      7  H        4   0.000749(     8)      5   0.003458(    15)      6   0.000000(    21)     0
 -----------------------------------------------------------------------------------------------
 Internal  Forces:  Max     0.057377856 RMS     0.017648250

 GradGradGradGradGradGradGradGradGradGradGradGradGradGradGradGradGradGrad
 Berny optimization.
 Search for a local minimum.
 Step number   5 out of a maximum of   22
 All quantities printed in internal units (Hartrees-Bohrs-Radians)
 Update second derivatives using D2CorN and points    1    2    3    5    4

 The second derivative matrix:
                          rn1       rn2       rn3       rn4       rch
           rn1          0.65544
[...]
   XY=              1.7674   XZ=              0.0000   YZ=              0.0000
 Traceless Quadrupole moment (field-independent basis, Debye-Ang):
   XX=             -1.1277   YY=              1.5943   ZZ=             -0.4666
   XY=              1.7674   XZ=              0.0000   YZ=              0.0000
 Octapole moment (field-independent basis, Debye-Ang**2):
  XXX=             11.8558  YYY=             22.3930  ZZZ=              0.0000  XYY=             -0.6291
  XXY=              4.4688  XXZ=              0.0000  XZZ=             -0.7989  YZZ=              0.5595
  YYZ=              0.0000  XYZ=              0.0000
 Hexadecapole moment (field-independent basis, Debye-Ang**3):
 XXXX=           -143.3584 YYYY=           -121.5685 ZZZZ=            -26.0223 XXXY=              6.9713
 XXXZ=              0.0000 YYYX=             -0.6064 YYYZ=              0.0000 ZZZX=              0.0000
 ZZZY=              0.0000 XXYY=            -54.2870 XXZZ=            -30.8049 YYZZ=            -29.0109
 XXYZ=              0.0000 YYXZ=              0.0000 ZZXY=             -0.1598
 N-N= 1.679224024465D+02 E-N=-9.363058321204D+02  KE= 2.545844860489D+02
 Symmetry A'   KE= 2.449367610464D+02
 Symmetry A"   KE= 9.647725002532D+00
  Exact polarizability:  42.328   0.965  41.558   0.000   0.000  21.141
 Approx polarizability:  86.680   0.786  90.814   0.000   0.000  37.738
 Calling FoFJK, ICntrl=    100527 FMM=F ISym2X=1 I1Cent= 0 IOpClX= 0 NMat=1 NMatS=1 NMatT=0.
 Full mass-weighted force constant matrix:
 Low frequencies ---  -12.3731    0.0006    0.0012    0.0013    5.6044   12.3949
 Low frequencies ---  615.2683  689.4526  744.6938
 Diagonal vibrational polarizability:
        1.1731250       1.0867986       6.9150394
 Harmonic frequencies (cm**-1), IR intensities (KM/Mole), Raman scattering
 activities (A**4/AMU), depolarization ratios for plane and unpolarized
 incident light, reduced masses (AMU), force constants (mDyne/A),
 and normal coordinates:
                      1                      2                      3
                     A"                     A"                     A"
 Frequencies --    615.2683               689.4524               744.6938
 Red. masses --      1.6217                 1.9558                 8.7916
 Frc consts  --      0.3617                 0.5477                 2.8726
 IR Inten    --     77.9886                 5.1040                 7.2323
  Atom  AN      X      Y      Z        X      Y      Z        X      Y      Z
     1   6     0.00   0.00  -0.06     0.00   0.00   0.17     0.00   0.00  -0.10
     2   7     0.00   0.00   0.20     0.00   0.00  -0.11     0.00   0.00  -0.13
     3   7     0.00   0.00  -0.07     0.00   0.00   0.11     0.00   0.00   0.43
     4   7     0.00   0.00   0.00     0.00   0.00   0.03     0.00   0.00  -0.51
     5   7     0.00   0.00   0.02     0.00   0.00  -0.16     0.00   0.00   0.35
     6   1     0.00   0.00  -0.25     0.00   0.00   0.59     0.00   0.00  -0.14
     7   1     0.00   0.00  -0.94     0.00   0.00  -0.76     0.00   0.00  -0.62
                      4                      5                      6
                     A"                     A'                     A'
 Frequencies --    826.6886               962.2503              1002.3196
 Red. masses --      1.4610                 3.1373                 4.5471
 Frc consts  --      0.5883                 1.7115                 2.6915
 IR Inten    --     18.5630                 5.0350                 2.3963
  Atom  AN      X      Y      Z        X      Y      Z        X      Y      Z
     1   6     0.00   0.00   0.19     0.13   0.08   0.00    -0.27  -0.05   0.00
     2   7     0.00   0.00  -0.05     0.07   0.02   0.00     0.03   0.38   0.00
     3   7     0.00   0.00   0.01     0.10  -0.11   0.00     0.07  -0.10   0.00
     4   7     0.00   0.00  -0.01    -0.02  -0.13   0.00     0.13  -0.06   0.00
     5   7     0.00   0.00  -0.04    -0.24   0.20   0.00    -0.01  -0.16   0.00
     6   1     0.00   0.00  -0.98     0.36  -0.66   0.00    -0.07  -0.74   0.00
     7   1     0.00   0.00  -0.05    -0.51  -0.02   0.00     0.07   0.40   0.00
                      7                      8                      9
                     A'                     A'                     A'
 Frequencies --   1053.6714              1078.7992              1126.2897
 Red. masses --      2.7945                 5.2918                 2.3367
 Frc consts  --      1.8280                 3.6286                 1.7464
 IR Inten    --     33.3324                14.9228                 9.5219
  Atom  AN      X      Y      Z        X      Y      Z        X      Y      Z
     1   6    -0.03  -0.04   0.00    -0.16   0.05   0.00     0.06  -0.10   0.00
     2   7    -0.14   0.00   0.00    -0.02  -0.15   0.00    -0.16  -0.06   0.00
     3   7     0.30   0.11   0.00     0.10   0.13   0.00    -0.08   0.09   0.00
     4   7    -0.08  -0.02   0.00     0.38  -0.05   0.00     0.17   0.14   0.00
     5   7     0.01  -0.08   0.00    -0.33   0.00   0.00     0.03  -0.01   0.00
     6   1    -0.15   0.32   0.00    -0.33   0.53   0.00     0.27  -0.78   0.00
     7   1    -0.86  -0.04   0.00     0.51  -0.13   0.00    -0.45  -0.08   0.00
                     10                     11                     12
                     A'                     A'                     A'
 Frequencies --   1232.2841              1284.3212              1428.7254
 Red. masses --      2.4463                10.5539                 3.7256
 Frc consts  --      2.1887                10.2567                 4.4807
 IR Inten    --      6.2971                 8.2920                 6.3538
  Atom  AN      X      Y      Z        X      Y      Z        X      Y      Z
     1   6     0.12   0.01   0.00     0.33   0.06   0.00    -0.22   0.24   0.00
     2   7     0.10   0.08   0.00    -0.08   0.21   0.00     0.24  -0.15   0.00
     3   7    -0.10  -0.11   0.00    -0.26   0.43   0.00    -0.08   0.12   0.00
     4   7     0.07   0.13   0.00     0.04  -0.54   0.00    -0.01  -0.04   0.00
     5   7    -0.12  -0.15   0.00    -0.01  -0.20   0.00     0.08  -0.08   0.00
     6   1    -0.04   0.60   0.00     0.34   0.22   0.00    -0.05  -0.43   0.00
     7   1    -0.72   0.04   0.00    -0.12   0.26   0.00    -0.72  -0.24   0.00
                     13                     14                     15
                     A'                     A'                     A'
 Frequencies --   1472.8256              3202.5911              3547.4943
 Red. masses --      4.3873                 1.1020                 1.0837
 Frc consts  --      5.6073                 6.6594                 8.0355
 IR Inten    --     12.5508                 4.7403                91.4614
  Atom  AN      X      Y      Z        X      Y      Z        X      Y      Z
     1   6     0.12   0.38   0.00     0.09   0.03   0.00     0.00   0.00   0.00
     2   7    -0.15  -0.05   0.00     0.00   0.00   0.00    -0.01   0.08   0.00
     3   7     0.10  -0.07   0.00     0.00   0.00   0.00     0.00   0.00   0.00
     4   7    -0.07   0.09   0.00     0.00   0.00   0.00     0.00   0.00   0.00
     5   7    -0.06  -0.27   0.00     0.00   0.00   0.00     0.00   0.00   0.00
     6   1     0.40  -0.40   0.00    -0.95  -0.29   0.00    -0.02   0.00   0.00
     7   1     0.62   0.00   0.00     0.01   0.02   0.00     0.06  -1.00   0.00

 -------------------
 - Thermochemistry -
 -------------------
 Temperature   298.150 Kelvin.  Pressure   1.00000 Atm.
 Atom     1 has atomic number  6 and mass  12.00000
 Atom     2 has atomic number  7 and mass  14.00307
 Atom     3 has atomic number  7 and mass  14.00307
 Atom     4 has atomic number  7 and mass  14.00307
 Atom     5 has atomic number  7 and mass  14.00307
 Atom     6 has atomic number  1 and mass   1.00783
 Atom     7 has atomic number  1 and mass   1.00783
 Molecular mass:    70.02795 amu.
 Principal axes and moments of inertia in atomic units:
                           1         2         3
     Eigenvalues --   169.21470 171.47087 340.68557
           X            0.78742   0.61641   0.00000
           Y           -0.61641   0.78742   0.00000
           Z            0.00000   0.00000   1.00000
 This molecule is an asymmetric top.
 Rotational symmetry number  1.
 Rotational temperatures (Kelvin)      0.51186     0.50512     0.25423
 Rotational constants (GHZ):          10.66539    10.52506     5.29738
 Zero-point vibrational energy     121227.6 (Joules/Mol)
                                   28.97410 (Kcal/Mol)
 Warning -- explicit consideration of   1 degrees of freedom as
           vibrations may cause significant error
 Vibrational temperatures:    885.23   991.97  1071.45  1189.42  1384.46
          (Kelvin)           1442.11  1516.00  1552.15  1620.48  1772.98
                             1847.85  2055.61  2119.06  4607.81  5104.05
 
 Zero-point correction=                           0.046173 (Hartree/Particle)
 Thermal correction to Energy=                    0.049639
 Thermal correction to Enthalpy=                  0.050583
 Thermal correction to Gibbs Free Energy=         0.020106
 Sum of electronic and zero-point Energies=           -256.941367
 Sum of electronic and thermal Energies=              -256.937901
 Sum of electronic and thermal Enthalpies=            -256.936957
 Sum of electronic and thermal Free Energies=         -256.967434
 
                     E (Thermal)             CV                S
                      KCal/Mol        Cal/Mol-Kelvin    Cal/Mol-Kelvin
 Total                   31.149             11.358             64.145
 Electronic               0.000              0.000              0.000
 Translational            0.889              2.981             38.656
 Rotational               0.889              2.981             23.806
 Vibrational             29.371              5.396              1.682
 Vibration     1          0.975              1.000              0.424
                       Q            Log10(Q)             Ln(Q)
 Total Bot       0.564963D-09         -9.247980        -21.294261
 Total V=0       0.977585D+12         11.990154         27.608351
 Vib (Bot)       0.689160D-21        -21.161680        -48.726568
 Vib (Bot)    1  0.238872D+00         -0.621834         -1.431827
 Vib (V=0)       0.119249D+01          0.076455          0.176043
 Vib (V=0)    1  0.105413D+01          0.022894          0.052716
 Electronic      0.100000D+01          0.000000          0.000000
 Translational   0.230336D+08          7.362362         16.952466
 Rotational      0.355908D+05          4.551338         10.479842
 ***** Axes restored to original set *****
 -------------------------------------------------------------------
 Center     Atomic                   Forces (Hartrees/Bohr)
 Number     Number              X              Y              Z
 -------------------------------------------------------------------
      1        6           0.000245249   -0.000023685    0.000000000
      2        7          -0.000190036    0.000159102    0.000000000
      3        7          -0.000135345   -0.000206525    0.000000000
      4        7           0.000361333   -0.000100574    0.000000000
      5        7          -0.000253489    0.000153259    0.000000000
      6        1           0.000001584    0.000026509    0.000000000
      7        1          -0.000029296   -0.000008086    0.000000000
 -------------------------------------------------------------------
 Cartesian Forces:  Max     0.000361333 RMS     0.000140265
 -----------------------------------------------------------------------------------------------
                       Internal Coordinate Forces (Hartree/Bohr or radian)
  Cent   Atom   N1       Length/X         N2         Alpha/Y        N3         Beta/Z          J
 -----------------------------------------------------------------------------------------------
         X 
         X        1   0.000000(     1)
      1  C        1   0.000228(     2)      2   0.000000(     9)
      2  N        1  -0.000190(     3)      2   0.000000(    10)      3   0.000354(    16)     0
      3  N        1   0.000228(     4)      2   0.000000(    11)      3   0.000025(    17)     0
      4  N        1  -0.000365(     5)      2   0.000000(    12)      3  -0.000182(    18)     0
      5  N        1   0.000159(     6)      2   0.000000(    13)      3  -0.000387(    19)     0
      6  H        3   0.000008(     7)      4   0.000052(    14)      5   0.000000(    20)     0
      7  H        4  -0.000007(     8)      5  -0.000057(    15)      6   0.000000(    21)     0
 -----------------------------------------------------------------------------------------------
 Internal  Forces:  Max     0.000387331 RMS     0.000170892

 GradGradGradGradGradGradGradGradGradGradGradGradGradGradGradGradGradGrad
 Berny optimization.
 Search for a local minimum.
 Step number   1 out of a maximum of    2
 All quantities printed in internal units (Hartrees-Bohrs-Radians)
 Second derivative matrix not updated -- analytic derivatives used.
 The second derivative matrix:
                          rn1       rn2       rn3       rn4       rch
           rn1          0.58453
           rn2         -0.05029   0.57633
           rn3          0.06353  -0.02436   0.53519
           rn4          0.09800   0.08637   0.01714   0.54536
           rch         -0.00278  -0.00175   0.00022  -0.00214   0.35924
           rnh          0.01325  -0.00662  -0.00052  -0.00048   0.00028
           an1          0.10805  -0.36401  -0.23770   0.14369   0.01276
           an2          0.24804  -0.09082  -0.33169  -0.16900   0.00230
           an3          0.23466   0.46938   0.18294  -0.24282  -0.00093
           an4         -0.11327   0.14767   0.27523  -0.13008  -0.01368
           ach          0.03287   0.01263  -0.01351   0.02575   0.00266
           anh         -0.04673   0.01965   0.02376  -0.02011  -0.00098
                          rnh       an1       an2       an3       an4
           rnh          0.44681
           an1         -0.01610   2.93958
           an2          0.01995  -1.25145   3.17297
           an3          0.00035  -0.40776  -1.42107   2.17100
           an4         -0.00302  -0.22122  -0.17408  -0.25506   1.11119
           ach          0.00043  -0.00079  -0.02019  -0.00674   0.06879
           anh         -0.00007  -0.04371  -0.00182   0.01266  -0.00469
                          ach       anh
           ach          0.19353
           anh          0.00120   0.19212
 ITU=  0
     Eigenvalues ---    0.00001   0.14770   0.19105   0.26895   0.35945
     Eigenvalues ---    0.44612   0.61136   0.67808   0.77033   1.49538
     Eigenvalues ---    3.21225   4.64718
 Quadratic step=3.708D+00 exceeds max=3.000D-01 adjusted using Lamda=-1.594D-04.
 Angle between NR and scaled steps=   0.19 degrees.
 Angle between quadratic step and forces=  85.86 degrees.
 Linear search not attempted -- first point.
 Variable       Old X    -DE/DX   Delta X   Delta X   Delta X     New X
                                 (Linear)    (Quad)   (Total)
   rn1        2.56029  -0.00019   0.00000   0.12975   0.12975   2.69004
   rn2        2.73660   0.00023   0.00000   0.11793   0.11793   2.85453
   rn3        2.11488  -0.00037   0.00000  -0.00580  -0.00580   2.10908
   rn4        1.55108   0.00016   0.00000  -0.14115  -0.14115   1.40993
   rch        2.05181   0.00001   0.00000   0.00000   0.00000   2.05181
   rnh        1.92221  -0.00001   0.00000   0.00002   0.00002   1.92223
   an1        1.17257   0.00035   0.00000  -0.05320  -0.05320   1.11937
   an2        2.16272   0.00002   0.00000  -0.10359  -0.10359   2.05913
   an3        3.18169  -0.00018   0.00000  -0.14176  -0.14176   3.03993
   an4        4.68826  -0.00039   0.00000  -0.07726  -0.07726   4.61100
   ach        2.18521   0.00005   0.00000   0.00041   0.00041   2.18562
   anh        2.10075  -0.00006   0.00000  -0.00048  -0.00048   2.10027
         Item               Value     Threshold  Converged?
 Maximum Force            0.000387     0.000450     YES
 RMS     Force            0.000216     0.000300     YES
 Maximum Displacement     0.141765     0.001800     NO 
 RMS     Displacement     0.086760     0.001200     NO 
 Predicted change in Energy=-1.533055D-05
 GradGradGradGradGradGradGradGradGradGradGradGradGradGradGradGradGradGrad

 1\1\GINC-N366\Freq\RSVWN\CC-pVTZ\C1H2N4\RDJ3\25-Nov-2013\1\\#N Geom=Al
 lCheck Guess=TCheck SCRF=Check GenChk RSVWN/CC-pVTZ Freq\\1H-tetrazole
  CH2N4 casno=288948 state=1 config=1 method=53 basis=6\\0,1\X\X,1,1.\C
 ,1,1.,2,90.\N,1,rn1,2,90.,3,an1,0\N,1,rn2,2,90.,3,an2,0\N,1,rn3,2,90.,
 3,an3,0\N,1,rn4,2,90.,3,an4,0\H,3,rch,4,ach,5,180.,0\H,4,rnh,5,anh,6,1
 80.,0\\rn1=1.35484696\rn2=1.44814618\rn3=1.11914874\rn4=0.8207941\rch=
 1.08577042\rnh=1.01719125\an1=67.1833082\an2=123.91471925\an3=182.2975
 2628\an4=268.61727286\ach=125.2032752\anh=120.363871\\Version=EM64L-G0
 9RevD.01\State=1-A'\HF=-256.98754\RMSD=8.617e-09\RMSF=1.403e-04\ZeroPo
 int=0.0461732\Thermal=0.0496388\Dipole=1.8013633,-1.0723187,0.\DipoleD
 eriv=0.1337586,0.026861,0.,-0.104014,0.3905929,0.,0.,0.,0.0519676,-0.2
 425069,0.2968673,0.,0.2201,-0.2295672,0.,0.,0.,-0.0851993,0.1696402,-0
 .3236422,0.,-0.2535301,-0.2763313,0.,0.,0.,-0.1093442,-0.0343523,0.153
 9922,0.,0.1915635,0.0486685,0.,0.,0.,-0.1510779,-0.3096973,-0.121732,0
 .,-0.0394716,-0.3318886,0.,0.,0.,-0.2020378,0.0786114,0.0122085,0.,0.0
 047397,0.1249401,0.,0.,0.,0.178111,0.2045463,-0.0445548,0.,-0.0193875,
 0.2735857,0.,0.,0.,0.3175805\Polar=42.9779996,-0.0854025,40.9078226,0.
 ,0.,21.1412884\PG=CS [SG(C1H2N4)]\NImag=0\\0.91822236,0.06104206,0.610
 35300,0.,0.,0.13768585,-0.14083370,-0.06445841,0.,0.59152507,-0.091860
 78,-0.30036498,0.,-0.15209034,0.93407623,0.,0.,-0.06667842,0.,0.,0.101
 32027,-0.08250274,-0.10024598,0.,-0.22296909,-0.04132300,0.,0.44016453
 ,-0.00531628,-0.03550425,0.,-0.00941741,-0.10435164,0.,0.05490895,0.57
 647732,0.,0.,0.02309299,0.,0.,-0.07280153,0.,0.,0.11731703,-0.12504175
 ,0.05201277,0.,-0.09972575,0.03706873,0.,-0.11121218,0.02518042,0.,0.5
 2818677,-0.04664788,0.02227582,0.,0.11480797,-0.07877777,0.,0.08453930
 ,-0.32007547,0.,-0.08816959,0.49256363,0.,0.,0.02025263,0.,0.,0.027333
 48,0.,0.,-0.09824576,0.,0.,0.12620100,-0.26025366,0.13684456,0.,0.0092
 8156,0.09767939,0.,-0.01919031,-0.10030707,0.,-0.17984191,-0.06780688,
 0.,0.46587062,0.13804336,-0.22290765,0.,-0.01332116,-0.09363252,0.,0.0
 0231236,-0.11656172,0.,-0.02607730,-0.11570624,0.,-0.08594229,0.541255
 21,0.,0.,-0.07974449,0.,0.,0.02246415,0.,0.,0.03587458,0.,0.,-0.091764
 62,0.,0.,0.11133842,-0.32464869,-0.07604205,0.,0.00107363,0.00222408,0
 .,0.00036553,0.00319284,0.,-0.00185335,0.00003296,0.,-0.01378657,-0.00
 552549,0.,0.33925026,-0.07159439,-0.06860532,0.,-0.02960833,-0.0011132
 6,0.,-0.00036109,-0.00628431,0.,0.00625171,-0.00186579,0.,0.01845828,0
 .01207123,0.,0.07657804,0.06595462,0.,0.,-0.02699876,0.,0.,-0.00235396
 ,0.,0.,0.00581279,0.,0.,0.00847692,0.,0.,-0.00505326,0.,0.,0.02109611,
 0.01505819,-0.00915295,0.,-0.13835172,0.14830192,0.,-0.00465574,0.0317
 5854,0.,-0.01051182,0.00324410,0.,-0.00207972,-0.00948948,0.,-0.000400
 80,0.00027578,0.,0.14094161,0.01633392,-0.00524661,0.,0.15408766,-0.35
 583606,0.,0.00016945,0.00630006,0.,-0.00626674,0.00158582,0.,0.0010740
 1,-0.00451831,0.,-0.00046038,-0.00015716,0.,-0.16493792,0.35787226,0.,
 0.,-0.00760980,0.,0.,-0.00928398,0.,0.,-0.01105010,0.,0.,0.00774636,0.
 ,0.,0.00688522,0.,0.,-0.00097985,0.,0.,0.01429215\\-0.00024525,0.00002
 368,0.,0.00019004,-0.00015910,0.,0.00013534,0.00020652,0.,-0.00036133,
 0.00010057,0.,0.00025349,-0.00015326,0.,-0.00000158,-0.00002651,0.,0.0
 0002930,0.00000809,0.\\\@


 HAPPINESS IS NOT HAVING WHAT YOU WANT --
 HAPPINESS IS WANTING WHAT YOU HAVE!

              -- FROM MRS. SEVERN'S DESK
 Job cpu time:       0 days  0 hours  7 minutes 37.8 seconds.
 File lengths (MBytes):  RWF=     24 Int=      0 D2E=      0 Chk=      3 Scr=      1
 Normal termination of Gaussian 09 at Mon Nov 25 18:26:41 2013.
