 Entering Gaussian System, Link 0=g09
 Initial command:
 /usr/local/gaussian/g09.d01.em64t.legacy.linda/g09/l1.exe "/tmp/rdj3/g09-18029/Gau-1793.inp" -scrdir="/tmp/rdj3/g09-18029/"
 Entering Link 1 = /usr/local/gaussian/g09.d01.em64t.legacy.linda/g09/l1.exe PID=      1794.
  
 Copyright (c) 1988,1990,1992,1993,1995,1998,2003,2009,2013,
            Gaussian, Inc.  All Rights Reserved.
  
 This is part of the Gaussian(R) 09 program.  It is based on
 the Gaussian(R) 03 system (copyright 2003, Gaussian, Inc.),
 the Gaussian(R) 98 system (copyright 1998, Gaussian, Inc.),
 the Gaussian(R) 94 system (copyright 1995, Gaussian, Inc.),
 the Gaussian 92(TM) system (copyright 1992, Gaussian, Inc.),
 the Gaussian 90(TM) system (copyright 1990, Gaussian, Inc.),
 the Gaussian 88(TM) system (copyright 1988, Gaussian, Inc.),
 the Gaussian 86(TM) system (copyright 1986, Carnegie Mellon
 University), and the Gaussian 82(TM) system (copyright 1983,
 Carnegie Mellon University). Gaussian is a federally registered
 trademark of Gaussian, Inc.
  
 This software contains proprietary and confidential information,
 including trade secrets, belonging to Gaussian, Inc.
  
 This software is provided under written license and may be
 used, copied, transmitted, or stored only in accord with that
 written license.
  
 The following legend is applicable only to US Government
 contracts under FAR:
  
                    RESTRICTED RIGHTS LEGEND
  
 Use, reproduction and disclosure by the US Government is
 subject to restrictions as set forth in subparagraphs (a)
 and (c) of the Commercial Computer Software - Restricted
 Rights clause in FAR 52.227-19.
  
 Gaussian, Inc.
 340 Quinnipiac St., Bldg. 40, Wallingford CT 06492
  
  
 ---------------------------------------------------------------
 Warning -- This program may not be used in any manner that
 competes with the business of Gaussian, Inc. or will provide
 assistance to any competitor of Gaussian, Inc.  The licensee
 of this program is prohibited from giving any competitor of
 Gaussian, Inc. access to this program.  By using this program,
 the user acknowledges that Gaussian, Inc. is engaged in the
 business of creating and licensing software in the field of
 computational chemistry and represents and warrants to the
 licensee that it is not a competitor of Gaussian, Inc. and that
 it will not use this program in any manner prohibited above.
 ---------------------------------------------------------------
  

 Cite this work as:
 Gaussian 09, Revision D.01,
 M. J. Frisch, G. W. Trucks, H. B. Schlegel, G. E. Scuseria, 
 M. A. Robb, J. R. Cheeseman, G. Scalmani, V. Barone, B. Mennucci, 
 G. A. Petersson, H. Nakatsuji, M. Caricato, X. Li, H. P. Hratchian, 
 A. F. Izmaylov, J. Bloino, G. Zheng, J. L. Sonnenberg, M. Hada, 
 M. Ehara, K. Toyota, R. Fukuda, J. Hasegawa, M. Ishida, T. Nakajima, 
 Y. Honda, O. Kitao, H. Nakai, T. Vreven, J. A. Montgomery, Jr., 
 J. E. Peralta, F. Ogliaro, M. Bearpark, J. J. Heyd, E. Brothers, 
 K. N. Kudin, V. N. Staroverov, T. Keith, R. Kobayashi, J. Normand, 
 K. Raghavachari, A. Rendell, J. C. Burant, S. S. Iyengar, J. Tomasi, 
 M. Cossi, N. Rega, J. M. Millam, M. Klene, J. E. Knox, J. B. Cross, 
 V. Bakken, C. Adamo, J. Jaramillo, R. Gomperts, R. E. Stratmann, 
 O. Yazyev, A. J. Austin, R. Cammi, C. Pomelli, J. W. Ochterski, 
 R. L. Martin, K. Morokuma, V. G. Zakrzewski, G. A. Voth, 
 P. Salvador, J. J. Dannenberg, S. Dapprich, A. D. Daniels, 
 O. Farkas, J. B. Foresman, J. V. Ortiz, J. Cioslowski, 
 and D. J. Fox, Gaussian, Inc., Wallingford CT, 2013.
 
 ******************************************
 Gaussian 09:  EM64L-G09RevD.01 24-Apr-2013
                16-Dec-2013 
 ******************************************
 %Nproc=8
 Will use up to    8 processors via shared memory.
 %mem=436000000
 -----------------------
 #PBE1PBE/6-31G opt freq
 -----------------------
 1/14=-1,18=20,19=15,26=3,38=1/1,3;
 2/9=110,12=2,17=6,18=5,40=1/2;
 3/5=1,6=6,11=2,16=1,25=1,30=1,71=1,74=-13/1,2,3;
 4//1;
 5/5=2,38=5/2;
 6/7=2,8=2,9=2,10=2,28=1/1;
 7//1,2,3,16;
 1/14=-1,18=20,19=15,26=3/3(2);
 2/9=110/2;
 99//99;
 2/9=110/2;
 3/5=1,6=6,11=2,16=1,25=1,30=1,71=1,74=-13/1,2,3;
 4/5=5,16=3,69=1/1;
 5/5=2,38=5/2;
 7//1,2,3,16;
 1/14=-1,18=20,19=15,26=3/3(-5);
 2/9=110/2;
 6/7=2,8=2,9=2,10=2,19=2,28=1/1;
 99/9=1/99;
 Leave Link    1 at Mon Dec 16 15:20:55 2013, MaxMem=   436000000 cpu:         0.5
 (Enter /usr/local/gaussian/g09.d01.em64t.legacy.linda/g09/l101.exe)
 ------------------------------------------------------------------
 1H-tetrazole CH2N4 casno=288948 state=1 config=1 method=54 basis=9
 ------------------------------------------------------------------
 Symbolic Z-matrix:
 Charge =  0 Multiplicity = 1
 X
 X                    1     1. 
 C                    1     1.       2     90. 
 N                    1    rn1      2     90.      3    an1      0
 N                    1    rn2      2     90.      3    an2      0
 N                    1    rn3      2     90.      3    an3      0
 N                    1    rn4      2     90.      3    an4      0
 H                    3    rch      4    ach      5     180.     0
 H                    4    rnh      5    anh      6     180.     0
       Variables:
  rn1                   1.2426                   
  rn2                   1.333                    
  rn3                   1.1146                   
  rn4                   0.9264                   
  rch                   1.0678                   
  rnh                   0.9941                   
  an1                  71.8427                   
  an2                 133.7028                   
  an3                 194.4597                   
  an4                 276.0768                   
  ach                 125.0248                   
  anh                 120.7626                   
 
 NAtoms=      7 NQM=        7 NQMF=       0 NMMI=      0 NMMIF=      0
                NMic=       0 NMicF=      0.
                    Isotopes and Nuclear Properties:
 (Nuclear quadrupole moments (NQMom) in fm**2, nuclear magnetic moments (NMagM)
  in nuclear magnetons)

  Atom         1           2           3           4           5           6           7
 IAtWgt=          12          14          14          14          14           1           1
 AtmWgt=  12.0000000  14.0030740  14.0030740  14.0030740  14.0030740   1.0078250   1.0078250
 NucSpn=           0           2           2           2           2           1           1
 AtZEff=   0.0000000   0.0000000   0.0000000   0.0000000   0.0000000   0.0000000   0.0000000
 NQMom=    0.0000000   2.0440000   2.0440000   2.0440000   2.0440000   0.0000000   0.0000000
 NMagM=    0.0000000   0.4037610   0.4037610   0.4037610   0.4037610   2.7928460   2.7928460
 AtZNuc=   6.0000000   7.0000000   7.0000000   7.0000000   7.0000000   1.0000000   1.0000000
 Leave Link  101 at Mon Dec 16 15:20:55 2013, MaxMem=   436000000 cpu:         2.3
 (Enter /usr/local/gaussian/g09.d01.em64t.legacy.linda/g09/l103.exe)

 GradGradGradGradGradGradGradGradGradGradGradGradGradGradGradGradGradGrad
 Berny optimization.
 Initialization pass.
                           ----------------------------
                           !    Initial Parameters    !
                           ! (Angstroms and Degrees)  !
 --------------------------                            --------------------------
 ! Name  Definition              Value          Derivative Info.                !
 --------------------------------------------------------------------------------
 ! R1    R(1,2)                  1.3303         estimate D2E/DX2                !
 ! R2    R(1,5)                  1.2892         estimate D2E/DX2                !
 ! R3    R(1,6)                  1.0678         estimate D2E/DX2                !
 ! R4    R(2,3)                  1.3261         estimate D2E/DX2                !
 ! R5    R(2,7)                  0.9941         estimate D2E/DX2                !
 ! R6    R(3,4)                  1.252          estimate D2E/DX2                !
 ! R7    R(4,5)                  1.3414         estimate D2E/DX2                !
 ! A1    A(2,1,5)              108.177          estimate D2E/DX2                !
 ! A2    A(2,1,6)              125.0248         estimate D2E/DX2                !
 ! A3    A(5,1,6)              126.7982         estimate D2E/DX2                !
 ! A4    A(1,2,3)              108.008          estimate D2E/DX2                !
 ! A5    A(1,2,7)              131.2294         estimate D2E/DX2                !
 ! A6    A(3,2,7)              120.7626         estimate D2E/DX2                !
 ! A7    A(2,3,4)              106.684          estimate D2E/DX2                !
 ! A8    A(3,4,5)              111.3724         estimate D2E/DX2                !
 ! A9    A(1,5,4)              105.7586         estimate D2E/DX2                !
 ! D1    D(5,1,2,3)              0.0            estimate D2E/DX2                !
 ! D2    D(5,1,2,7)            180.0            estimate D2E/DX2                !
 ! D3    D(6,1,2,3)            180.0            estimate D2E/DX2                !
 ! D4    D(6,1,2,7)              0.0            estimate D2E/DX2                !
 ! D5    D(2,1,5,4)              0.0            estimate D2E/DX2                !
 ! D6    D(6,1,5,4)            180.0            estimate D2E/DX2                !
 ! D7    D(1,2,3,4)              0.0            estimate D2E/DX2                !
 ! D8    D(7,2,3,4)            180.0            estimate D2E/DX2                !
 ! D9    D(2,3,4,5)              0.0            estimate D2E/DX2                !
 ! D10   D(3,4,5,1)              0.0            estimate D2E/DX2                !
 --------------------------------------------------------------------------------
 Trust Radius=3.00D-01 FncErr=1.00D-07 GrdErr=1.00D-06
 Number of steps in this run=     36 maximum allowed number of steps=    100.
 GradGradGradGradGradGradGradGradGradGradGradGradGradGradGradGradGradGrad

 Leave Link  103 at Mon Dec 16 15:20:55 2013, MaxMem=   436000000 cpu:         0.0
 (Enter /usr/local/gaussian/g09.d01.em64t.legacy.linda/g09/l202.exe)
                          Input orientation:                          
 ---------------------------------------------------------------------
 Center     Atomic      Atomic             Coordinates (Angstroms)
 Number     Number       Type             X           Y           Z
 ---------------------------------------------------------------------
      1          6           0        1.000000    0.000000    0.000000
      2          7           0        0.387228   -1.180724    0.000000
      3          7           0       -0.920993   -0.963670    0.000000
      4          7           0       -1.079293    0.278314    0.000000
      5          7           0        0.098070    0.921194    0.000000
      6          1           0        2.058429    0.141157    0.000000
      7          1           0        0.749017   -2.106652    0.000000
 ---------------------------------------------------------------------
                    Distance matrix (angstroms):
                    1          2          3          4          5
     1  C    0.000000
     2  N    1.330263   0.000000
     3  N    2.149157   1.326105   0.000000
     4  N    2.097837   2.068690   1.252032   0.000000
     5  N    1.289216   2.121715   2.142710   1.341447   0.000000
     6  H    1.067800   2.130794   3.177672   3.140719   2.109850
     7  H    2.121551   0.994100   2.023695   3.005127   3.097029
                    6          7
     6  H    0.000000
     7  H    2.601385   0.000000
 Stoichiometry    CH2N4
 Framework group  CS[SG(CH2N4)]
 Deg. of freedom    11
 Full point group                 CS      NOp   2
 Largest Abelian subgroup         CS      NOp   2
 Largest concise Abelian subgroup C1      NOp   1
                         Standard orientation:                         
 ---------------------------------------------------------------------
 Center     Atomic      Atomic             Coordinates (Angstroms)
 Number     Number       Type             X           Y           Z
 ---------------------------------------------------------------------
      1          6           0        1.052733    0.225621    0.000000
      2          7           0        0.000000    1.038857    0.000000
      3          7           0       -1.095416    0.291448    0.000000
      4          7           0       -0.716382   -0.901832    0.000000
      5          7           0        0.622191   -0.989579    0.000000
      6          1           0        2.072287    0.542964    0.000000
      7          1           0       -0.061439    2.031056    0.000000
 ---------------------------------------------------------------------
 Rotational constants (GHZ):     10.9201517     10.7345054      5.4132664
 Leave Link  202 at Mon Dec 16 15:20:55 2013, MaxMem=   436000000 cpu:         0.0
 (Enter /usr/local/gaussian/g09.d01.em64t.legacy.linda/g09/l301.exe)
 Standard basis: 6-31G (6D, 7F)
 Ernie: Thresh=  0.10000D-02 Tol=  0.10000D-05 Strict=F.
 There are    39 symmetry adapted cartesian basis functions of A'  symmetry.
 There are    10 symmetry adapted cartesian basis functions of A"  symmetry.
 There are    39 symmetry adapted basis functions of A'  symmetry.
 There are    10 symmetry adapted basis functions of A"  symmetry.
    49 basis functions,   118 primitive gaussians,    49 cartesian basis functions
    18 alpha electrons       18 beta electrons
       nuclear repulsion energy       169.8308489506 Hartrees.
 IExCor= 1009 DFT=T Ex+Corr=PBE1PBE ExCW=0 ScaHFX=  0.250000
 ScaDFX=  0.750000  0.750000  1.000000  1.000000 ScalE2=  1.000000  1.000000
 IRadAn=      0 IRanWt=     -1 IRanGd=            0 ICorTp=0 IEmpDi=  4
 NAtoms=    7 NActive=    7 NUniq=    7 SFac= 1.00D+00 NAtFMM=   60 NAOKFM=F Big=F
 Integral buffers will be    131072 words long.
 Raffenetti 2 integral format.
 Two-electron integral symmetry is turned on.
 Leave Link  301 at Mon Dec 16 15:20:55 2013, MaxMem=   436000000 cpu:         0.5
 (Enter /usr/local/gaussian/g09.d01.em64t.legacy.linda/g09/l302.exe)
 NPDir=0 NMtPBC=     1 NCelOv=     1 NCel=       1 NClECP=     1 NCelD=      1
         NCelK=      1 NCelE2=     1 NClLst=     1 CellRange=     0.0.
 One-electron integrals computed using PRISM.
 NBasis=    49 RedAO= T EigKep=  6.07D-03  NBF=    39    10
 NBsUse=    49 1.00D-06 EigRej= -1.00D+00 NBFU=    39    10
 Precomputing XC quadrature grid using
 IXCGrd= 4 IRadAn=           0 IRanWt=          -1 IRanGd=           0 AccXCQ= 0.00D+00.
 Generated NRdTot=       0 NPtTot=           0 NUsed=           0 NTot=          32
 NSgBfM=    49    49    49    49    49 MxSgAt=     7 MxSgA2=     7.
 Leave Link  302 at Mon Dec 16 15:20:56 2013, MaxMem=   436000000 cpu:         1.4
 (Enter /usr/local/gaussian/g09.d01.em64t.legacy.linda/g09/l303.exe)
 DipDrv:  MaxL=1.
 Leave Link  303 at Mon Dec 16 15:20:56 2013, MaxMem=   436000000 cpu:         0.2
 (Enter /usr/local/gaussian/g09.d01.em64t.legacy.linda/g09/l401.exe)
 ExpMin= 1.61D-01 ExpMax= 4.17D+03 ExpMxC= 6.27D+02 IAcc=1 IRadAn=         1 AccDes= 0.00D+00
 Harris functional with IExCor= 1009 and IRadAn=       1 diagonalized for initial guess.
 HarFok:  IExCor= 1009 AccDes= 0.00D+00 IRadAn=         1 IDoV= 1 UseB2=F ITyADJ=14
 ICtDFT=  3500011 ScaDFX=  1.000000  1.000000  1.000000  1.000000
 FoFCou: FMM=F IPFlag=           0 FMFlag=      100000 FMFlg1=           0
         NFxFlg=           0 DoJE=T BraDBF=F KetDBF=T FulRan=T
         wScrn=  0.000000 ICntrl=     500 IOpCl=  0 I1Cent=   200000004 NGrid=           0
         NMat0=    1 NMatS0=      1 NMatT0=    0 NMatD0=    1 NMtDS0=    0 NMtDT0=    0
 Petite list used in FoFCou.
 Harris En= -257.872650395347    
 JPrj=0 DoOrth=F DoCkMO=F.
 Initial guess orbital symmetries:
       Occupied  (A') (A') (A') (A') (A') (A') (A') (A') (A') (A')
                 (A') (A') (A") (A') (A") (A') (A") (A')
       Virtual   (A") (A") (A') (A') (A') (A') (A') (A') (A') (A")
                 (A') (A') (A') (A') (A") (A') (A') (A") (A') (A")
                 (A") (A') (A') (A') (A') (A') (A') (A') (A') (A')
                 (A')
 The electronic state of the initial guess is 1-A'.
 Leave Link  401 at Mon Dec 16 15:20:56 2013, MaxMem=   436000000 cpu:         1.2
 (Enter /usr/local/gaussian/g09.d01.em64t.legacy.linda/g09/l502.exe)
 Closed shell SCF:
 Using DIIS extrapolation, IDIIS=  1040.
 Integral symmetry usage will be decided dynamically.
 Keep R1 ints in memory in symmetry-blocked form, NReq=1649580.
 IVT=       26544 IEndB=       26544 NGot=   436000000 MDV=   435545095
 LenX=   435545095 LenY=   435542253
 Requested convergence on RMS density matrix=1.00D-08 within 128 cycles.
 Requested convergence on MAX density matrix=1.00D-06.
 Requested convergence on             energy=1.00D-06.
 No special actions if energy rises.
 FoFCou: FMM=F IPFlag=           0 FMFlag=           0 FMFlg1=           0
         NFxFlg=           0 DoJE=F BraDBF=F KetDBF=F FulRan=T
         wScrn=  0.000000 ICntrl=     600 IOpCl=  0 I1Cent=           0 NGrid=           0
         NMat0=    1 NMatS0=   1225 NMatT0=    0 NMatD0=    1 NMtDS0=    0 NMtDT0=    0
 Petite list used in FoFCou.
 Integral accuracy reduced to 1.0D-05 until final iterations.

 Cycle   1  Pass 0  IDiag  1:
 E= -257.798283886209    
 DIIS: error= 2.68D-02 at cycle   1 NSaved=   1.
 NSaved= 1 IEnMin= 1 EnMin= -257.798283886209     IErMin= 1 ErrMin= 2.68D-02
 ErrMax= 2.68D-02  0.00D+00 EMaxC= 1.00D-01 BMatC= 3.12D-02 BMatP= 3.12D-02
 IDIUse=3 WtCom= 7.32D-01 WtEn= 2.68D-01
 Coeff-Com:  0.100D+01
 Coeff-En:   0.100D+01
 Coeff:      0.100D+01
 Gap=     0.252 Goal=   None    Shift=    0.000
 GapD=    0.252 DampG=1.000 DampE=0.500 DampFc=0.5000 IDamp=-1.
 Damping current iteration by 5.00D-01
 RMSDP=1.51D-02 MaxDP=1.91D-01              OVMax= 1.37D-01

 Cycle   2  Pass 0  IDiag  1:
 E= -257.809387168391     Delta-E=       -0.011103282181 Rises=F Damp=T
 DIIS: error= 1.14D-02 at cycle   2 NSaved=   2.
 NSaved= 2 IEnMin= 2 EnMin= -257.809387168391     IErMin= 2 ErrMin= 1.14D-02
 ErrMax= 1.14D-02  0.00D+00 EMaxC= 1.00D-01 BMatC= 7.92D-03 BMatP= 3.12D-02
 IDIUse=3 WtCom= 8.86D-01 WtEn= 1.14D-01
 Coeff-Com:  0.217D+00 0.783D+00
 Coeff-En:   0.278D+00 0.722D+00
 Coeff:      0.224D+00 0.776D+00
 Gap=     0.291 Goal=   None    Shift=    0.000
 RMSDP=4.51D-03 MaxDP=4.24D-02 DE=-1.11D-02 OVMax= 9.64D-02

 Cycle   3  Pass 0  IDiag  1:
 E= -257.832115864226     Delta-E=       -0.022728695835 Rises=F Damp=F
 DIIS: error= 9.79D-03 at cycle   3 NSaved=   3.
 NSaved= 3 IEnMin= 3 EnMin= -257.832115864226     IErMin= 3 ErrMin= 9.79D-03
 ErrMax= 9.79D-03  0.00D+00 EMaxC= 1.00D-01 BMatC= 3.05D-03 BMatP= 7.92D-03
 IDIUse=3 WtCom= 9.02D-01 WtEn= 9.79D-02
 Coeff-Com: -0.440D-01 0.376D+00 0.668D+00
 Coeff-En:   0.000D+00 0.000D+00 0.100D+01
 Coeff:     -0.397D-01 0.339D+00 0.701D+00
 Gap=     0.273 Goal=   None    Shift=    0.000
 RMSDP=1.37D-03 MaxDP=1.50D-02 DE=-2.27D-02 OVMax= 2.30D-02

 Cycle   4  Pass 0  IDiag  1:
 E= -257.834202279749     Delta-E=       -0.002086415524 Rises=F Damp=F
 DIIS: error= 4.37D-03 at cycle   4 NSaved=   4.
 NSaved= 4 IEnMin= 4 EnMin= -257.834202279749     IErMin= 4 ErrMin= 4.37D-03
 ErrMax= 4.37D-03  0.00D+00 EMaxC= 1.00D-01 BMatC= 6.68D-04 BMatP= 3.05D-03
 IDIUse=3 WtCom= 9.56D-01 WtEn= 4.37D-02
 Coeff-Com: -0.271D-01 0.117D+00 0.389D+00 0.522D+00
 Coeff-En:   0.000D+00 0.000D+00 0.191D+00 0.809D+00
 Coeff:     -0.260D-01 0.112D+00 0.380D+00 0.534D+00
 Gap=     0.279 Goal=   None    Shift=    0.000
 RMSDP=5.97D-04 MaxDP=7.03D-03 DE=-2.09D-03 OVMax= 9.37D-03

 Cycle   5  Pass 0  IDiag  1:
 E= -257.834737252482     Delta-E=       -0.000534972733 Rises=F Damp=F
 DIIS: error= 1.06D-03 at cycle   5 NSaved=   5.
 NSaved= 5 IEnMin= 5 EnMin= -257.834737252482     IErMin= 5 ErrMin= 1.06D-03
 ErrMax= 1.06D-03  0.00D+00 EMaxC= 1.00D-01 BMatC= 6.05D-05 BMatP= 6.68D-04
 IDIUse=3 WtCom= 9.89D-01 WtEn= 1.06D-02
 Coeff-Com: -0.103D-01 0.326D-01 0.157D+00 0.318D+00 0.503D+00
 Coeff-En:   0.000D+00 0.000D+00 0.000D+00 0.209D-01 0.979D+00
 Coeff:     -0.102D-01 0.322D-01 0.155D+00 0.314D+00 0.508D+00
 Gap=     0.278 Goal=   None    Shift=    0.000
 RMSDP=1.60D-04 MaxDP=2.14D-03 DE=-5.35D-04 OVMax= 2.62D-03

 Cycle   6  Pass 0  IDiag  1:
 E= -257.834789488503     Delta-E=       -0.000052236021 Rises=F Damp=F
 DIIS: error= 9.61D-05 at cycle   6 NSaved=   6.
 NSaved= 6 IEnMin= 6 EnMin= -257.834789488503     IErMin= 6 ErrMin= 9.61D-05
 ErrMax= 9.61D-05  0.00D+00 EMaxC= 1.00D-01 BMatC= 5.72D-07 BMatP= 6.05D-05
 IDIUse=1 WtCom= 1.00D+00 WtEn= 0.00D+00
 Coeff-Com: -0.107D-02 0.127D-02 0.169D-01 0.558D-01 0.137D+00 0.790D+00
 Coeff:     -0.107D-02 0.127D-02 0.169D-01 0.558D-01 0.137D+00 0.790D+00
 Gap=     0.278 Goal=   None    Shift=    0.000
 RMSDP=1.96D-05 MaxDP=1.77D-04 DE=-5.22D-05 OVMax= 2.38D-04

 Cycle   7  Pass 0  IDiag  1:
 E= -257.834789850158     Delta-E=       -0.000000361654 Rises=F Damp=F
 DIIS: error= 6.08D-05 at cycle   7 NSaved=   7.
 NSaved= 7 IEnMin= 7 EnMin= -257.834789850158     IErMin= 7 ErrMin= 6.08D-05
 ErrMax= 6.08D-05  0.00D+00 EMaxC= 1.00D-01 BMatC= 2.10D-07 BMatP= 5.72D-07
 IDIUse=1 WtCom= 1.00D+00 WtEn= 0.00D+00
 Coeff-Com:  0.164D-03-0.121D-02 0.344D-03 0.132D-01 0.482D-01 0.454D+00
 Coeff-Com:  0.486D+00
 Coeff:      0.164D-03-0.121D-02 0.344D-03 0.132D-01 0.482D-01 0.454D+00
 Coeff:      0.486D+00
 Gap=     0.278 Goal=   None    Shift=    0.000
 RMSDP=8.27D-06 MaxDP=1.29D-04 DE=-3.62D-07 OVMax= 1.25D-04

 Initial convergence to 1.0D-05 achieved.  Increase integral accuracy.
 Cycle   8  Pass 1  IDiag  1:
 E= -257.834803760480     Delta-E=       -0.000013910322 Rises=F Damp=F
 DIIS: error= 8.90D-06 at cycle   1 NSaved=   1.
 NSaved= 1 IEnMin= 1 EnMin= -257.834803760480     IErMin= 1 ErrMin= 8.90D-06
 ErrMax= 8.90D-06  0.00D+00 EMaxC= 1.00D-01 BMatC= 7.02D-09 BMatP= 7.02D-09
 IDIUse=1 WtCom= 1.00D+00 WtEn= 0.00D+00
 Coeff-Com:  0.100D+01
 Coeff:      0.100D+01
 Gap=     0.278 Goal=   None    Shift=    0.000
 RMSDP=8.27D-06 MaxDP=1.29D-04 DE=-1.39D-05 OVMax= 5.65D-05

 Cycle   9  Pass 1  IDiag  1:
 E= -257.834803755720     Delta-E=        0.000000004760 Rises=F Damp=F
 DIIS: error= 1.96D-05 at cycle   2 NSaved=   2.
 NSaved= 2 IEnMin= 1 EnMin= -257.834803760480     IErMin= 1 ErrMin= 8.90D-06
 ErrMax= 1.96D-05  0.00D+00 EMaxC= 1.00D-01 BMatC= 1.46D-08 BMatP= 7.02D-09
 IDIUse=1 WtCom= 1.00D+00 WtEn= 0.00D+00
 Coeff-Com:  0.602D+00 0.398D+00
 Coeff:      0.602D+00 0.398D+00
 Gap=     0.278 Goal=   None    Shift=    0.000
 RMSDP=2.82D-06 MaxDP=3.11D-05 DE= 4.76D-09 OVMax= 4.69D-05

 Cycle  10  Pass 1  IDiag  1:
 E= -257.834803768662     Delta-E=       -0.000000012942 Rises=F Damp=F
 DIIS: error= 3.13D-06 at cycle   3 NSaved=   3.
 NSaved= 3 IEnMin= 3 EnMin= -257.834803768662     IErMin= 3 ErrMin= 3.13D-06
 ErrMax= 3.13D-06  0.00D+00 EMaxC= 1.00D-01 BMatC= 4.37D-10 BMatP= 7.02D-09
 IDIUse=1 WtCom= 1.00D+00 WtEn= 0.00D+00
 Coeff-Com:  0.445D-01 0.147D+00 0.809D+00
 Coeff:      0.445D-01 0.147D+00 0.809D+00
 Gap=     0.278 Goal=   None    Shift=    0.000
 RMSDP=7.10D-07 MaxDP=6.97D-06 DE=-1.29D-08 OVMax= 1.20D-05

 Cycle  11  Pass 1  IDiag  1:
 E= -257.834803768866     Delta-E=       -0.000000000205 Rises=F Damp=F
 DIIS: error= 3.15D-06 at cycle   4 NSaved=   4.
 NSaved= 4 IEnMin= 4 EnMin= -257.834803768866     IErMin= 3 ErrMin= 3.13D-06
 ErrMax= 3.15D-06  0.00D+00 EMaxC= 1.00D-01 BMatC= 2.46D-10 BMatP= 4.37D-10
 IDIUse=1 WtCom= 1.00D+00 WtEn= 0.00D+00
 Coeff-Com: -0.269D-01 0.659D-01 0.552D+00 0.409D+00
 Coeff:     -0.269D-01 0.659D-01 0.552D+00 0.409D+00
 Gap=     0.278 Goal=   None    Shift=    0.000
 RMSDP=2.97D-07 MaxDP=3.72D-06 DE=-2.05D-10 OVMax= 5.22D-06

 Cycle  12  Pass 1  IDiag  1:
 E= -257.834803769075     Delta-E=       -0.000000000209 Rises=F Damp=F
 DIIS: error= 2.50D-07 at cycle   5 NSaved=   5.
 NSaved= 5 IEnMin= 5 EnMin= -257.834803769075     IErMin= 5 ErrMin= 2.50D-07
 ErrMax= 2.50D-07  0.00D+00 EMaxC= 1.00D-01 BMatC= 2.61D-12 BMatP= 2.46D-10
 IDIUse=1 WtCom= 1.00D+00 WtEn= 0.00D+00
 Coeff-Com: -0.136D-01 0.238D-01 0.191D+00 0.158D+00 0.641D+00
 Coeff:     -0.136D-01 0.238D-01 0.191D+00 0.158D+00 0.641D+00
 Gap=     0.278 Goal=   None    Shift=    0.000
 RMSDP=4.58D-08 MaxDP=5.26D-07 DE=-2.09D-10 OVMax= 8.36D-07

 Cycle  13  Pass 1  IDiag  1:
 E= -257.834803769076     Delta-E=       -0.000000000001 Rises=F Damp=F
 DIIS: error= 1.19D-07 at cycle   6 NSaved=   6.
 NSaved= 6 IEnMin= 6 EnMin= -257.834803769076     IErMin= 6 ErrMin= 1.19D-07
 ErrMax= 1.19D-07  0.00D+00 EMaxC= 1.00D-01 BMatC= 4.79D-13 BMatP= 2.61D-12
 IDIUse=1 WtCom= 1.00D+00 WtEn= 0.00D+00
 Coeff-Com: -0.317D-02 0.585D-02 0.312D-01 0.238D-01 0.310D+00 0.632D+00
 Coeff:     -0.317D-02 0.585D-02 0.312D-01 0.238D-01 0.310D+00 0.632D+00
 Gap=     0.278 Goal=   None    Shift=    0.000
 RMSDP=2.27D-08 MaxDP=1.98D-07 DE=-1.02D-12 OVMax= 3.14D-07

 Cycle  14  Pass 1  IDiag  1:
 E= -257.834803769078     Delta-E=       -0.000000000002 Rises=F Damp=F
 DIIS: error= 2.76D-08 at cycle   7 NSaved=   7.
 NSaved= 7 IEnMin= 7 EnMin= -257.834803769078     IErMin= 7 ErrMin= 2.76D-08
 ErrMax= 2.76D-08  0.00D+00 EMaxC= 1.00D-01 BMatC= 5.58D-14 BMatP= 4.79D-13
 IDIUse=1 WtCom= 1.00D+00 WtEn= 0.00D+00
 Coeff-Com:  0.133D-03-0.210D-03-0.113D-01-0.130D-01 0.680D-01 0.322D+00
 Coeff-Com:  0.634D+00
 Coeff:      0.133D-03-0.210D-03-0.113D-01-0.130D-01 0.680D-01 0.322D+00
 Coeff:      0.634D+00
 Gap=     0.278 Goal=   None    Shift=    0.000
 RMSDP=5.62D-09 MaxDP=4.11D-08 DE=-1.82D-12 OVMax= 7.29D-08

 SCF Done:  E(RPBE1PBE) =  -257.834803769     A.U. after   14 cycles
            NFock= 14  Conv=0.56D-08     -V/T= 2.0017
 KE= 2.574050027977D+02 PE=-9.417034193993D+02 EE= 2.566327638820D+02
 Leave Link  502 at Mon Dec 16 15:20:56 2013, MaxMem=   436000000 cpu:         4.3
 (Enter /usr/local/gaussian/g09.d01.em64t.legacy.linda/g09/l601.exe)
 Copying SCF densities to generalized density rwf, IOpCl= 0 IROHF=0.

 **********************************************************************

            Population analysis using the SCF density.

 **********************************************************************

 Orbital symmetries:
       Occupied  (A') (A') (A') (A') (A') (A') (A') (A') (A') (A')
                 (A') (A") (A') (A') (A") (A") (A') (A')
       Virtual   (A") (A") (A') (A') (A') (A') (A') (A') (A') (A")
                 (A') (A') (A') (A") (A') (A') (A") (A') (A') (A")
                 (A") (A') (A') (A') (A') (A') (A') (A') (A') (A')
                 (A')
 The electronic state is 1-A'.
 Alpha  occ. eigenvalues --  -14.52085 -14.48902 -14.46715 -14.44131 -10.33611
 Alpha  occ. eigenvalues --   -1.25787  -1.02070  -0.97448  -0.73078  -0.71955
 Alpha  occ. eigenvalues --   -0.64513  -0.54964  -0.53775  -0.39961  -0.36684
 Alpha  occ. eigenvalues --   -0.34659  -0.31727  -0.29735
 Alpha virt. eigenvalues --   -0.01970   0.02208   0.06610   0.11825   0.19570
 Alpha virt. eigenvalues --    0.21400   0.29908   0.32931   0.44284   0.52797
 Alpha virt. eigenvalues --    0.56350   0.63938   0.67175   0.68125   0.69625
 Alpha virt. eigenvalues --    0.72034   0.72836   0.74817   0.80549   0.80569
 Alpha virt. eigenvalues --    0.84934   0.85794   0.89299   0.91827   1.03960
 Alpha virt. eigenvalues --    1.08453   1.18073   1.23962   1.38097   1.55275
 Alpha virt. eigenvalues --    1.61353
          Condensed to atoms (all electrons):
               1          2          3          4          5          6
     1  C    5.156358   0.121208  -0.134309  -0.135712   0.328079   0.365632
     2  N    0.121208   7.403142   0.022646  -0.104387  -0.088934  -0.045985
     3  N   -0.134309   0.022646   7.104815   0.107803  -0.117984   0.002355
     4  N   -0.135712  -0.104387   0.107803   7.004917   0.210114   0.006643
     5  N    0.328079  -0.088934  -0.117984   0.210114   6.993661  -0.024135
     6  H    0.365632  -0.045985   0.002355   0.006643  -0.024135   0.438723
     7  H   -0.017174   0.292276  -0.021643   0.009015   0.005597   0.002917
               7
     1  C   -0.017174
     2  N    0.292276
     3  N   -0.021643
     4  N    0.009015
     5  N    0.005597
     6  H    0.002917
     7  H    0.330341
 Mulliken charges:
               1
     1  C    0.315917
     2  N   -0.599964
     3  N    0.036316
     4  N   -0.098393
     5  N   -0.306397
     6  H    0.253850
     7  H    0.398671
 Sum of Mulliken charges =   0.00000
 Mulliken charges with hydrogens summed into heavy atoms:
               1
     1  C    0.569767
     2  N   -0.201293
     3  N    0.036316
     4  N   -0.098393
     5  N   -0.306397
 Electronic spatial extent (au):  <R**2>=            245.8100
 Charge=              0.0000 electrons
 Dipole moment (field-independent basis, Debye):
    X=              2.7574    Y=              5.1841    Z=              0.0000  Tot=              5.8719
 Quadrupole moment (field-independent basis, Debye-Ang):
   XX=            -29.7983   YY=            -27.2984   ZZ=            -28.2169
   XY=              1.8709   XZ=              0.0000   YZ=              0.0000
 Traceless Quadrupole moment (field-independent basis, Debye-Ang):
   XX=             -1.3605   YY=              1.1395   ZZ=              0.2210
   XY=              1.8709   XZ=              0.0000   YZ=              0.0000
 Octapole moment (field-independent basis, Debye-Ang**2):
  XXX=             13.0719  YYY=             23.8704  ZZZ=              0.0000  XYY=             -0.4621
  XXY=              5.0256  XXZ=              0.0000  XZZ=             -0.6174  YZZ=              0.4798
  YYZ=              0.0000  XYZ=              0.0000
 Hexadecapole moment (field-independent basis, Debye-Ang**3):
 XXXX=           -138.3990 YYYY=           -116.7538 ZZZZ=            -24.5848 XXXY=              6.7251
 XXXZ=              0.0000 YYYX=             -0.4813 YYYZ=              0.0000 ZZZX=              0.0000
 ZZZY=              0.0000 XXYY=            -52.6091 XXZZ=            -29.3667 YYZZ=            -27.8118
 XXYZ=              0.0000 YYXZ=              0.0000 ZZXY=             -0.1275
 N-N= 1.698308489506D+02 E-N=-9.417034204867D+02  KE= 2.574050027977D+02
 Symmetry A'   KE= 2.479205942402D+02
 Symmetry A"   KE= 9.484408557524D+00
 No NMR shielding tensors so no spin-rotation constants.
 Leave Link  601 at Mon Dec 16 15:20:57 2013, MaxMem=   436000000 cpu:         1.3
 (Enter /usr/local/gaussian/g09.d01.em64t.legacy.linda/g09/l701.exe)
 Compute integral first derivatives.
 ... and contract with generalized density number  0.
 Leave Link  701 at Mon Dec 16 15:20:57 2013, MaxMem=   436000000 cpu:         1.5
 (Enter /usr/local/gaussian/g09.d01.em64t.legacy.linda/g09/l702.exe)
 L702 exits ... SP integral derivatives will be done elsewhere.
 Leave Link  702 at Mon Dec 16 15:20:57 2013, MaxMem=   436000000 cpu:         0.4
 (Enter /usr/local/gaussian/g09.d01.em64t.legacy.linda/g09/l703.exe)
 Compute integral first derivatives, UseDBF=F ICtDFT=           0.
 Integral derivatives from FoFJK, PRISM(SPDF).
 Calling FoFJK, ICntrl=      2127 FMM=F ISym2X=1 I1Cent= 0 IOpClX= 0 NMat=1 NMatS=1 NMatT=0.
 FoFJK:  IHMeth= 1 ICntrl=    2127 DoSepK=F KAlg= 0 I1Cent=   0 FoldK=F
 IRaf=         0 NMat=   1 IRICut=       1 DoRegI=T DoRafI=F ISym2E= 1.
 FoFCou: FMM=F IPFlag=           0 FMFlag=      100000 FMFlg1=         800
         NFxFlg=           0 DoJE=F BraDBF=F KetDBF=F FulRan=T
         wScrn=  0.000000 ICntrl=    2127 IOpCl=  0 I1Cent=           0 NGrid=           0
         NMat0=    1 NMatS0=      1 NMatT0=    0 NMatD0=    1 NMtDS0=    0 NMtDT0=    0
 Petite list used in FoFCou.
 Leave Link  703 at Mon Dec 16 15:20:57 2013, MaxMem=   436000000 cpu:         2.2
 (Enter /usr/local/gaussian/g09.d01.em64t.legacy.linda/g09/l716.exe)
 Dipole        = 1.08485940D+00 2.03959355D+00 2.05803516D-32
 ***** Axes restored to original set *****
 -------------------------------------------------------------------
 Center     Atomic                   Forces (Hartrees/Bohr)
 Number     Number              X              Y              Z
 -------------------------------------------------------------------
      1        6           0.053551087   -0.008529190    0.000000000
      2        7           0.025118027   -0.024481561    0.000000000
      3        7          -0.036980080   -0.066053640    0.000000000
      4        7          -0.054257596    0.052995591    0.000000000
      5        7           0.004526154    0.052927335    0.000000000
      6        1           0.004174479    0.001423179    0.000000000
      7        1           0.003867930   -0.008281715    0.000000000
 -------------------------------------------------------------------
 Cartesian Forces:  Max     0.066053640 RMS     0.029743783
 Leave Link  716 at Mon Dec 16 15:20:57 2013, MaxMem=   436000000 cpu:         0.2
 (Enter /usr/local/gaussian/g09.d01.em64t.legacy.linda/g09/l103.exe)

 GradGradGradGradGradGradGradGradGradGradGradGradGradGradGradGradGradGrad
 Berny optimization.
 FormGI is forming the generalized inverse of G from B-inverse, IUseBI=4.
 Internal  Forces:  Max     0.070381416 RMS     0.022920026
 Search for a local minimum.
 Step number   1 out of a maximum of   36
 All quantities printed in internal units (Hartrees-Bohrs-Radians)
 RMS Force = .22920D-01 SwitMx=.10000D-02 MixMth= 1
 Mixed Optimization -- RFO/linear search
 Second derivative matrix not updated -- first step.
 ITU=  0
     Eigenvalues ---    0.02505   0.02639   0.02674   0.02834   0.16000
     Eigenvalues ---    0.16000   0.22605   0.24688   0.37510   0.48741
     Eigenvalues ---    0.50870   0.56601   0.58498   0.66939   0.78934
 RFO step:  Lambda=-1.97083082D-02 EMin= 2.50488176D-02
 Linear search not attempted -- first point.
 Iteration  1 RMS(Cart)=  0.03403587 RMS(Int)=  0.00021548
 Iteration  2 RMS(Cart)=  0.00018773 RMS(Int)=  0.00008021
 Iteration  3 RMS(Cart)=  0.00000003 RMS(Int)=  0.00008021
 ITry= 1 IFail=0 DXMaxC= 9.02D-02 DCOld= 1.00D+10 DXMaxT= 3.00D-01 DXLimC= 3.00D+00 Rises=F
 ClnCor:  largest displacement from symmetrization is 7.54D-12 for atom     1.
 Variable       Old X    -DE/DX   Delta X   Delta X   Delta X     New X
                                 (Linear)    (Quad)   (Total)
    R1        2.51383   0.03511   0.00000   0.05356   0.05345   2.56728
    R2        2.43626   0.05268   0.00000   0.07116   0.07110   2.50736
    R3        2.01785   0.00433   0.00000   0.01096   0.01096   2.02881
    R4        2.50598   0.04855   0.00000   0.07763   0.07762   2.58359
    R5        1.87858   0.00912   0.00000   0.01799   0.01799   1.89656
    R6        2.36600   0.07038   0.00000   0.08590   0.08601   2.45201
    R7        2.53497   0.04527   0.00000   0.07946   0.07955   2.61451
    A1        1.88804   0.00047   0.00000  -0.01225  -0.01242   1.87562
    A2        2.18209   0.00062   0.00000   0.01090   0.01099   2.19309
    A3        2.21305  -0.00110   0.00000   0.00134   0.00143   2.21448
    A4        1.88509   0.00614   0.00000   0.01566   0.01553   1.90063
    A5        2.29039  -0.00362   0.00000  -0.01087  -0.01081   2.27958
    A6        2.10770  -0.00252   0.00000  -0.00479  -0.00473   2.10298
    A7        1.86199  -0.00284   0.00000  -0.00248  -0.00238   1.85961
    A8        1.94382  -0.00944   0.00000  -0.02029  -0.02007   1.92374
    A9        1.84584   0.00567   0.00000   0.01936   0.01934   1.86518
    D1        0.00000   0.00000   0.00000   0.00000   0.00000   0.00000
    D2        3.14159   0.00000   0.00000   0.00000   0.00000   3.14159
    D3        3.14159   0.00000   0.00000   0.00000   0.00000   3.14159
    D4        0.00000   0.00000   0.00000   0.00000   0.00000   0.00000
    D5        0.00000   0.00000   0.00000   0.00000   0.00000   0.00000
    D6        3.14159   0.00000   0.00000   0.00000   0.00000   3.14159
    D7        0.00000   0.00000   0.00000   0.00000   0.00000   0.00000
    D8        3.14159   0.00000   0.00000   0.00000   0.00000   3.14159
    D9        0.00000   0.00000   0.00000   0.00000   0.00000   0.00000
   D10        0.00000   0.00000   0.00000   0.00000   0.00000   0.00000
         Item               Value     Threshold  Converged?
 Maximum Force            0.070381     0.000450     NO 
 RMS     Force            0.022920     0.000300     NO 
 Maximum Displacement     0.090237     0.001800     NO 
 RMS     Displacement     0.034044     0.001200     NO 
 Predicted change in Energy=-1.014210D-02
 Lowest energy point so far.  Saving SCF results.
 GradGradGradGradGradGradGradGradGradGradGradGradGradGradGradGradGradGrad

 Leave Link  103 at Mon Dec 16 15:20:57 2013, MaxMem=   436000000 cpu:         0.1
 (Enter /usr/local/gaussian/g09.d01.em64t.legacy.linda/g09/l202.exe)
                          Input orientation:                          
 ---------------------------------------------------------------------
 Center     Atomic      Atomic             Coordinates (Angstroms)
 Number     Number       Type             X           Y           Z
 ---------------------------------------------------------------------
      1          6           0        1.029471    0.003457    0.000000
      2          7           0        0.394102   -1.197358    0.000000
      3          7           0       -0.956296   -0.983813    0.000000
      4          7           0       -1.127045    0.302449    0.000000
      5          7           0        0.096989    0.947372    0.000000
      6          1           0        2.093212    0.148617    0.000000
      7          1           0        0.762023   -2.131104    0.000000
 ---------------------------------------------------------------------
                    Distance matrix (angstroms):
                    1          2          3          4          5
     1  C    0.000000
     2  N    1.358547   0.000000
     3  N    2.217650   1.367179   0.000000
     4  N    2.177144   2.136191   1.297546   0.000000
     5  N    1.326838   2.165212   2.199746   1.383540   0.000000
     6  H    1.073600   2.167631   3.252983   3.223930   2.150097
     7  H    2.151251   1.003617   2.066131   3.080708   3.149490
                    6          7
     6  H    0.000000
     7  H    2.639923   0.000000
 Stoichiometry    CH2N4
 Framework group  CS[SG(CH2N4)]
 Deg. of freedom    11
 Full point group                 CS      NOp   2
 RotChk:  IX=0 Diff= 8.05D-03
 Largest Abelian subgroup         CS      NOp   2
 Largest concise Abelian subgroup C1      NOp   1
                         Standard orientation:                         
 ---------------------------------------------------------------------
 Center     Atomic      Atomic             Coordinates (Angstroms)
 Number     Number       Type             X           Y           Z
 ---------------------------------------------------------------------
      1          6           0        1.086349    0.247255    0.000000
      2          7           0        0.000000    1.063035    0.000000
      3          7           0       -1.130796    0.294609    0.000000
      4          7           0       -0.737376   -0.941856    0.000000
      5          7           0        0.644770   -1.003947    0.000000
      6          1           0        2.110590    0.569040    0.000000
      7          1           0       -0.064871    2.064553    0.000000
 ---------------------------------------------------------------------
 Rotational constants (GHZ):     10.3578860     10.1117961      5.1166809
 Leave Link  202 at Mon Dec 16 15:20:57 2013, MaxMem=   436000000 cpu:         0.0
 (Enter /usr/local/gaussian/g09.d01.em64t.legacy.linda/g09/l301.exe)
 Standard basis: 6-31G (6D, 7F)
 Ernie: Thresh=  0.10000D-02 Tol=  0.10000D-05 Strict=F.
 There are    39 symmetry adapted cartesian basis functions of A'  symmetry.
 There are    10 symmetry adapted cartesian basis functions of A"  symmetry.
 There are    39 symmetry adapted basis functions of A'  symmetry.
 There are    10 symmetry adapted basis functions of A"  symmetry.
    49 basis functions,   118 primitive gaussians,    49 cartesian basis functions
    18 alpha electrons       18 beta electrons
       nuclear repulsion energy       165.1489200263 Hartrees.
 IExCor= 1009 DFT=T Ex+Corr=PBE1PBE ExCW=0 ScaHFX=  0.250000
 ScaDFX=  0.750000  0.750000  1.000000  1.000000 ScalE2=  1.000000  1.000000
 IRadAn=      0 IRanWt=     -1 IRanGd=            0 ICorTp=0 IEmpDi=  4
 NAtoms=    7 NActive=    7 NUniq=    7 SFac= 1.00D+00 NAtFMM=   60 NAOKFM=F Big=F
 Integral buffers will be    131072 words long.
 Raffenetti 2 integral format.
 Two-electron integral symmetry is turned on.
 Leave Link  301 at Mon Dec 16 15:20:57 2013, MaxMem=   436000000 cpu:         0.7
 (Enter /usr/local/gaussian/g09.d01.em64t.legacy.linda/g09/l302.exe)
 NPDir=0 NMtPBC=     1 NCelOv=     1 NCel=       1 NClECP=     1 NCelD=      1
         NCelK=      1 NCelE2=     1 NClLst=     1 CellRange=     0.0.
 One-electron integrals computed using PRISM.
 NBasis=    49 RedAO= T EigKep=  7.03D-03  NBF=    39    10
 NBsUse=    49 1.00D-06 EigRej= -1.00D+00 NBFU=    39    10
 Precomputing XC quadrature grid using
 IXCGrd= 4 IRadAn=           0 IRanWt=          -1 IRanGd=           0 AccXCQ= 0.00D+00.
 Generated NRdTot=       0 NPtTot=           0 NUsed=           0 NTot=          32
 NSgBfM=    49    49    49    49    49 MxSgAt=     7 MxSgA2=     7.
 Leave Link  302 at Mon Dec 16 15:20:58 2013, MaxMem=   436000000 cpu:         1.7
 (Enter /usr/local/gaussian/g09.d01.em64t.legacy.linda/g09/l303.exe)
 DipDrv:  MaxL=1.
 Leave Link  303 at Mon Dec 16 15:20:58 2013, MaxMem=   436000000 cpu:         0.2
 (Enter /usr/local/gaussian/g09.d01.em64t.legacy.linda/g09/l401.exe)
 Initial guess from the checkpoint file:  "/tmp/rdj3/g09-18029/Gau-1794.chk"
 B after Tr=     0.000000    0.000000    0.000000
         Rot=    0.999995    0.000000    0.000000   -0.003232 Ang=  -0.37 deg.
 Guess basis will be translated and rotated to current coordinates.
 JPrj=2 DoOrth=T DoCkMO=T.
 Initial guess orbital symmetries:
       Occupied  (A') (A') (A') (A') (A') (A') (A') (A') (A') (A')
                 (A') (A") (A') (A') (A") (A") (A') (A')
       Virtual   (A') (A') (A') (A') (A') (A') (A') (A') (A') (A')
                 (A') (A') (A') (A') (A') (A') (A') (A') (A') (A')
                 (A') (A') (A') (A') (A") (A") (A") (A") (A") (A")
                 (A")
 The electronic state of the initial guess is 1-A'.
 Generating alternative initial guess.
 ExpMin= 1.61D-01 ExpMax= 4.17D+03 ExpMxC= 6.27D+02 IAcc=1 IRadAn=         1 AccDes= 0.00D+00
 Harris functional with IExCor= 1009 and IRadAn=       1 diagonalized for initial guess.
 HarFok:  IExCor= 1009 AccDes= 0.00D+00 IRadAn=         1 IDoV= 1 UseB2=F ITyADJ=14
 ICtDFT=  3500011 ScaDFX=  1.000000  1.000000  1.000000  1.000000
 FoFCou: FMM=F IPFlag=           0 FMFlag=      100000 FMFlg1=           0
         NFxFlg=           0 DoJE=T BraDBF=F KetDBF=T FulRan=T
         wScrn=  0.000000 ICntrl=     500 IOpCl=  0 I1Cent=   200000004 NGrid=           0
         NMat0=    1 NMatS0=      1 NMatT0=    0 NMatD0=    1 NMtDS0=    0 NMtDT0=    0
 Petite list used in FoFCou.
 Harris En= -257.883151704614    
 Leave Link  401 at Mon Dec 16 15:20:58 2013, MaxMem=   436000000 cpu:         2.0
 (Enter /usr/local/gaussian/g09.d01.em64t.legacy.linda/g09/l502.exe)
 Closed shell SCF:
 Using DIIS extrapolation, IDIIS=  1040.
 Integral symmetry usage will be decided dynamically.
 Keep R1 ints in memory in symmetry-blocked form, NReq=1649580.
 IVT=       26544 IEndB=       26544 NGot=   436000000 MDV=   435545095
 LenX=   435545095 LenY=   435542253
 Requested convergence on RMS density matrix=1.00D-08 within 128 cycles.
 Requested convergence on MAX density matrix=1.00D-06.
 Requested convergence on             energy=1.00D-06.
 No special actions if energy rises.
 FoFCou: FMM=F IPFlag=           0 FMFlag=           0 FMFlg1=           0
         NFxFlg=           0 DoJE=F BraDBF=F KetDBF=F FulRan=T
         wScrn=  0.000000 ICntrl=     600 IOpCl=  0 I1Cent=           0 NGrid=           0
         NMat0=    1 NMatS0=   1225 NMatT0=    0 NMatD0=    1 NMtDS0=    0 NMtDT0=    0
 Petite list used in FoFCou.
 Integral accuracy reduced to 1.0D-05 until final iterations.

 Cycle   1  Pass 0  IDiag  1:
 E= -257.841546887779    
 DIIS: error= 7.26D-03 at cycle   1 NSaved=   1.
 NSaved= 1 IEnMin= 1 EnMin= -257.841546887779     IErMin= 1 ErrMin= 7.26D-03
 ErrMax= 7.26D-03  0.00D+00 EMaxC= 1.00D-01 BMatC= 2.51D-03 BMatP= 2.51D-03
 IDIUse=3 WtCom= 9.27D-01 WtEn= 7.26D-02
 Coeff-Com:  0.100D+01
 Coeff-En:   0.100D+01
 Coeff:      0.100D+01
 Gap=     0.888 Goal=   None    Shift=    0.000
 GapD=    0.888 DampG=2.000 DampE=1.000 DampFc=2.0000 IDamp=-1.
 RMSDP=1.99D-03 MaxDP=1.09D-02              OVMax= 1.54D-02

 Cycle   2  Pass 0  IDiag  1:
 E= -257.844712921484     Delta-E=       -0.003166033705 Rises=F Damp=F
 DIIS: error= 2.52D-03 at cycle   2 NSaved=   2.
 NSaved= 2 IEnMin= 2 EnMin= -257.844712921484     IErMin= 2 ErrMin= 2.52D-03
 ErrMax= 2.52D-03  0.00D+00 EMaxC= 1.00D-01 BMatC= 3.22D-04 BMatP= 2.51D-03
 IDIUse=3 WtCom= 9.75D-01 WtEn= 2.52D-02
 Coeff-Com:  0.193D+00 0.807D+00
 Coeff-En:   0.000D+00 0.100D+01
 Coeff:      0.188D+00 0.812D+00
 Gap=     0.273 Goal=   None    Shift=    0.000
 RMSDP=6.26D-04 MaxDP=6.52D-03 DE=-3.17D-03 OVMax= 4.72D-03

 Cycle   3  Pass 0  IDiag  1:
 E= -257.844944807851     Delta-E=       -0.000231886367 Rises=F Damp=F
 DIIS: error= 1.42D-03 at cycle   3 NSaved=   3.
 NSaved= 3 IEnMin= 3 EnMin= -257.844944807851     IErMin= 3 ErrMin= 1.42D-03
 ErrMax= 1.42D-03  0.00D+00 EMaxC= 1.00D-01 BMatC= 1.14D-04 BMatP= 3.22D-04
 IDIUse=3 WtCom= 9.86D-01 WtEn= 1.42D-02
 Coeff-Com:  0.418D-02 0.361D+00 0.634D+00
 Coeff-En:   0.000D+00 0.152D+00 0.848D+00
 Coeff:      0.412D-02 0.358D+00 0.638D+00
 Gap=     0.276 Goal=   None    Shift=    0.000
 RMSDP=2.82D-04 MaxDP=4.19D-03 DE=-2.32D-04 OVMax= 5.20D-03

 Cycle   4  Pass 0  IDiag  1:
 E= -257.845010856015     Delta-E=       -0.000066048164 Rises=F Damp=F
 DIIS: error= 1.09D-03 at cycle   4 NSaved=   4.
 NSaved= 4 IEnMin= 4 EnMin= -257.845010856015     IErMin= 4 ErrMin= 1.09D-03
 ErrMax= 1.09D-03  0.00D+00 EMaxC= 1.00D-01 BMatC= 4.14D-05 BMatP= 1.14D-04
 IDIUse=3 WtCom= 9.89D-01 WtEn= 1.09D-02
 Coeff-Com: -0.163D-01 0.164D+00 0.429D+00 0.423D+00
 Coeff-En:   0.000D+00 0.000D+00 0.261D+00 0.739D+00
 Coeff:     -0.161D-01 0.162D+00 0.427D+00 0.427D+00
 Gap=     0.274 Goal=   None    Shift=    0.000
 RMSDP=1.50D-04 MaxDP=1.37D-03 DE=-6.60D-05 OVMax= 2.67D-03

 Cycle   5  Pass 0  IDiag  1:
 E= -257.845048187530     Delta-E=       -0.000037331515 Rises=F Damp=F
 DIIS: error= 2.27D-04 at cycle   5 NSaved=   5.
 NSaved= 5 IEnMin= 5 EnMin= -257.845048187530     IErMin= 5 ErrMin= 2.27D-04
 ErrMax= 2.27D-04  0.00D+00 EMaxC= 1.00D-01 BMatC= 1.33D-06 BMatP= 4.14D-05
 IDIUse=3 WtCom= 9.98D-01 WtEn= 2.27D-03
 Coeff-Com: -0.831D-02 0.633D-01 0.186D+00 0.235D+00 0.524D+00
 Coeff-En:   0.000D+00 0.000D+00 0.000D+00 0.000D+00 0.100D+01
 Coeff:     -0.829D-02 0.631D-01 0.186D+00 0.234D+00 0.525D+00
 Gap=     0.275 Goal=   None    Shift=    0.000
 RMSDP=2.89D-05 MaxDP=2.99D-04 DE=-3.73D-05 OVMax= 5.30D-04

 Cycle   6  Pass 0  IDiag  1:
 E= -257.845049279846     Delta-E=       -0.000001092316 Rises=F Damp=F
 DIIS: error= 8.02D-05 at cycle   6 NSaved=   6.
 NSaved= 6 IEnMin= 6 EnMin= -257.845049279846     IErMin= 6 ErrMin= 8.02D-05
 ErrMax= 8.02D-05  0.00D+00 EMaxC= 1.00D-01 BMatC= 2.26D-07 BMatP= 1.33D-06
 IDIUse=1 WtCom= 1.00D+00 WtEn= 0.00D+00
 Coeff-Com: -0.111D-02-0.137D-02 0.102D-01 0.456D-01 0.325D+00 0.621D+00
 Coeff:     -0.111D-02-0.137D-02 0.102D-01 0.456D-01 0.325D+00 0.621D+00
 Gap=     0.275 Goal=   None    Shift=    0.000
 RMSDP=9.89D-06 MaxDP=1.30D-04 DE=-1.09D-06 OVMax= 1.71D-04

 Initial convergence to 1.0D-05 achieved.  Increase integral accuracy.
 Cycle   7  Pass 1  IDiag  1:
 E= -257.845066929567     Delta-E=       -0.000017649721 Rises=F Damp=F
 DIIS: error= 1.82D-05 at cycle   1 NSaved=   1.
 NSaved= 1 IEnMin= 1 EnMin= -257.845066929567     IErMin= 1 ErrMin= 1.82D-05
 ErrMax= 1.82D-05  0.00D+00 EMaxC= 1.00D-01 BMatC= 1.48D-08 BMatP= 1.48D-08
 IDIUse=1 WtCom= 1.00D+00 WtEn= 0.00D+00
 Coeff-Com:  0.100D+01
 Coeff:      0.100D+01
 Gap=     0.275 Goal=   None    Shift=    0.000
 RMSDP=9.89D-06 MaxDP=1.30D-04 DE=-1.76D-05 OVMax= 1.39D-04

 Cycle   8  Pass 1  IDiag  1:
 E= -257.845066907608     Delta-E=        0.000000021959 Rises=F Damp=F
 DIIS: error= 3.30D-05 at cycle   2 NSaved=   2.
 NSaved= 2 IEnMin= 1 EnMin= -257.845066929567     IErMin= 1 ErrMin= 1.82D-05
 ErrMax= 3.30D-05  0.00D+00 EMaxC= 1.00D-01 BMatC= 3.78D-08 BMatP= 1.48D-08
 IDIUse=1 WtCom= 1.00D+00 WtEn= 0.00D+00
 Coeff-Com:  0.622D+00 0.378D+00
 Coeff:      0.622D+00 0.378D+00
 Gap=     0.275 Goal=   None    Shift=    0.000
 RMSDP=4.62D-06 MaxDP=4.32D-05 DE= 2.20D-08 OVMax= 9.64D-05

 Cycle   9  Pass 1  IDiag  1:
 E= -257.845066945918     Delta-E=       -0.000000038310 Rises=F Damp=F
 DIIS: error= 2.39D-06 at cycle   3 NSaved=   3.
 NSaved= 3 IEnMin= 3 EnMin= -257.845066945918     IErMin= 3 ErrMin= 2.39D-06
 ErrMax= 2.39D-06  0.00D+00 EMaxC= 1.00D-01 BMatC= 3.25D-10 BMatP= 1.48D-08
 IDIUse=1 WtCom= 1.00D+00 WtEn= 0.00D+00
 Coeff-Com:  0.635D-01 0.958D-01 0.841D+00
 Coeff:      0.635D-01 0.958D-01 0.841D+00
 Gap=     0.275 Goal=   None    Shift=    0.000
 RMSDP=4.97D-07 MaxDP=6.21D-06 DE=-3.83D-08 OVMax= 8.07D-06

 Cycle  10  Pass 1  IDiag  1:
 E= -257.845066946057     Delta-E=       -0.000000000139 Rises=F Damp=F
 DIIS: error= 2.05D-06 at cycle   4 NSaved=   4.
 NSaved= 4 IEnMin= 4 EnMin= -257.845066946057     IErMin= 4 ErrMin= 2.05D-06
 ErrMax= 2.05D-06  0.00D+00 EMaxC= 1.00D-01 BMatC= 1.94D-10 BMatP= 3.25D-10
 IDIUse=1 WtCom= 1.00D+00 WtEn= 0.00D+00
 Coeff-Com: -0.233D-01 0.236D-01 0.528D+00 0.472D+00
 Coeff:     -0.233D-01 0.236D-01 0.528D+00 0.472D+00
 Gap=     0.275 Goal=   None    Shift=    0.000
 RMSDP=2.16D-07 MaxDP=2.73D-06 DE=-1.39D-10 OVMax= 3.59D-06

 Cycle  11  Pass 1  IDiag  1:
 E= -257.845066946221     Delta-E=       -0.000000000164 Rises=F Damp=F
 DIIS: error= 2.06D-07 at cycle   5 NSaved=   5.
 NSaved= 5 IEnMin= 5 EnMin= -257.845066946221     IErMin= 5 ErrMin= 2.06D-07
 ErrMax= 2.06D-07  0.00D+00 EMaxC= 1.00D-01 BMatC= 1.92D-12 BMatP= 1.94D-10
 IDIUse=1 WtCom= 1.00D+00 WtEn= 0.00D+00
 Coeff-Com: -0.115D-01 0.727D-02 0.195D+00 0.186D+00 0.623D+00
 Coeff:     -0.115D-01 0.727D-02 0.195D+00 0.186D+00 0.623D+00
 Gap=     0.275 Goal=   None    Shift=    0.000
 RMSDP=3.95D-08 MaxDP=4.20D-07 DE=-1.64D-10 OVMax= 7.98D-07

 Cycle  12  Pass 1  IDiag  1:
 E= -257.845066946221     Delta-E=        0.000000000000 Rises=F Damp=F
 DIIS: error= 1.88D-07 at cycle   6 NSaved=   6.
 NSaved= 6 IEnMin= 6 EnMin= -257.845066946221     IErMin= 6 ErrMin= 1.88D-07
 ErrMax= 1.88D-07  0.00D+00 EMaxC= 1.00D-01 BMatC= 1.00D-12 BMatP= 1.92D-12
 IDIUse=1 WtCom= 1.00D+00 WtEn= 0.00D+00
 Coeff-Com: -0.386D-02 0.141D-02 0.505D-01 0.496D-01 0.434D+00 0.468D+00
 Coeff:     -0.386D-02 0.141D-02 0.505D-01 0.496D-01 0.434D+00 0.468D+00
 Gap=     0.275 Goal=   None    Shift=    0.000
 RMSDP=2.73D-08 MaxDP=2.00D-07 DE=-4.55D-13 OVMax= 4.31D-07

 Cycle  13  Pass 1  IDiag  1:
 E= -257.845066946221     Delta-E=        0.000000000000 Rises=F Damp=F
 DIIS: error= 3.29D-08 at cycle   7 NSaved=   7.
 NSaved= 7 IEnMin= 6 EnMin= -257.845066946221     IErMin= 7 ErrMin= 3.29D-08
 ErrMax= 3.29D-08  0.00D+00 EMaxC= 1.00D-01 BMatC= 5.03D-14 BMatP= 1.00D-12
 IDIUse=1 WtCom= 1.00D+00 WtEn= 0.00D+00
 Coeff-Com: -0.856D-03-0.165D-03 0.551D-02 0.333D-02 0.148D+00 0.244D+00
 Coeff-Com:  0.600D+00
 Coeff:     -0.856D-03-0.165D-03 0.551D-02 0.333D-02 0.148D+00 0.244D+00
 Coeff:      0.600D+00
 Gap=     0.275 Goal=   None    Shift=    0.000
 RMSDP=5.46D-09 MaxDP=7.37D-08 DE= 0.00D+00 OVMax= 9.17D-08

 SCF Done:  E(RPBE1PBE) =  -257.845066946     A.U. after   13 cycles
            NFock= 13  Conv=0.55D-08     -V/T= 2.0040
 KE= 2.568197019182D+02 PE=-9.320497061508D+02 EE= 2.522360172601D+02
 Leave Link  502 at Mon Dec 16 15:20:58 2013, MaxMem=   436000000 cpu:         4.2
 (Enter /usr/local/gaussian/g09.d01.em64t.legacy.linda/g09/l701.exe)
 Compute integral first derivatives.
 ... and contract with generalized density number  0.
 Leave Link  701 at Mon Dec 16 15:20:59 2013, MaxMem=   436000000 cpu:         1.1
 (Enter /usr/local/gaussian/g09.d01.em64t.legacy.linda/g09/l702.exe)
 L702 exits ... SP integral derivatives will be done elsewhere.
 Leave Link  702 at Mon Dec 16 15:20:59 2013, MaxMem=   436000000 cpu:         0.2
 (Enter /usr/local/gaussian/g09.d01.em64t.legacy.linda/g09/l703.exe)
 Compute integral first derivatives, UseDBF=F ICtDFT=           0.
 Integral derivatives from FoFJK, PRISM(SPDF).
 Calling FoFJK, ICntrl=      2127 FMM=F ISym2X=1 I1Cent= 0 IOpClX= 0 NMat=1 NMatS=1 NMatT=0.
 FoFJK:  IHMeth= 1 ICntrl=    2127 DoSepK=F KAlg= 0 I1Cent=   0 FoldK=F
 IRaf=         0 NMat=   1 IRICut=       1 DoRegI=T DoRafI=F ISym2E= 1.
 FoFCou: FMM=F IPFlag=           0 FMFlag=      100000 FMFlg1=         800
         NFxFlg=           0 DoJE=F BraDBF=F KetDBF=F FulRan=T
         wScrn=  0.000000 ICntrl=    2127 IOpCl=  0 I1Cent=           0 NGrid=           0
         NMat0=    1 NMatS0=      1 NMatT0=    0 NMatD0=    1 NMtDS0=    0 NMtDT0=    0
 Petite list used in FoFCou.
 Leave Link  703 at Mon Dec 16 15:20:59 2013, MaxMem=   436000000 cpu:         2.1
 (Enter /usr/local/gaussian/g09.d01.em64t.legacy.linda/g09/l716.exe)
 Dipole        = 1.09293383D+00 2.03894648D+00 1.35730287D-33
 ***** Axes restored to original set *****
 -------------------------------------------------------------------
 Center     Atomic                   Forces (Hartrees/Bohr)
 Number     Number              X              Y              Z
 -------------------------------------------------------------------
      1        6          -0.006140088   -0.005148709    0.000000000
      2        7           0.006233316    0.002605119    0.000000000
      3        7          -0.006224538   -0.016068277    0.000000000
      4        7          -0.000042170    0.006281251    0.000000000
      5        7           0.006763553    0.012842319    0.000000000
      6        1          -0.000236966    0.000707040    0.000000000
      7        1          -0.000353107   -0.001218743    0.000000000
 -------------------------------------------------------------------
 Cartesian Forces:  Max     0.016068277 RMS     0.005602202
 Leave Link  716 at Mon Dec 16 15:20:59 2013, MaxMem=   436000000 cpu:         0.2
 (Enter /usr/local/gaussian/g09.d01.em64t.legacy.linda/g09/l103.exe)

 GradGradGradGradGradGradGradGradGradGradGradGradGradGradGradGradGradGrad
 Berny optimization.
 Using GEDIIS/GDIIS optimizer.
 FormGI is forming the generalized inverse of G from B-inverse, IUseBI=4.
 Internal  Forces:  Max     0.012447221 RMS     0.003845689
 Search for a local minimum.
 Step number   2 out of a maximum of   36
 All quantities printed in internal units (Hartrees-Bohrs-Radians)
 RMS Force = .38457D-02 SwitMx=.10000D-02 MixMth= 1
 Mixed Optimization -- RFO/linear search
 Update second derivatives using D2CorX and points    1    2
 DE= -1.03D-02 DEPred=-1.01D-02 R= 1.01D+00
 TightC=F SS=  1.41D+00  RLast= 1.72D-01 DXNew= 5.0454D-01 5.1566D-01
 Trust test= 1.01D+00 RLast= 1.72D-01 DXMaxT set to 5.05D-01
 ITU=  1  0
 Use linear search instead of GDIIS.
     Eigenvalues ---    0.02503   0.02634   0.02674   0.02833   0.15986
     Eigenvalues ---    0.16007   0.22817   0.24868   0.37536   0.48657
     Eigenvalues ---    0.50204   0.56378   0.58742   0.68774   0.73590
 RFO step:  Lambda=-1.03252235D-03 EMin= 2.50337572D-02
 Quartic linear search produced a step of  0.10199.
 Iteration  1 RMS(Cart)=  0.01147557 RMS(Int)=  0.00012444
 Iteration  2 RMS(Cart)=  0.00012468 RMS(Int)=  0.00001442
 Iteration  3 RMS(Cart)=  0.00000001 RMS(Int)=  0.00001442
 ITry= 1 IFail=0 DXMaxC= 3.86D-02 DCOld= 1.00D+10 DXMaxT= 5.05D-01 DXLimC= 3.00D+00 Rises=F
 ClnCor:  largest displacement from symmetrization is 5.25D-12 for atom     1.
 Variable       Old X    -DE/DX   Delta X   Delta X   Delta X     New X
                                 (Linear)    (Quad)   (Total)
    R1        2.56728   0.00037   0.00545  -0.00317   0.00227   2.56955
    R2        2.50736   0.00169   0.00725  -0.00116   0.00610   2.51346
    R3        2.02881  -0.00014   0.00112  -0.00074   0.00038   2.02919
    R4        2.58359   0.00284   0.00792   0.00231   0.01021   2.59380
    R5        1.89656   0.00100   0.00183   0.00164   0.00347   1.90003
    R6        2.45201   0.01245   0.00877   0.01452   0.02330   2.47530
    R7        2.61451   0.00566   0.00811   0.00923   0.01737   2.63188
    A1        1.87562   0.00675  -0.00127   0.02503   0.02376   1.89938
    A2        2.19309  -0.00264   0.00112  -0.00752  -0.00639   2.18670
    A3        2.21448  -0.00411   0.00015  -0.01752  -0.01736   2.19711
    A4        1.90063   0.00157   0.00158   0.00185   0.00340   1.90403
    A5        2.27958  -0.00004  -0.00110   0.00417   0.00309   2.28267
    A6        2.10298  -0.00153  -0.00048  -0.00603  -0.00649   2.09649
    A7        1.85961  -0.00624  -0.00024  -0.02283  -0.02309   1.83652
    A8        1.92374   0.00488  -0.00205   0.02936   0.02734   1.95108
    A9        1.86518  -0.00696   0.00197  -0.03342  -0.03141   1.83377
    D1        0.00000   0.00000   0.00000   0.00000   0.00000   0.00000
    D2        3.14159   0.00000   0.00000   0.00000   0.00000   3.14159
    D3        3.14159   0.00000   0.00000   0.00000   0.00000   3.14159
    D4        0.00000   0.00000   0.00000   0.00000   0.00000   0.00000
    D5        0.00000   0.00000   0.00000   0.00000   0.00000   0.00000
    D6        3.14159   0.00000   0.00000   0.00000   0.00000   3.14159
    D7        0.00000   0.00000   0.00000   0.00000   0.00000   0.00000
    D8        3.14159   0.00000   0.00000   0.00000   0.00000   3.14159
    D9        0.00000   0.00000   0.00000   0.00000   0.00000   0.00000
   D10        0.00000   0.00000   0.00000   0.00000   0.00000   0.00000
         Item               Value     Threshold  Converged?
 Maximum Force            0.012447     0.000450     NO 
 RMS     Force            0.003846     0.000300     NO 
 Maximum Displacement     0.038639     0.001800     NO 
 RMS     Displacement     0.011500     0.001200     NO 
 Predicted change in Energy=-5.834284D-04
 Lowest energy point so far.  Saving SCF results.
 GradGradGradGradGradGradGradGradGradGradGradGradGradGradGradGradGradGrad

 Leave Link  103 at Mon Dec 16 15:20:59 2013, MaxMem=   436000000 cpu:         0.0
 (Enter /usr/local/gaussian/g09.d01.em64t.legacy.linda/g09/l202.exe)
                          Input orientation:                          
 ---------------------------------------------------------------------
 Center     Atomic      Atomic             Coordinates (Angstroms)
 Number     Number       Type             X           Y           Z
 ---------------------------------------------------------------------
      1          6           0        1.023054    0.004653    0.000000
      2          7           0        0.393679   -1.200668    0.000000
      3          7           0       -0.963900   -0.998286    0.000000
      4          7           0       -1.117768    0.302520    0.000000
      5          7           0        0.105783    0.967818    0.000000
      6          1           0        2.087129    0.148835    0.000000
      7          1           0        0.764480   -2.135252    0.000000
 ---------------------------------------------------------------------
                    Distance matrix (angstroms):
                    1          2          3          4          5
     1  C    0.000000
     2  N    1.359747   0.000000
     3  N    2.225729   1.372581   0.000000
     4  N    2.161445   2.131678   1.309875   0.000000
     5  N    1.330065   2.187514   2.238256   1.392731   0.000000
     6  H    1.073800   2.165394   3.259550   3.208581   2.143937
     7  H    2.155470   1.005455   2.068813   3.079869   3.172212
                    6          7
     6  H    0.000000
     7  H    2.639404   0.000000
 Stoichiometry    CH2N4
 Framework group  CS[SG(CH2N4)]
 Deg. of freedom    11
 Full point group                 CS      NOp   2
 RotChk:  IX=0 Diff= 3.67D-03
 Largest Abelian subgroup         CS      NOp   2
 Largest concise Abelian subgroup C1      NOp   1
                         Standard orientation:                         
 ---------------------------------------------------------------------
 Center     Atomic      Atomic             Coordinates (Angstroms)
 Number     Number       Type             X           Y           Z
 ---------------------------------------------------------------------
      1          6           0        1.080708    0.240866    0.000000
      2          7           0        0.000000    1.066082    0.000000
      3          7           0       -1.144019    0.307662    0.000000
      4          7           0       -0.732356   -0.935843    0.000000
      5          7           0        0.657819   -1.020181    0.000000
      6          1           0        2.105670    0.561020    0.000000
      7          1           0       -0.060019    2.069744    0.000000
 ---------------------------------------------------------------------
 Rotational constants (GHZ):     10.3094267      9.9846175      5.0722114
 Leave Link  202 at Mon Dec 16 15:20:59 2013, MaxMem=   436000000 cpu:         0.0
 (Enter /usr/local/gaussian/g09.d01.em64t.legacy.linda/g09/l301.exe)
 Standard basis: 6-31G (6D, 7F)
 Ernie: Thresh=  0.10000D-02 Tol=  0.10000D-05 Strict=F.
 There are    39 symmetry adapted cartesian basis functions of A'  symmetry.
 There are    10 symmetry adapted cartesian basis functions of A"  symmetry.
 There are    39 symmetry adapted basis functions of A'  symmetry.
 There are    10 symmetry adapted basis functions of A"  symmetry.
    49 basis functions,   118 primitive gaussians,    49 cartesian basis functions
    18 alpha electrons       18 beta electrons
       nuclear repulsion energy       164.4353316259 Hartrees.
 IExCor= 1009 DFT=T Ex+Corr=PBE1PBE ExCW=0 ScaHFX=  0.250000
 ScaDFX=  0.750000  0.750000  1.000000  1.000000 ScalE2=  1.000000  1.000000
 IRadAn=      0 IRanWt=     -1 IRanGd=            0 ICorTp=0 IEmpDi=  4
 NAtoms=    7 NActive=    7 NUniq=    7 SFac= 1.00D+00 NAtFMM=   60 NAOKFM=F Big=F
 Integral buffers will be    131072 words long.
 Raffenetti 2 integral format.
 Two-electron integral symmetry is turned on.
 Leave Link  301 at Mon Dec 16 15:20:59 2013, MaxMem=   436000000 cpu:         0.5
 (Enter /usr/local/gaussian/g09.d01.em64t.legacy.linda/g09/l302.exe)
 NPDir=0 NMtPBC=     1 NCelOv=     1 NCel=       1 NClECP=     1 NCelD=      1
         NCelK=      1 NCelE2=     1 NClLst=     1 CellRange=     0.0.
 One-electron integrals computed using PRISM.
 NBasis=    49 RedAO= T EigKep=  7.14D-03  NBF=    39    10
 NBsUse=    49 1.00D-06 EigRej= -1.00D+00 NBFU=    39    10
 Precomputing XC quadrature grid using
 IXCGrd= 4 IRadAn=           0 IRanWt=          -1 IRanGd=           0 AccXCQ= 0.00D+00.
 Generated NRdTot=       0 NPtTot=           0 NUsed=           0 NTot=          32
 NSgBfM=    49    49    49    49    49 MxSgAt=     7 MxSgA2=     7.
 Leave Link  302 at Mon Dec 16 15:20:59 2013, MaxMem=   436000000 cpu:         1.7
 (Enter /usr/local/gaussian/g09.d01.em64t.legacy.linda/g09/l303.exe)
 DipDrv:  MaxL=1.
 Leave Link  303 at Mon Dec 16 15:20:59 2013, MaxMem=   436000000 cpu:         0.2
 (Enter /usr/local/gaussian/g09.d01.em64t.legacy.linda/g09/l401.exe)
 Initial guess from the checkpoint file:  "/tmp/rdj3/g09-18029/Gau-1794.chk"
 B after Tr=     0.000000    0.000000    0.000000
         Rot=    0.999999    0.000000    0.000000    0.001046 Ang=   0.12 deg.
 Guess basis will be translated and rotated to current coordinates.
 JPrj=2 DoOrth=T DoCkMO=T.
 Initial guess orbital symmetries:
       Occupied  (A') (A') (A') (A') (A') (A') (A') (A') (A') (A')
                 (A') (A') (A") (A') (A") (A") (A') (A')
       Virtual   (A') (A') (A') (A') (A') (A') (A') (A') (A') (A')
                 (A') (A') (A') (A') (A') (A') (A') (A') (A') (A')
                 (A') (A') (A') (A') (A") (A") (A") (A") (A") (A")
                 (A")
 The electronic state of the initial guess is 1-A'.
 Generating alternative initial guess.
 ExpMin= 1.61D-01 ExpMax= 4.17D+03 ExpMxC= 6.27D+02 IAcc=1 IRadAn=         1 AccDes= 0.00D+00
 Harris functional with IExCor= 1009 and IRadAn=       1 diagonalized for initial guess.
 HarFok:  IExCor= 1009 AccDes= 0.00D+00 IRadAn=         1 IDoV= 1 UseB2=F ITyADJ=14
 ICtDFT=  3500011 ScaDFX=  1.000000  1.000000  1.000000  1.000000
 FoFCou: FMM=F IPFlag=           0 FMFlag=      100000 FMFlg1=           0
         NFxFlg=           0 DoJE=T BraDBF=F KetDBF=T FulRan=T
         wScrn=  0.000000 ICntrl=     500 IOpCl=  0 I1Cent=   200000004 NGrid=           0
         NMat0=    1 NMatS0=      1 NMatT0=    0 NMatD0=    1 NMtDS0=    0 NMtDT0=    0
 Petite list used in FoFCou.
 Harris En= -257.883465248656    
 Leave Link  401 at Mon Dec 16 15:21:00 2013, MaxMem=   436000000 cpu:         1.8
 (Enter /usr/local/gaussian/g09.d01.em64t.legacy.linda/g09/l502.exe)
 Closed shell SCF:
 Using DIIS extrapolation, IDIIS=  1040.
 Integral symmetry usage will be decided dynamically.
 Keep R1 ints in memory in symmetry-blocked form, NReq=1649580.
 IVT=       26544 IEndB=       26544 NGot=   436000000 MDV=   435545095
 LenX=   435545095 LenY=   435542253
 Requested convergence on RMS density matrix=1.00D-08 within 128 cycles.
 Requested convergence on MAX density matrix=1.00D-06.
 Requested convergence on             energy=1.00D-06.
 No special actions if energy rises.
 FoFCou: FMM=F IPFlag=           0 FMFlag=           0 FMFlg1=           0
         NFxFlg=           0 DoJE=F BraDBF=F KetDBF=F FulRan=T
         wScrn=  0.000000 ICntrl=     600 IOpCl=  0 I1Cent=           0 NGrid=           0
         NMat0=    1 NMatS0=   1225 NMatT0=    0 NMatD0=    1 NMtDS0=    0 NMtDT0=    0
 Petite list used in FoFCou.
 Integral accuracy reduced to 1.0D-05 until final iterations.

 Cycle   1  Pass 0  IDiag  1:
 E= -257.844806918718    
 DIIS: error= 1.20D-03 at cycle   1 NSaved=   1.
 NSaved= 1 IEnMin= 1 EnMin= -257.844806918718     IErMin= 1 ErrMin= 1.20D-03
 ErrMax= 1.20D-03  0.00D+00 EMaxC= 1.00D-01 BMatC= 2.61D-04 BMatP= 2.61D-04
 IDIUse=3 WtCom= 9.88D-01 WtEn= 1.20D-02
 Coeff-Com:  0.100D+01
 Coeff-En:   0.100D+01
 Coeff:      0.100D+01
 Gap=     0.886 Goal=   None    Shift=    0.000
 GapD=    0.886 DampG=2.000 DampE=1.000 DampFc=2.0000 IDamp=-1.
 RMSDP=1.02D-03 MaxDP=8.81D-03              OVMax= 5.77D-03

 Cycle   2  Pass 0  IDiag  1:
 E= -257.845236498539     Delta-E=       -0.000429579821 Rises=F Damp=F
 DIIS: error= 5.98D-04 at cycle   2 NSaved=   2.
 NSaved= 2 IEnMin= 2 EnMin= -257.845236498539     IErMin= 2 ErrMin= 5.98D-04
 ErrMax= 5.98D-04  0.00D+00 EMaxC= 1.00D-01 BMatC= 2.58D-05 BMatP= 2.61D-04
 IDIUse=3 WtCom= 9.94D-01 WtEn= 5.98D-03
 Coeff-Com:  0.114D+00 0.886D+00
 Coeff-En:   0.000D+00 0.100D+01
 Coeff:      0.113D+00 0.887D+00
 Gap=     0.276 Goal=   None    Shift=    0.000
 RMSDP=2.54D-04 MaxDP=2.33D-03 DE=-4.30D-04 OVMax= 3.29D-03

 Cycle   3  Pass 0  IDiag  1:
 E= -257.845224084659     Delta-E=        0.000012413880 Rises=F Damp=F
 DIIS: error= 1.12D-03 at cycle   3 NSaved=   3.
 NSaved= 3 IEnMin= 2 EnMin= -257.845236498539     IErMin= 2 ErrMin= 5.98D-04
 ErrMax= 1.12D-03  0.00D+00 EMaxC= 1.00D-01 BMatC= 4.07D-05 BMatP= 2.58D-05
 IDIUse=3 WtCom= 2.30D-01 WtEn= 7.70D-01
 Coeff-Com: -0.258D-01 0.567D+00 0.459D+00
 Coeff-En:   0.000D+00 0.584D+00 0.416D+00
 Coeff:     -0.592D-02 0.580D+00 0.426D+00
 Gap=     0.275 Goal=   None    Shift=    0.000
 RMSDP=1.63D-04 MaxDP=1.63D-03 DE= 1.24D-05 OVMax= 2.74D-03

 Cycle   4  Pass 0  IDiag  1:
 E= -257.845263624409     Delta-E=       -0.000039539750 Rises=F Damp=F
 DIIS: error= 1.49D-04 at cycle   4 NSaved=   4.
 NSaved= 4 IEnMin= 4 EnMin= -257.845263624409     IErMin= 4 ErrMin= 1.49D-04
 ErrMax= 1.49D-04  0.00D+00 EMaxC= 1.00D-01 BMatC= 1.48D-06 BMatP= 2.58D-05
 IDIUse=3 WtCom= 9.99D-01 WtEn= 1.49D-03
 Coeff-Com: -0.230D-01 0.233D+00 0.234D+00 0.556D+00
 Coeff-En:   0.000D+00 0.000D+00 0.000D+00 0.100D+01
 Coeff:     -0.230D-01 0.232D+00 0.234D+00 0.557D+00
 Gap=     0.275 Goal=   None    Shift=    0.000
 RMSDP=2.70D-05 MaxDP=3.35D-04 DE=-3.95D-05 OVMax= 4.22D-04

 Cycle   5  Pass 0  IDiag  1:
 E= -257.845264846035     Delta-E=       -0.000001221626 Rises=F Damp=F
 DIIS: error= 7.71D-05 at cycle   5 NSaved=   5.
 NSaved= 5 IEnMin= 5 EnMin= -257.845264846035     IErMin= 5 ErrMin= 7.71D-05
 ErrMax= 7.71D-05  0.00D+00 EMaxC= 1.00D-01 BMatC= 1.89D-07 BMatP= 1.48D-06
 IDIUse=1 WtCom= 1.00D+00 WtEn= 0.00D+00
 Coeff-Com: -0.112D-01 0.962D-01 0.112D+00 0.313D+00 0.491D+00
 Coeff:     -0.112D-01 0.962D-01 0.112D+00 0.313D+00 0.491D+00
 Gap=     0.275 Goal=   None    Shift=    0.000
 RMSDP=1.24D-05 MaxDP=1.20D-04 DE=-1.22D-06 OVMax= 2.44D-04

 Cycle   6  Pass 0  IDiag  1:
 E= -257.845265006880     Delta-E=       -0.000000160844 Rises=F Damp=F
 DIIS: error= 3.67D-05 at cycle   6 NSaved=   6.
 NSaved= 6 IEnMin= 6 EnMin= -257.845265006880     IErMin= 6 ErrMin= 3.67D-05
 ErrMax= 3.67D-05  0.00D+00 EMaxC= 1.00D-01 BMatC= 3.46D-08 BMatP= 1.89D-07
 IDIUse=1 WtCom= 1.00D+00 WtEn= 0.00D+00
 Coeff-Com: -0.156D-02 0.379D-02 0.164D-01 0.516D-01 0.311D+00 0.619D+00
 Coeff:     -0.156D-02 0.379D-02 0.164D-01 0.516D-01 0.311D+00 0.619D+00
 Gap=     0.275 Goal=   None    Shift=    0.000
 RMSDP=4.63D-06 MaxDP=4.25D-05 DE=-1.61D-07 OVMax= 7.74D-05

 Initial convergence to 1.0D-05 achieved.  Increase integral accuracy.
 Cycle   7  Pass 1  IDiag  1:
 E= -257.845283131261     Delta-E=       -0.000018124381 Rises=F Damp=F
 DIIS: error= 8.74D-06 at cycle   1 NSaved=   1.
 NSaved= 1 IEnMin= 1 EnMin= -257.845283131261     IErMin= 1 ErrMin= 8.74D-06
 ErrMax= 8.74D-06  0.00D+00 EMaxC= 1.00D-01 BMatC= 6.30D-09 BMatP= 6.30D-09
 IDIUse=1 WtCom= 1.00D+00 WtEn= 0.00D+00
 Coeff-Com:  0.100D+01
 Coeff:      0.100D+01
 Gap=     0.275 Goal=   None    Shift=    0.000
 RMSDP=4.63D-06 MaxDP=4.25D-05 DE=-1.81D-05 OVMax= 4.00D-05

 Cycle   8  Pass 1  IDiag  1:
 E= -257.845283130057     Delta-E=        0.000000001204 Rises=F Damp=F
 DIIS: error= 1.47D-05 at cycle   2 NSaved=   2.
 NSaved= 2 IEnMin= 1 EnMin= -257.845283131261     IErMin= 1 ErrMin= 8.74D-06
 ErrMax= 1.47D-05  0.00D+00 EMaxC= 1.00D-01 BMatC= 9.67D-09 BMatP= 6.30D-09
 IDIUse=1 WtCom= 1.00D+00 WtEn= 0.00D+00
 Coeff-Com:  0.562D+00 0.438D+00
 Coeff:      0.562D+00 0.438D+00
 Gap=     0.275 Goal=   None    Shift=    0.000
 RMSDP=1.95D-06 MaxDP=2.16D-05 DE= 1.20D-09 OVMax= 4.09D-05

 Cycle   9  Pass 1  IDiag  1:
 E= -257.845283137940     Delta-E=       -0.000000007884 Rises=F Damp=F
 DIIS: error= 5.46D-06 at cycle   3 NSaved=   3.
 NSaved= 3 IEnMin= 3 EnMin= -257.845283137940     IErMin= 3 ErrMin= 5.46D-06
 ErrMax= 5.46D-06  0.00D+00 EMaxC= 1.00D-01 BMatC= 6.98D-10 BMatP= 6.30D-09
 IDIUse=1 WtCom= 1.00D+00 WtEn= 0.00D+00
 Coeff-Com:  0.881D-01 0.216D+00 0.696D+00
 Coeff:      0.881D-01 0.216D+00 0.696D+00
 Gap=     0.275 Goal=   None    Shift=    0.000
 RMSDP=7.95D-07 MaxDP=8.79D-06 DE=-7.88D-09 OVMax= 1.47D-05

 Cycle  10  Pass 1  IDiag  1:
 E= -257.845283138228     Delta-E=       -0.000000000288 Rises=F Damp=F
 DIIS: error= 3.18D-06 at cycle   4 NSaved=   4.
 NSaved= 4 IEnMin= 4 EnMin= -257.845283138228     IErMin= 4 ErrMin= 3.18D-06
 ErrMax= 3.18D-06  0.00D+00 EMaxC= 1.00D-01 BMatC= 3.55D-10 BMatP= 6.98D-10
 IDIUse=1 WtCom= 1.00D+00 WtEn= 0.00D+00
 Coeff-Com: -0.264D-01 0.903D-01 0.503D+00 0.433D+00
 Coeff:     -0.264D-01 0.903D-01 0.503D+00 0.433D+00
 Gap=     0.275 Goal=   None    Shift=    0.000
 RMSDP=3.81D-07 MaxDP=4.15D-06 DE=-2.88D-10 OVMax= 6.53D-06

 Cycle  11  Pass 1  IDiag  1:
 E= -257.845283138559     Delta-E=       -0.000000000331 Rises=F Damp=F
 DIIS: error= 2.93D-07 at cycle   5 NSaved=   5.
 NSaved= 5 IEnMin= 5 EnMin= -257.845283138559     IErMin= 5 ErrMin= 2.93D-07
 ErrMax= 2.93D-07  0.00D+00 EMaxC= 1.00D-01 BMatC= 3.01D-12 BMatP= 3.55D-10
 IDIUse=1 WtCom= 1.00D+00 WtEn= 0.00D+00
 Coeff-Com: -0.144D-01 0.418D-01 0.229D+00 0.220D+00 0.523D+00
 Coeff:     -0.144D-01 0.418D-01 0.229D+00 0.220D+00 0.523D+00
 Gap=     0.275 Goal=   None    Shift=    0.000
 RMSDP=5.45D-08 MaxDP=4.82D-07 DE=-3.31D-10 OVMax= 9.16D-07

 Cycle  12  Pass 1  IDiag  1:
 E= -257.845283138562     Delta-E=       -0.000000000002 Rises=F Damp=F
 DIIS: error= 1.30D-07 at cycle   6 NSaved=   6.
 NSaved= 6 IEnMin= 6 EnMin= -257.845283138562     IErMin= 6 ErrMin= 1.30D-07
 ErrMax= 1.30D-07  0.00D+00 EMaxC= 1.00D-01 BMatC= 6.60D-13 BMatP= 3.01D-12
 IDIUse=1 WtCom= 1.00D+00 WtEn= 0.00D+00
 Coeff-Com: -0.182D-02 0.420D-02 0.113D-01 0.296D-01 0.337D+00 0.620D+00
 Coeff:     -0.182D-02 0.420D-02 0.113D-01 0.296D-01 0.337D+00 0.620D+00
 Gap=     0.275 Goal=   None    Shift=    0.000
 RMSDP=2.18D-08 MaxDP=1.47D-07 DE=-2.16D-12 OVMax= 3.47D-07

 Cycle  13  Pass 1  IDiag  1:
 E= -257.845283138562     Delta-E=       -0.000000000001 Rises=F Damp=F
 DIIS: error= 1.07D-08 at cycle   7 NSaved=   7.
 NSaved= 7 IEnMin= 7 EnMin= -257.845283138562     IErMin= 7 ErrMin= 1.07D-08
 ErrMax= 1.07D-08  0.00D+00 EMaxC= 1.00D-01 BMatC= 4.59D-15 BMatP= 6.60D-13
 IDIUse=1 WtCom= 1.00D+00 WtEn= 0.00D+00
 Coeff-Com:  0.333D-03-0.808D-03-0.654D-02-0.800D-02 0.505D-02 0.344D-01
 Coeff-Com:  0.976D+00
 Coeff:      0.333D-03-0.808D-03-0.654D-02-0.800D-02 0.505D-02 0.344D-01
 Coeff:      0.976D+00
 Gap=     0.275 Goal=   None    Shift=    0.000
 RMSDP=2.37D-09 MaxDP=1.58D-08 DE=-5.68D-13 OVMax= 3.42D-08

 SCF Done:  E(RPBE1PBE) =  -257.845283139     A.U. after   13 cycles
            NFock= 13  Conv=0.24D-08     -V/T= 2.0043
 KE= 2.567453060555D+02 PE=-9.305798967248D+02 EE= 2.515539759048D+02
 Leave Link  502 at Mon Dec 16 15:21:00 2013, MaxMem=   436000000 cpu:         4.1
 (Enter /usr/local/gaussian/g09.d01.em64t.legacy.linda/g09/l701.exe)
 Compute integral first derivatives.
 ... and contract with generalized density number  0.
 Leave Link  701 at Mon Dec 16 15:21:00 2013, MaxMem=   436000000 cpu:         1.0
 (Enter /usr/local/gaussian/g09.d01.em64t.legacy.linda/g09/l702.exe)
 L702 exits ... SP integral derivatives will be done elsewhere.
 Leave Link  702 at Mon Dec 16 15:21:00 2013, MaxMem=   436000000 cpu:         0.2
 (Enter /usr/local/gaussian/g09.d01.em64t.legacy.linda/g09/l703.exe)
 Compute integral first derivatives, UseDBF=F ICtDFT=           0.
 Integral derivatives from FoFJK, PRISM(SPDF).
 Calling FoFJK, ICntrl=      2127 FMM=F ISym2X=1 I1Cent= 0 IOpClX= 0 NMat=1 NMatS=1 NMatT=0.
 FoFJK:  IHMeth= 1 ICntrl=    2127 DoSepK=F KAlg= 0 I1Cent=   0 FoldK=F
 IRaf=         0 NMat=   1 IRICut=       1 DoRegI=T DoRafI=F ISym2E= 1.
 FoFCou: FMM=F IPFlag=           0 FMFlag=      100000 FMFlg1=         800
         NFxFlg=           0 DoJE=F BraDBF=F KetDBF=F FulRan=T
         wScrn=  0.000000 ICntrl=    2127 IOpCl=  0 I1Cent=           0 NGrid=           0
         NMat0=    1 NMatS0=      1 NMatT0=    0 NMatD0=    1 NMtDS0=    0 NMtDT0=    0
 Petite list used in FoFCou.
 Leave Link  703 at Mon Dec 16 15:21:01 2013, MaxMem=   436000000 cpu:         1.8
 (Enter /usr/local/gaussian/g09.d01.em64t.legacy.linda/g09/l716.exe)
 Dipole        = 1.09970684D+00 2.03536730D+00 2.61384246D-32
 ***** Axes restored to original set *****
 -------------------------------------------------------------------
 Center     Atomic                   Forces (Hartrees/Bohr)
 Number     Number              X              Y              Z
 -------------------------------------------------------------------
      1        6           0.000707783   -0.004415811    0.000000000
      2        7           0.005482425    0.003098905    0.000000000
      3        7           0.002892472    0.005660092    0.000000000
      4        7          -0.009817641    0.003589722    0.000000000
      5        7          -0.000058560   -0.008399078    0.000000000
      6        1           0.000199570   -0.000284201    0.000000000
      7        1           0.000593951    0.000750371    0.000000000
 -------------------------------------------------------------------
 Cartesian Forces:  Max     0.009817641 RMS     0.003657478
 Leave Link  716 at Mon Dec 16 15:21:01 2013, MaxMem=   436000000 cpu:         0.2
 (Enter /usr/local/gaussian/g09.d01.em64t.legacy.linda/g09/l103.exe)

 GradGradGradGradGradGradGradGradGradGradGradGradGradGradGradGradGradGrad
 Berny optimization.
 Using GEDIIS/GDIIS optimizer.
 FormGI is forming the generalized inverse of G from B-inverse, IUseBI=4.
 Internal  Forces:  Max     0.009940066 RMS     0.003293365
 Search for a local minimum.
 Step number   3 out of a maximum of   36
 All quantities printed in internal units (Hartrees-Bohrs-Radians)
 RMS Force = .32934D-02 SwitMx=.10000D-02 MixMth= 1
 Mixed Optimization -- RFO/linear search
 Update second derivatives using D2CorX and points    1    2    3
 DE= -2.16D-04 DEPred=-5.83D-04 R= 3.71D-01
 Trust test= 3.71D-01 RLast= 6.51D-02 DXMaxT set to 5.05D-01
 ITU=  0  1  0
 Use linear search instead of GDIIS.
     Eigenvalues ---    0.02505   0.02637   0.02674   0.02831   0.15947
     Eigenvalues ---    0.16044   0.22417   0.35526   0.37639   0.45203
     Eigenvalues ---    0.48964   0.54261   0.63583   0.67243   0.78129
 RFO step:  Lambda=-1.89978608D-04 EMin= 2.50500738D-02
 Quartic linear search produced a step of -0.38992.
 Iteration  1 RMS(Cart)=  0.00604930 RMS(Int)=  0.00003395
 Iteration  2 RMS(Cart)=  0.00002654 RMS(Int)=  0.00001018
 Iteration  3 RMS(Cart)=  0.00000000 RMS(Int)=  0.00001018
 ITry= 1 IFail=0 DXMaxC= 1.88D-02 DCOld= 1.00D+10 DXMaxT= 5.05D-01 DXLimC= 3.00D+00 Rises=F
 ClnCor:  largest displacement from symmetrization is 1.64D-12 for atom     1.
 Variable       Old X    -DE/DX   Delta X   Delta X   Delta X     New X
                                 (Linear)    (Quad)   (Total)
    R1        2.56955  -0.00794  -0.00088  -0.00842  -0.00932   2.56023
    R2        2.51346   0.00049  -0.00238   0.00258   0.00019   2.51365
    R3        2.02919   0.00016  -0.00015   0.00026   0.00012   2.02930
    R4        2.59380   0.00382  -0.00398   0.00841   0.00443   2.59823
    R5        1.90003  -0.00048  -0.00135   0.00097  -0.00038   1.89965
    R6        2.47530  -0.00125  -0.00908   0.01083   0.00176   2.47707
    R7        2.63188   0.00050  -0.00677   0.00901   0.00225   2.63413
    A1        1.89938  -0.00247  -0.00926   0.00552  -0.00377   1.89561
    A2        2.18670   0.00092   0.00249  -0.00119   0.00131   2.18801
    A3        2.19711   0.00156   0.00677  -0.00433   0.00246   2.19957
    A4        1.90403  -0.00099  -0.00133  -0.00182  -0.00316   1.90087
    A5        2.28267  -0.00028  -0.00120   0.00050  -0.00070   2.28197
    A6        2.09649   0.00128   0.00253   0.00132   0.00386   2.10035
    A7        1.83652   0.00589   0.00900   0.00331   0.01233   1.84885
    A8        1.95108  -0.00994  -0.01066  -0.00866  -0.01929   1.93179
    A9        1.83377   0.00751   0.01225   0.00165   0.01390   1.84766
    D1        0.00000   0.00000   0.00000   0.00000   0.00000   0.00000
    D2        3.14159   0.00000   0.00000   0.00000   0.00000   3.14159
    D3        3.14159   0.00000   0.00000   0.00000   0.00000   3.14159
    D4        0.00000   0.00000   0.00000   0.00000   0.00000   0.00000
    D5        0.00000   0.00000   0.00000   0.00000   0.00000   0.00000
    D6        3.14159   0.00000   0.00000   0.00000   0.00000   3.14159
    D7        0.00000   0.00000   0.00000   0.00000   0.00000   0.00000
    D8        3.14159   0.00000   0.00000   0.00000   0.00000   3.14159
    D9        0.00000   0.00000   0.00000   0.00000   0.00000   0.00000
   D10        0.00000   0.00000   0.00000   0.00000   0.00000   0.00000
         Item               Value     Threshold  Converged?
 Maximum Force            0.009940     0.000450     NO 
 RMS     Force            0.003293     0.000300     NO 
 Maximum Displacement     0.018814     0.001800     NO 
 RMS     Displacement     0.006050     0.001200     NO 
 Predicted change in Energy=-2.392433D-04
[...]
      1  0.994248D+00
      2  0.290457D-01  0.592610D+00
      3  0.000000D+00  0.000000D+00  0.151618D+00
      4 -0.173167D+00 -0.681719D-01  0.000000D+00  0.542006D+00
      5 -0.975812D-01 -0.274302D+00  0.000000D+00 -0.128681D+00  0.102258D+01
      6  0.000000D+00  0.000000D+00 -0.742840D-01  0.000000D+00  0.000000D+00
      7 -0.975212D-01 -0.923769D-01  0.000000D+00 -0.174461D+00 -0.330809D-01
      8 -0.344643D-02 -0.279728D-01  0.000000D+00  0.702254D-02 -0.104225D+00
      9  0.000000D+00  0.000000D+00  0.235296D-01  0.000000D+00  0.000000D+00
     10 -0.126431D+00  0.687935D-01  0.000000D+00 -0.880519D-01  0.362011D-01
     11 -0.223674D-01  0.205036D-01  0.000000D+00  0.108273D+00 -0.983223D-01
     12  0.000000D+00  0.000000D+00  0.192303D-01  0.000000D+00  0.000000D+00
     13 -0.229895D+00  0.128250D+00  0.000000D+00  0.204057D-01  0.841310D-01
     14  0.122310D+00 -0.244714D+00  0.000000D+00 -0.271649D-01 -0.108174D+00
     15  0.000000D+00  0.000000D+00 -0.816182D-01  0.000000D+00  0.000000D+00
     16 -0.384620D+00 -0.486905D-01  0.000000D+00 -0.617076D-03  0.355609D-02
     17 -0.448191D-01 -0.600463D-01  0.000000D+00 -0.345786D-01  0.975788D-03
     18  0.000000D+00  0.000000D+00 -0.330039D-01  0.000000D+00  0.000000D+00
     19  0.173869D-01 -0.168500D-01  0.000000D+00 -0.126115D+00  0.135454D+00
     20  0.168586D-01 -0.607770D-02  0.000000D+00  0.143301D+00 -0.438537D+00
     21  0.000000D+00  0.000000D+00 -0.547187D-02  0.000000D+00  0.000000D+00
                6             7             8             9            10 
      6  0.121986D+00
      7  0.000000D+00  0.397509D+00
      8  0.000000D+00  0.810826D-01  0.529783D+00
      9 -0.750109D-01  0.000000D+00  0.000000D+00  0.113158D+00
     10  0.000000D+00 -0.929173D-01 -0.174968D-01  0.000000D+00  0.446995D+00
     11  0.000000D+00  0.551537D-01 -0.289760D+00  0.000000D+00 -0.110906D+00
     12  0.257938D-01  0.000000D+00  0.000000D+00 -0.934237D-01  0.000000D+00
     13  0.000000D+00 -0.357217D-01 -0.107309D+00  0.000000D+00 -0.128077D+00
     14  0.000000D+00 -0.731926D-02 -0.105089D+00  0.000000D+00  0.238473D-01
     15  0.226755D-01  0.000000D+00  0.000000D+00  0.340904D-01  0.000000D+00
     16  0.000000D+00  0.177049D-02  0.304552D-02  0.000000D+00 -0.698120D-04
     17  0.000000D+00  0.625636D-04 -0.692404D-02  0.000000D+00  0.572617D-02
     18 -0.131452D-02  0.000000D+00  0.000000D+00  0.584980D-02  0.000000D+00
     19  0.000000D+00  0.134210D-02  0.371011D-01  0.000000D+00 -0.114479D-01
     20  0.000000D+00 -0.352175D-02  0.418769D-02  0.000000D+00 -0.616517D-02
     21 -0.198455D-01  0.000000D+00  0.000000D+00 -0.819333D-02  0.000000D+00
               11            12            13            14            15 
     11  0.449684D+00
     12  0.000000D+00  0.120064D+00
     13 -0.335064D-01  0.000000D+00  0.386501D+00
     14 -0.829549D-01  0.000000D+00 -0.963574D-01  0.533309D+00
     15  0.000000D+00 -0.880527D-01  0.000000D+00  0.000000D+00  0.109516D+00
     16 -0.173967D-04  0.000000D+00 -0.991569D-02 -0.520254D-02  0.000000D+00
     17 -0.291246D-02  0.000000D+00  0.252866D-01  0.970086D-02  0.000000D+00
     18  0.000000D+00  0.913942D-02  0.000000D+00  0.000000D+00 -0.436711D-02
     19  0.337085D-02  0.000000D+00 -0.329696D-02 -0.101131D-01  0.000000D+00
     20  0.376274D-02  0.000000D+00 -0.495299D-03 -0.207775D-02  0.000000D+00
     21  0.000000D+00  0.724884D-02  0.000000D+00  0.000000D+00  0.775599D-02
               16            17            18            19            20 
     16  0.393794D+00
     17  0.481127D-01  0.595729D-01
     18  0.000000D+00  0.000000D+00  0.246309D-01
     19 -0.342046D-03  0.209686D-03  0.000000D+00  0.122473D+00
     20 -0.803926D-03 -0.366763D-03  0.000000D+00 -0.149173D+00  0.439109D+00
     21  0.000000D+00  0.000000D+00 -0.934645D-03  0.000000D+00  0.000000D+00
               21 
     21  0.194406D-01
 FormGI is forming the generalized inverse of G from B-inverse, IUseBI=4.
 Force constants in internal coordinates: 
                1             2             3             4             5 
      1  0.406910D+00
      2  0.359893D-01  0.447845D+00
      3  0.686422D-03  0.281807D-02  0.400577D+00
      4  0.202722D-01  0.439036D-01 -0.132579D-02  0.285150D+00
      5 -0.232868D-02 -0.155597D-02  0.673483D-03 -0.905557D-03  0.498316D+00
      6  0.730776D-01  0.623244D-01 -0.320077D-02  0.447621D-01 -0.431672D-02
      7  0.343008D-01  0.326335D-01 -0.252133D-02  0.608008D-01 -0.426784D-02
      8 -0.270020D-01 -0.267999D-01 -0.548514D-02 -0.408823D-01  0.342785D-02
      9  0.309914D-01 -0.924432D-03  0.383294D-02  0.136029D-01 -0.138044D-02
     10 -0.398938D-02  0.277243D-01  0.165220D-02  0.272794D-01 -0.204741D-02
     11 -0.335358D-01 -0.369338D-01  0.216606D-02 -0.839250D-02 -0.597827D-02
     12  0.264335D-01  0.147091D-01 -0.520022D-03 -0.883989D-02  0.285952D-02
     13  0.710233D-02  0.222248D-01 -0.164604D-02  0.172324D-01  0.311875D-02
     14 -0.376968D-01  0.138021D+00  0.108079D-02 -0.112338D-01  0.485042D-02
     15  0.131309D+00 -0.317619D-01 -0.142740D-02 -0.511048D-01 -0.167344D-02
     16 -0.330746D-01 -0.425252D-01  0.366569D-02  0.111613D+00 -0.626556D-03
     17  0.000000D+00  0.000000D+00  0.000000D+00  0.000000D+00  0.000000D+00
     18  0.000000D+00  0.000000D+00  0.000000D+00  0.000000D+00  0.000000D+00
     19  0.000000D+00  0.000000D+00  0.000000D+00  0.000000D+00  0.000000D+00
     20  0.000000D+00  0.000000D+00  0.000000D+00  0.000000D+00  0.000000D+00
     21  0.000000D+00  0.000000D+00  0.000000D+00  0.000000D+00  0.000000D+00
     22  0.000000D+00  0.000000D+00  0.000000D+00  0.000000D+00  0.000000D+00
     23  0.000000D+00  0.000000D+00  0.000000D+00  0.000000D+00  0.000000D+00
     24  0.000000D+00  0.000000D+00  0.000000D+00  0.000000D+00  0.000000D+00
     25  0.000000D+00  0.000000D+00  0.000000D+00  0.000000D+00  0.000000D+00
     26  0.000000D+00  0.000000D+00  0.000000D+00  0.000000D+00  0.000000D+00
                6             7             8             9            10 
      6  0.371311D+00
      7  0.432829D-01  0.224968D+00
      8  0.856911D-01 -0.237141D-01  0.132333D+00
      9 -0.414576D-01  0.147625D-01 -0.664054D-01  0.876708D-01
     10 -0.442335D-01  0.895161D-02 -0.659280D-01 -0.212654D-01  0.871934D-01
     11 -0.133481D-01  0.703699D-01 -0.711079D-01  0.378377D-01  0.332702D-01
     12  0.969136D-02 -0.344921D-01  0.379031D-01 -0.202260D-01 -0.176772D-01
     13  0.365674D-02 -0.358777D-01  0.332047D-01 -0.176117D-01 -0.155930D-01
     14 -0.258201D-01 -0.182845D-01  0.402088D-02 -0.965452D-02  0.563364D-02
     15 -0.395532D-01 -0.296717D-01  0.307734D-01 -0.691735D-02 -0.238561D-01
     16 -0.696976D-02  0.130045D-02 -0.960198D-01  0.451396D-01  0.508803D-01
     17  0.000000D+00  0.000000D+00  0.000000D+00  0.000000D+00  0.000000D+00
     18  0.000000D+00  0.000000D+00  0.000000D+00  0.000000D+00  0.000000D+00
     19  0.000000D+00  0.000000D+00  0.000000D+00  0.000000D+00  0.000000D+00
     20  0.000000D+00  0.000000D+00  0.000000D+00  0.000000D+00  0.000000D+00
     21  0.000000D+00  0.000000D+00  0.000000D+00  0.000000D+00  0.000000D+00
     22  0.000000D+00  0.000000D+00  0.000000D+00  0.000000D+00  0.000000D+00
     23  0.000000D+00  0.000000D+00  0.000000D+00  0.000000D+00  0.000000D+00
     24  0.000000D+00  0.000000D+00  0.000000D+00  0.000000D+00  0.000000D+00
     25  0.000000D+00  0.000000D+00  0.000000D+00  0.000000D+00  0.000000D+00
     26  0.000000D+00  0.000000D+00  0.000000D+00  0.000000D+00  0.000000D+00
               11            12            13            14            15 
     11  0.136322D+00
     12 -0.631504D-01  0.860991D-01
     13 -0.731714D-01 -0.229487D-01  0.961202D-01
     14 -0.114323D+00  0.477483D-01  0.665750D-01  0.208304D+00
     15  0.461653D-01 -0.100506D-01 -0.361147D-01 -0.160852D+00  0.239709D+00
     16  0.294413D-02 -0.124505D-01  0.950635D-02  0.628506D-01 -0.155796D+00
     17  0.000000D+00  0.000000D+00  0.000000D+00  0.000000D+00  0.000000D+00
     18  0.000000D+00  0.000000D+00  0.000000D+00  0.000000D+00  0.000000D+00
     19  0.000000D+00  0.000000D+00  0.000000D+00  0.000000D+00  0.000000D+00
     20  0.000000D+00  0.000000D+00  0.000000D+00  0.000000D+00  0.000000D+00
     21  0.000000D+00  0.000000D+00  0.000000D+00  0.000000D+00  0.000000D+00
     22  0.000000D+00  0.000000D+00  0.000000D+00  0.000000D+00  0.000000D+00
     23  0.000000D+00  0.000000D+00  0.000000D+00  0.000000D+00  0.000000D+00
     24  0.000000D+00  0.000000D+00  0.000000D+00  0.000000D+00  0.000000D+00
     25  0.000000D+00  0.000000D+00  0.000000D+00  0.000000D+00  0.000000D+00
     26  0.000000D+00  0.000000D+00  0.000000D+00  0.000000D+00  0.000000D+00
               16            17            18            19            20 
     16  0.186021D+00
     17  0.000000D+00  0.269330D-01
     18  0.000000D+00  0.987252D-02  0.131474D-01
     19  0.000000D+00  0.846980D-02 -0.415689D-02  0.146525D-01
     20  0.000000D+00 -0.859064D-02 -0.881983D-03  0.202583D-02  0.973449D-02
     21  0.000000D+00 -0.216626D-01 -0.120569D-01 -0.273437D-02  0.687124D-02
     22  0.000000D+00 -0.309108D-02  0.205477D-02 -0.895336D-02 -0.380752D-02
     23  0.000000D+00 -0.207074D-01 -0.321293D-02 -0.108488D-01  0.664569D-02
     24  0.000000D+00 -0.574834D-02 -0.608446D-02  0.222631D-03 -0.113492D-03
     25  0.000000D+00  0.717539D-02 -0.439247D-02  0.921378D-02 -0.235409D-02
     26  0.000000D+00  0.895186D-02  0.104134D-01 -0.425045D-02 -0.278890D-02
               21            22            23            24            25 
     21  0.260946D-01
     22  0.705531D-02  0.129520D-01
     23  0.743395D-02 -0.248251D-02  0.257275D-01
     24 -0.988538D-03 -0.699454D-02  0.103878D-01  0.106825D-01
     25  0.902197D-02  0.697162D-02 -0.212489D-01 -0.111058D-01  0.271496D-01
     26 -0.222237D-01 -0.894390D-02  0.909435D-02  0.781282D-02 -0.232460D-01
               26 
     26  0.290054D-01
 Leave Link  716 at Mon Dec 16 15:21:10 2013, MaxMem=   436000000 cpu:         0.3
 (Enter /usr/local/gaussian/g09.d01.em64t.legacy.linda/g09/l103.exe)

 GradGradGradGradGradGradGradGradGradGradGradGradGradGradGradGradGradGrad
 Berny optimization.
 Red2BG is reusing G-inverse.
 Internal  Forces:  Max     0.000224432 RMS     0.000062539
 Search for a local minimum.
 Step number   1 out of a maximum of    2
 All quantities printed in internal units (Hartrees-Bohrs-Radians)
 Second derivative matrix not updated -- analytic derivatives used.
 ITU=  0
     Eigenvalues ---    0.01238   0.02813   0.07572   0.07985   0.10308
     Eigenvalues ---    0.11151   0.16951   0.20796   0.33317   0.39218
     Eigenvalues ---    0.40510   0.46379   0.50056   0.56930   0.63869
 Angle between quadratic step and forces=  25.30 degrees.
 Linear search not attempted -- first point.
 Iteration  1 RMS(Cart)=  0.00024657 RMS(Int)=  0.00000007
 Iteration  2 RMS(Cart)=  0.00000006 RMS(Int)=  0.00000001
 ITry= 1 IFail=0 DXMaxC= 7.00D-04 DCOld= 1.00D+10 DXMaxT= 3.00D-01 DXLimC= 3.00D+00 Rises=F
 ClnCor:  largest displacement from symmetrization is 9.65D-13 for atom     5.
 Variable       Old X    -DE/DX   Delta X   Delta X   Delta X     New X
                                 (Linear)    (Quad)   (Total)
    R1        2.55668  -0.00004   0.00000  -0.00029  -0.00029   2.55639
    R2        2.51141   0.00014   0.00000   0.00039   0.00039   2.51180
    R3        2.02933   0.00000   0.00000   0.00000   0.00000   2.02933
    R4        2.59801   0.00022   0.00000   0.00105   0.00105   2.59907
    R5        1.89885   0.00002   0.00000   0.00004   0.00004   1.89889
    R6        2.47501  -0.00014   0.00000  -0.00053  -0.00053   2.47448
    R7        2.63315  -0.00002   0.00000  -0.00014  -0.00014   2.63301
    A1        1.89482  -0.00001   0.00000   0.00014   0.00014   1.89496
    A2        2.19011   0.00005   0.00000   0.00045   0.00045   2.19056
    A3        2.19825  -0.00004   0.00000  -0.00059  -0.00059   2.19766
    A4        1.90332  -0.00004   0.00000  -0.00022  -0.00022   1.90310
    A5        2.28177   0.00004   0.00000   0.00042   0.00042   2.28219
    A6        2.09810   0.00000   0.00000  -0.00020  -0.00020   2.09790
    A7        1.84591   0.00000   0.00000  -0.00013  -0.00013   1.84578
    A8        1.93338   0.00006   0.00000   0.00036   0.00036   1.93374
    A9        1.84735  -0.00001   0.00000  -0.00015  -0.00015   1.84720
    D1        0.00000   0.00000   0.00000   0.00000   0.00000   0.00000
    D2        3.14159   0.00000   0.00000   0.00000   0.00000   3.14159
    D3        3.14159   0.00000   0.00000   0.00000   0.00000   3.14159
    D4        0.00000   0.00000   0.00000   0.00000   0.00000   0.00000
    D5        0.00000   0.00000   0.00000   0.00000   0.00000   0.00000
    D6        3.14159   0.00000   0.00000   0.00000   0.00000   3.14159
    D7        0.00000   0.00000   0.00000   0.00000   0.00000   0.00000
    D8        3.14159   0.00000   0.00000   0.00000   0.00000   3.14159
    D9        0.00000   0.00000   0.00000   0.00000   0.00000   0.00000
   D10        0.00000   0.00000   0.00000   0.00000   0.00000   0.00000
         Item               Value     Threshold  Converged?
 Maximum Force            0.000224     0.000450     YES
 RMS     Force            0.000063     0.000300     YES
 Maximum Displacement     0.000700     0.001800     YES
 RMS     Displacement     0.000247     0.001200     YES
 Predicted change in Energy=-2.349514D-07
 Optimization completed.
    -- Stationary point found.
                           ----------------------------
                           !   Optimized Parameters   !
                           ! (Angstroms and Degrees)  !
 --------------------------                            --------------------------
 ! Name  Definition              Value          Derivative Info.                !
 --------------------------------------------------------------------------------
 ! R1    R(1,2)                  1.3529         -DE/DX =    0.0                 !
 ! R2    R(1,5)                  1.329          -DE/DX =    0.0001              !
 ! R3    R(1,6)                  1.0739         -DE/DX =    0.0                 !
 ! R4    R(2,3)                  1.3748         -DE/DX =    0.0002              !
 ! R5    R(2,7)                  1.0048         -DE/DX =    0.0                 !
 ! R6    R(3,4)                  1.3097         -DE/DX =   -0.0001              !
 ! R7    R(4,5)                  1.3934         -DE/DX =    0.0                 !
 ! A1    A(2,1,5)              108.5653         -DE/DX =    0.0                 !
 ! A2    A(2,1,6)              125.4843         -DE/DX =    0.0                 !
 ! A3    A(5,1,6)              125.9504         -DE/DX =    0.0                 !
 ! A4    A(1,2,3)              109.0524         -DE/DX =    0.0                 !
 ! A5    A(1,2,7)              130.7356         -DE/DX =    0.0                 !
 ! A6    A(3,2,7)              120.2121         -DE/DX =    0.0                 !
 ! A7    A(2,3,4)              105.763          -DE/DX =    0.0                 !
 ! A8    A(3,4,5)              110.7743         -DE/DX =    0.0001              !
 ! A9    A(1,5,4)              105.8451         -DE/DX =    0.0                 !
 ! D1    D(5,1,2,3)              0.0            -DE/DX =    0.0                 !
 ! D2    D(5,1,2,7)            180.0            -DE/DX =    0.0                 !
 ! D3    D(6,1,2,3)            180.0            -DE/DX =    0.0                 !
 ! D4    D(6,1,2,7)              0.0            -DE/DX =    0.0                 !
 ! D5    D(2,1,5,4)              0.0            -DE/DX =    0.0                 !
 ! D6    D(6,1,5,4)            180.0            -DE/DX =    0.0                 !
 ! D7    D(1,2,3,4)              0.0            -DE/DX =    0.0                 !
 ! D8    D(7,2,3,4)            180.0            -DE/DX =    0.0                 !
 ! D9    D(2,3,4,5)              0.0            -DE/DX =    0.0                 !
 ! D10   D(3,4,5,1)              0.0            -DE/DX =    0.0                 !
 --------------------------------------------------------------------------------
 GradGradGradGradGradGradGradGradGradGradGradGradGradGradGradGradGradGrad

 Leave Link  103 at Mon Dec 16 15:21:10 2013, MaxMem=   436000000 cpu:         0.0
 (Enter /usr/local/gaussian/g09.d01.em64t.legacy.linda/g09/l9999.exe)
 1\1\GINC-N963\Freq\RPBE1PBE\6-31G\C1H2N4\RDJ3\16-Dec-2013\0\\#P Geom=A
 llCheck Guess=TCheck SCRF=Check GenChk RPBE1PBE/6-31G Freq\\1H-tetrazo
 le CH2N4 casno=288948 state=1 config=1 method=54 basis=9\\0,1\C,1.0243
 84464,0.0003728252,0.\N,0.396888891,-1.1982467993,0.\N,-0.9625326321,-
 0.9931297599,0.\N,-1.1262894716,0.3063120521,0.\N,0.1045048301,0.95954
 88137,0.\H,2.0881926155,0.1470715513,0.\H,0.7673080909,-2.1323100372,0
 .\\Version=EM64L-G09RevD.01\State=1-A'\HF=-257.8455188\RMSD=1.889e-09\
 RMSF=1.121e-04\ZeroPoint=0.0472667\Thermal=0.0506853\Dipole=1.8564599,
 -1.3806875,0.\DipoleDeriv=0.1430869,0.0348717,0.,-0.1165719,0.3713608,
 0.,0.,0.,0.0858976,-0.3248426,0.2962111,0.,0.2013588,-0.4345299,0.,0.,
 0.,-0.2573115,0.1594822,-0.2960138,0.,-0.2999881,-0.1411545,0.,0.,0.,-
 0.0774867,0.1314519,0.0699996,0.,0.1506787,-0.0578354,0.,0.,0.,-0.1752
 39,-0.4366379,-0.0839529,0.,0.0724592,-0.1818807,0.,0.,0.,-0.2000322,0
 .094958,0.0041161,0.,0.0150987,0.1409331,0.,0.,0.,0.201997,0.2325015,-
 0.0252317,0.,-0.0230354,0.3031064,0.,0.,0.,0.4221747\Polar=38.1088683,
 -0.4627509,36.1873432,0.,0.,13.942242\PG=CS [SG(C1H2N4)]\NImag=0\\0.99
 424780,0.02904566,0.59260957,0.,0.,0.15161811,-0.17316684,-0.06817192,
 0.,0.54200597,-0.09758119,-0.27430225,0.,-0.12868051,1.02258487,0.,0.,
 -0.07428402,0.,0.,0.12198565,-0.09752116,-0.09237694,0.,-0.17446106,-0
 .03308093,0.,0.39750868,-0.00344643,-0.02797285,0.,0.00702254,-0.10422
 502,0.,0.08108257,0.52978332,0.,0.,0.02352956,0.,0.,-0.07501088,0.,0.,
 0.11315822,-0.12643115,0.06879350,0.,-0.08805186,0.03620115,0.,-0.0929
 1733,-0.01749679,0.,0.44699495,-0.02236744,0.02050359,0.,0.10827285,-0
 .09832229,0.,0.05515375,-0.28976029,0.,-0.11090618,0.44968363,0.,0.,0.
 01923029,0.,0.,0.02579382,0.,0.,-0.09342375,0.,0.,0.12006410,-0.229895
 38,0.12825016,0.,0.02040569,0.08413096,0.,-0.03572172,-0.10730855,0.,-
 0.12807688,-0.03350643,0.,0.38650095,0.12230992,-0.24471406,0.,-0.0271
 6493,-0.10817409,0.,-0.00731926,-0.10508882,0.,0.02384732,-0.08295491,
 0.,-0.09635742,0.53330878,0.,0.,-0.08161821,0.,0.,0.02267549,0.,0.,0.0
 3409039,0.,0.,-0.08805273,0.,0.,0.10951619,-0.38462017,-0.04869045,0.,
 -0.00061708,0.00355609,0.,0.00177049,0.00304552,0.,-0.00006981,-0.0000
 1740,0.,-0.00991569,-0.00520254,0.,0.39379430,-0.04481911,-0.06004629,
 0.,-0.03457860,0.00097579,0.,0.00006256,-0.00692404,0.,0.00572617,-0.0
 0291246,0.,0.02528659,0.00970086,0.,0.04811270,0.05957291,0.,0.,-0.033
 00386,0.,0.,-0.00131452,0.,0.,0.00584980,0.,0.,0.00913942,0.,0.,-0.004
 36711,0.,0.,0.02463092,0.01738689,-0.01685000,0.,-0.12611482,0.1354544
 3,0.,0.00134210,0.03710114,0.,-0.01144791,0.00337085,0.,-0.00329696,-0
 .01011309,0.,-0.00034205,0.00020969,0.,0.12247274,0.01685858,-0.006077
 70,0.,0.14330058,-0.43853701,0.,-0.00352175,0.00418769,0.,-0.00616517,
 0.00376274,0.,-0.00049530,-0.00207775,0.,-0.00080393,-0.00036676,0.,-0
 .14917302,0.43910880,0.,0.,-0.00547187,0.,0.,-0.01984554,0.,0.,-0.0081
 9333,0.,0.,0.00724884,0.,0.,0.00775599,0.,0.,-0.00093464,0.,0.,0.01944
 056\\-0.00006298,0.00017607,0.,-0.00026235,-0.00001154,0.,0.00025956,-
 0.00017604,0.,-0.00007070,0.00015272,0.,0.00012241,-0.00012289,0.,0.00
 000772,-0.00004697,0.,0.00000635,0.00002866,0.\\\@


 Until you make peace with who you are,
 you'll never be content with what you have.
                           -- Doris Mortman
 Job cpu time:       0 days  0 hours  0 minutes 30.1 seconds.
 File lengths (MBytes):  RWF=      5 Int=      0 D2E=      0 Chk=      1 Scr=      1
 Normal termination of Gaussian 09 at Mon Dec 16 15:21:10 2013.
