 Entering Gaussian System, Link 0=g09
 Initial command:
 /usr/local/gaussian/g09.d01.em64t.legacy.linda/g09/l1.exe "/tmp/rdj3/g09-18029/Gau-31072.inp" -scrdir="/tmp/rdj3/g09-18029/"
 Entering Link 1 = /usr/local/gaussian/g09.d01.em64t.legacy.linda/g09/l1.exe PID=     31073.
  
 Copyright (c) 1988,1990,1992,1993,1995,1998,2003,2009,2013,
            Gaussian, Inc.  All Rights Reserved.
  
 This is part of the Gaussian(R) 09 program.  It is based on
 the Gaussian(R) 03 system (copyright 2003, Gaussian, Inc.),
 the Gaussian(R) 98 system (copyright 1998, Gaussian, Inc.),
 the Gaussian(R) 94 system (copyright 1995, Gaussian, Inc.),
 the Gaussian 92(TM) system (copyright 1992, Gaussian, Inc.),
 the Gaussian 90(TM) system (copyright 1990, Gaussian, Inc.),
 the Gaussian 88(TM) system (copyright 1988, Gaussian, Inc.),
 the Gaussian 86(TM) system (copyright 1986, Carnegie Mellon
 University), and the Gaussian 82(TM) system (copyright 1983,
 Carnegie Mellon University). Gaussian is a federally registered
 trademark of Gaussian, Inc.
  
 This software contains proprietary and confidential information,
 including trade secrets, belonging to Gaussian, Inc.
  
 This software is provided under written license and may be
 used, copied, transmitted, or stored only in accord with that
 written license.
  
 The following legend is applicable only to US Government
 contracts under FAR:
  
                    RESTRICTED RIGHTS LEGEND
  
 Use, reproduction and disclosure by the US Government is
 subject to restrictions as set forth in subparagraphs (a)
 and (c) of the Commercial Computer Software - Restricted
 Rights clause in FAR 52.227-19.
  
 Gaussian, Inc.
 340 Quinnipiac St., Bldg. 40, Wallingford CT 06492
  
  
 ---------------------------------------------------------------
 Warning -- This program may not be used in any manner that
 competes with the business of Gaussian, Inc. or will provide
 assistance to any competitor of Gaussian, Inc.  The licensee
 of this program is prohibited from giving any competitor of
 Gaussian, Inc. access to this program.  By using this program,
 the user acknowledges that Gaussian, Inc. is engaged in the
 business of creating and licensing software in the field of
 computational chemistry and represents and warrants to the
 licensee that it is not a competitor of Gaussian, Inc. and that
 it will not use this program in any manner prohibited above.
 ---------------------------------------------------------------
  

 Cite this work as:
 Gaussian 09, Revision D.01,
 M. J. Frisch, G. W. Trucks, H. B. Schlegel, G. E. Scuseria, 
 M. A. Robb, J. R. Cheeseman, G. Scalmani, V. Barone, B. Mennucci, 
 G. A. Petersson, H. Nakatsuji, M. Caricato, X. Li, H. P. Hratchian, 
 A. F. Izmaylov, J. Bloino, G. Zheng, J. L. Sonnenberg, M. Hada, 
 M. Ehara, K. Toyota, R. Fukuda, J. Hasegawa, M. Ishida, T. Nakajima, 
 Y. Honda, O. Kitao, H. Nakai, T. Vreven, J. A. Montgomery, Jr., 
 J. E. Peralta, F. Ogliaro, M. Bearpark, J. J. Heyd, E. Brothers, 
 K. N. Kudin, V. N. Staroverov, T. Keith, R. Kobayashi, J. Normand, 
 K. Raghavachari, A. Rendell, J. C. Burant, S. S. Iyengar, J. Tomasi, 
 M. Cossi, N. Rega, J. M. Millam, M. Klene, J. E. Knox, J. B. Cross, 
 V. Bakken, C. Adamo, J. Jaramillo, R. Gomperts, R. E. Stratmann, 
 O. Yazyev, A. J. Austin, R. Cammi, C. Pomelli, J. W. Ochterski, 
 R. L. Martin, K. Morokuma, V. G. Zakrzewski, G. A. Voth, 
 P. Salvador, J. J. Dannenberg, S. Dapprich, A. D. Daniels, 
 O. Farkas, J. B. Foresman, J. V. Ortiz, J. Cioslowski, 
 and D. J. Fox, Gaussian, Inc., Wallingford CT, 2013.
 
 ******************************************
 Gaussian 09:  EM64L-G09RevD.01 24-Apr-2013
                16-Dec-2013 
 ******************************************
 %Nproc=8
 Will use up to    8 processors via shared memory.
 %mem=436000000
 ------------------------
 #PBE1PBE/6-31G* opt freq
 ------------------------
 1/14=-1,18=20,19=15,26=3,38=1/1,3;
 2/9=110,12=2,17=6,18=5,40=1/2;
 3/5=1,6=6,7=1,11=2,16=1,25=1,30=1,71=1,74=-13/1,2,3;
 4//1;
 5/5=2,38=5/2;
 6/7=2,8=2,9=2,10=2,28=1/1;
 7//1,2,3,16;
 1/14=-1,18=20,19=15,26=3/3(2);
 2/9=110/2;
 99//99;
 2/9=110/2;
 3/5=1,6=6,7=1,11=2,16=1,25=1,30=1,71=1,74=-13/1,2,3;
 4/5=5,16=3,69=1/1;
 5/5=2,38=5/2;
 7//1,2,3,16;
 1/14=-1,18=20,19=15,26=3/3(-5);
 2/9=110/2;
 6/7=2,8=2,9=2,10=2,19=2,28=1/1;
 99/9=1/99;
 Leave Link    1 at Mon Dec 16 15:19:07 2013, MaxMem=   436000000 cpu:         0.4
 (Enter /usr/local/gaussian/g09.d01.em64t.legacy.linda/g09/l101.exe)
 ------------------------------------------------------------------
 1H-tetrazole CH2N4 casno=288948 state=1 config=1 method=54 basis=3
 ------------------------------------------------------------------
 Symbolic Z-matrix:
 Charge =  0 Multiplicity = 1
 X
 X                    1     1. 
 C                    1     1.       2     90. 
 N                    1    rn1      2     90.      3    an1      0
 N                    1    rn2      2     90.      3    an2      0
 N                    1    rn3      2     90.      3    an3      0
 N                    1    rn4      2     90.      3    an4      0
 H                    3    rch      4    ach      5     180.     0
 H                    4    rnh      5    anh      6     180.     0
       Variables:
  rn1                   1.2426                   
  rn2                   1.333                    
  rn3                   1.1146                   
  rn4                   0.9264                   
  rch                   1.0678                   
  rnh                   0.9941                   
  an1                  71.8427                   
  an2                 133.7028                   
  an3                 194.4597                   
  an4                 276.0768                   
  ach                 125.0248                   
  anh                 120.7626                   
 
 NAtoms=      7 NQM=        7 NQMF=       0 NMMI=      0 NMMIF=      0
                NMic=       0 NMicF=      0.
                    Isotopes and Nuclear Properties:
 (Nuclear quadrupole moments (NQMom) in fm**2, nuclear magnetic moments (NMagM)
  in nuclear magnetons)

  Atom         1           2           3           4           5           6           7
 IAtWgt=          12          14          14          14          14           1           1
 AtmWgt=  12.0000000  14.0030740  14.0030740  14.0030740  14.0030740   1.0078250   1.0078250
 NucSpn=           0           2           2           2           2           1           1
 AtZEff=   0.0000000   0.0000000   0.0000000   0.0000000   0.0000000   0.0000000   0.0000000
 NQMom=    0.0000000   2.0440000   2.0440000   2.0440000   2.0440000   0.0000000   0.0000000
 NMagM=    0.0000000   0.4037610   0.4037610   0.4037610   0.4037610   2.7928460   2.7928460
 AtZNuc=   6.0000000   7.0000000   7.0000000   7.0000000   7.0000000   1.0000000   1.0000000
 Leave Link  101 at Mon Dec 16 15:19:07 2013, MaxMem=   436000000 cpu:         1.9
 (Enter /usr/local/gaussian/g09.d01.em64t.legacy.linda/g09/l103.exe)

 GradGradGradGradGradGradGradGradGradGradGradGradGradGradGradGradGradGrad
 Berny optimization.
 Initialization pass.
                           ----------------------------
                           !    Initial Parameters    !
                           ! (Angstroms and Degrees)  !
 --------------------------                            --------------------------
 ! Name  Definition              Value          Derivative Info.                !
 --------------------------------------------------------------------------------
 ! R1    R(1,2)                  1.3303         estimate D2E/DX2                !
 ! R2    R(1,5)                  1.2892         estimate D2E/DX2                !
 ! R3    R(1,6)                  1.0678         estimate D2E/DX2                !
 ! R4    R(2,3)                  1.3261         estimate D2E/DX2                !
 ! R5    R(2,7)                  0.9941         estimate D2E/DX2                !
 ! R6    R(3,4)                  1.252          estimate D2E/DX2                !
 ! R7    R(4,5)                  1.3414         estimate D2E/DX2                !
 ! A1    A(2,1,5)              108.177          estimate D2E/DX2                !
 ! A2    A(2,1,6)              125.0248         estimate D2E/DX2                !
 ! A3    A(5,1,6)              126.7982         estimate D2E/DX2                !
 ! A4    A(1,2,3)              108.008          estimate D2E/DX2                !
 ! A5    A(1,2,7)              131.2294         estimate D2E/DX2                !
 ! A6    A(3,2,7)              120.7626         estimate D2E/DX2                !
 ! A7    A(2,3,4)              106.684          estimate D2E/DX2                !
 ! A8    A(3,4,5)              111.3724         estimate D2E/DX2                !
 ! A9    A(1,5,4)              105.7586         estimate D2E/DX2                !
 ! D1    D(5,1,2,3)              0.0            estimate D2E/DX2                !
 ! D2    D(5,1,2,7)            180.0            estimate D2E/DX2                !
 ! D3    D(6,1,2,3)            180.0            estimate D2E/DX2                !
 ! D4    D(6,1,2,7)              0.0            estimate D2E/DX2                !
 ! D5    D(2,1,5,4)              0.0            estimate D2E/DX2                !
 ! D6    D(6,1,5,4)            180.0            estimate D2E/DX2                !
 ! D7    D(1,2,3,4)              0.0            estimate D2E/DX2                !
 ! D8    D(7,2,3,4)            180.0            estimate D2E/DX2                !
 ! D9    D(2,3,4,5)              0.0            estimate D2E/DX2                !
 ! D10   D(3,4,5,1)              0.0            estimate D2E/DX2                !
 --------------------------------------------------------------------------------
 Trust Radius=3.00D-01 FncErr=1.00D-07 GrdErr=1.00D-06
 Number of steps in this run=     36 maximum allowed number of steps=    100.
 GradGradGradGradGradGradGradGradGradGradGradGradGradGradGradGradGradGrad

 Leave Link  103 at Mon Dec 16 15:19:07 2013, MaxMem=   436000000 cpu:         0.1
 (Enter /usr/local/gaussian/g09.d01.em64t.legacy.linda/g09/l202.exe)
                          Input orientation:                          
 ---------------------------------------------------------------------
 Center     Atomic      Atomic             Coordinates (Angstroms)
 Number     Number       Type             X           Y           Z
 ---------------------------------------------------------------------
      1          6           0        1.000000    0.000000    0.000000
      2          7           0        0.387228   -1.180724    0.000000
      3          7           0       -0.920993   -0.963670    0.000000
      4          7           0       -1.079293    0.278314    0.000000
      5          7           0        0.098070    0.921194    0.000000
      6          1           0        2.058429    0.141157    0.000000
      7          1           0        0.749017   -2.106652    0.000000
 ---------------------------------------------------------------------
                    Distance matrix (angstroms):
                    1          2          3          4          5
     1  C    0.000000
     2  N    1.330263   0.000000
     3  N    2.149157   1.326105   0.000000
     4  N    2.097837   2.068690   1.252032   0.000000
     5  N    1.289216   2.121715   2.142710   1.341447   0.000000
     6  H    1.067800   2.130794   3.177672   3.140719   2.109850
     7  H    2.121551   0.994100   2.023695   3.005127   3.097029
                    6          7
     6  H    0.000000
     7  H    2.601385   0.000000
 Stoichiometry    CH2N4
 Framework group  CS[SG(CH2N4)]
 Deg. of freedom    11
 Full point group                 CS      NOp   2
 Largest Abelian subgroup         CS      NOp   2
 Largest concise Abelian subgroup C1      NOp   1
                         Standard orientation:                         
 ---------------------------------------------------------------------
 Center     Atomic      Atomic             Coordinates (Angstroms)
 Number     Number       Type             X           Y           Z
 ---------------------------------------------------------------------
      1          6           0        1.052733    0.225621    0.000000
      2          7           0        0.000000    1.038857    0.000000
      3          7           0       -1.095416    0.291448    0.000000
      4          7           0       -0.716382   -0.901832    0.000000
      5          7           0        0.622191   -0.989579    0.000000
      6          1           0        2.072287    0.542964    0.000000
      7          1           0       -0.061439    2.031056    0.000000
 ---------------------------------------------------------------------
 Rotational constants (GHZ):     10.9201517     10.7345054      5.4132664
 Leave Link  202 at Mon Dec 16 15:19:07 2013, MaxMem=   436000000 cpu:         0.0
 (Enter /usr/local/gaussian/g09.d01.em64t.legacy.linda/g09/l301.exe)
 Standard basis: 6-31G(d) (6D, 7F)
 Ernie: Thresh=  0.10000D-02 Tol=  0.10000D-05 Strict=F.
 There are    59 symmetry adapted cartesian basis functions of A'  symmetry.
 There are    20 symmetry adapted cartesian basis functions of A"  symmetry.
 There are    59 symmetry adapted basis functions of A'  symmetry.
 There are    20 symmetry adapted basis functions of A"  symmetry.
    79 basis functions,   148 primitive gaussians,    79 cartesian basis functions
    18 alpha electrons       18 beta electrons
       nuclear repulsion energy       169.8308489506 Hartrees.
 IExCor= 1009 DFT=T Ex+Corr=PBE1PBE ExCW=0 ScaHFX=  0.250000
 ScaDFX=  0.750000  0.750000  1.000000  1.000000 ScalE2=  1.000000  1.000000
 IRadAn=      0 IRanWt=     -1 IRanGd=            0 ICorTp=0 IEmpDi=  4
 NAtoms=    7 NActive=    7 NUniq=    7 SFac= 1.00D+00 NAtFMM=   60 NAOKFM=F Big=F
 Integral buffers will be    131072 words long.
 Raffenetti 2 integral format.
 Two-electron integral symmetry is turned on.
 Leave Link  301 at Mon Dec 16 15:19:07 2013, MaxMem=   436000000 cpu:         0.4
 (Enter /usr/local/gaussian/g09.d01.em64t.legacy.linda/g09/l302.exe)
 NPDir=0 NMtPBC=     1 NCelOv=     1 NCel=       1 NClECP=     1 NCelD=      1
         NCelK=      1 NCelE2=     1 NClLst=     1 CellRange=     0.0.
 One-electron integrals computed using PRISM.
 NBasis=    79 RedAO= T EigKep=  3.48D-03  NBF=    59    20
 NBsUse=    79 1.00D-06 EigRej= -1.00D+00 NBFU=    59    20
 Precomputing XC quadrature grid using
 IXCGrd= 4 IRadAn=           0 IRanWt=          -1 IRanGd=           0 AccXCQ= 0.00D+00.
 Generated NRdTot=       0 NPtTot=           0 NUsed=           0 NTot=          32
 NSgBfM=    79    79    79    79    79 MxSgAt=     7 MxSgA2=     7.
 Leave Link  302 at Mon Dec 16 15:19:07 2013, MaxMem=   436000000 cpu:         2.2
 (Enter /usr/local/gaussian/g09.d01.em64t.legacy.linda/g09/l303.exe)
 DipDrv:  MaxL=1.
 Leave Link  303 at Mon Dec 16 15:19:08 2013, MaxMem=   436000000 cpu:         0.2
 (Enter /usr/local/gaussian/g09.d01.em64t.legacy.linda/g09/l401.exe)
 ExpMin= 1.61D-01 ExpMax= 4.17D+03 ExpMxC= 6.27D+02 IAcc=1 IRadAn=         1 AccDes= 0.00D+00
 Harris functional with IExCor= 1009 and IRadAn=       1 diagonalized for initial guess.
 HarFok:  IExCor= 1009 AccDes= 0.00D+00 IRadAn=         1 IDoV= 1 UseB2=F ITyADJ=14
 ICtDFT=  3500011 ScaDFX=  1.000000  1.000000  1.000000  1.000000
 FoFCou: FMM=F IPFlag=           0 FMFlag=      100000 FMFlg1=           0
         NFxFlg=           0 DoJE=T BraDBF=F KetDBF=T FulRan=T
         wScrn=  0.000000 ICntrl=     500 IOpCl=  0 I1Cent=   200000004 NGrid=           0
         NMat0=    1 NMatS0=      1 NMatT0=    0 NMatD0=    1 NMtDS0=    0 NMtDT0=    0
 Petite list used in FoFCou.
 Harris En= -257.963497473815    
 JPrj=0 DoOrth=F DoCkMO=F.
 Initial guess orbital symmetries:
       Occupied  (A') (A') (A') (A') (A') (A') (A') (A') (A') (A')
                 (A') (A') (A") (A') (A") (A') (A") (A')
       Virtual   (A") (A") (A') (A') (A') (A') (A') (A') (A') (A')
                 (A") (A') (A') (A') (A') (A') (A") (A") (A') (A")
                 (A') (A") (A') (A') (A') (A') (A') (A') (A') (A")
                 (A") (A") (A') (A') (A") (A") (A') (A') (A') (A')
                 (A') (A') (A") (A") (A') (A') (A") (A") (A') (A')
                 (A") (A') (A') (A') (A') (A') (A') (A') (A') (A')
                 (A')
 The electronic state of the initial guess is 1-A'.
 Leave Link  401 at Mon Dec 16 15:19:08 2013, MaxMem=   436000000 cpu:         1.6
 (Enter /usr/local/gaussian/g09.d01.em64t.legacy.linda/g09/l502.exe)
 Closed shell SCF:
 Using DIIS extrapolation, IDIIS=  1040.
 Integral symmetry usage will be decided dynamically.
 Keep R1 ints in memory in symmetry-blocked form, NReq=7698310.
 IVT=       38524 IEndB=       38524 NGot=   436000000 MDV=   433296150
 LenX=   433296150 LenY=   433289468
 Requested convergence on RMS density matrix=1.00D-08 within 128 cycles.
 Requested convergence on MAX density matrix=1.00D-06.
 Requested convergence on             energy=1.00D-06.
 No special actions if energy rises.
 FoFCou: FMM=F IPFlag=           0 FMFlag=           0 FMFlg1=           0
         NFxFlg=           0 DoJE=F BraDBF=F KetDBF=F FulRan=T
         wScrn=  0.000000 ICntrl=     600 IOpCl=  0 I1Cent=           0 NGrid=           0
         NMat0=    1 NMatS0=   3160 NMatT0=    0 NMatD0=    1 NMtDS0=    0 NMtDT0=    0
 Petite list used in FoFCou.
 Integral accuracy reduced to 1.0D-05 until final iterations.

 Cycle   1  Pass 0  IDiag  1:
 E= -257.924841541473    
 DIIS: error= 1.92D-02 at cycle   1 NSaved=   1.
 NSaved= 1 IEnMin= 1 EnMin= -257.924841541473     IErMin= 1 ErrMin= 1.92D-02
 ErrMax= 1.92D-02  0.00D+00 EMaxC= 1.00D-01 BMatC= 5.27D-02 BMatP= 5.27D-02
 IDIUse=3 WtCom= 8.08D-01 WtEn= 1.92D-01
 Coeff-Com:  0.100D+01
 Coeff-En:   0.100D+01
 Coeff:      0.100D+01
 Gap=     0.268 Goal=   None    Shift=    0.000
 GapD=    0.268 DampG=1.000 DampE=0.500 DampFc=0.5000 IDamp=-1.
 Damping current iteration by 5.00D-01
 RMSDP=6.31D-03 MaxDP=9.19D-02              OVMax= 1.38D-01

 Cycle   2  Pass 0  IDiag  1:
 E= -257.940443337341     Delta-E=       -0.015601795868 Rises=F Damp=T
 DIIS: error= 7.79D-03 at cycle   2 NSaved=   2.
 NSaved= 2 IEnMin= 2 EnMin= -257.940443337341     IErMin= 2 ErrMin= 7.79D-03
 ErrMax= 7.79D-03  0.00D+00 EMaxC= 1.00D-01 BMatC= 1.09D-02 BMatP= 5.27D-02
 IDIUse=3 WtCom= 9.22D-01 WtEn= 7.79D-02
 Coeff-Com:  0.824D-01 0.918D+00
 Coeff-En:   0.201D+00 0.799D+00
 Coeff:      0.917D-01 0.908D+00
 Gap=     0.319 Goal=   None    Shift=    0.000
 RMSDP=2.11D-03 MaxDP=3.00D-02 DE=-1.56D-02 OVMax= 1.13D-01

 Cycle   3  Pass 0  IDiag  1:
 E= -257.959140380477     Delta-E=       -0.018697043136 Rises=F Damp=F
 DIIS: error= 1.22D-02 at cycle   3 NSaved=   3.
 NSaved= 3 IEnMin= 3 EnMin= -257.959140380477     IErMin= 2 ErrMin= 7.79D-03
 ErrMax= 1.22D-02  0.00D+00 EMaxC= 1.00D-01 BMatC= 1.05D-02 BMatP= 1.09D-02
 IDIUse=3 WtCom= 8.78D-01 WtEn= 1.22D-01
 Coeff-Com: -0.139D+00 0.562D+00 0.578D+00
 Coeff-En:   0.000D+00 0.000D+00 0.100D+01
 Coeff:     -0.122D+00 0.493D+00 0.629D+00
 Gap=     0.296 Goal=   None    Shift=    0.000
 RMSDP=1.41D-03 MaxDP=2.33D-02 DE=-1.87D-02 OVMax= 4.33D-02

 Cycle   4  Pass 0  IDiag  1:
 E= -257.966944662447     Delta-E=       -0.007804281970 Rises=F Damp=F
 DIIS: error= 4.97D-03 at cycle   4 NSaved=   4.
 NSaved= 4 IEnMin= 4 EnMin= -257.966944662447     IErMin= 4 ErrMin= 4.97D-03
 ErrMax= 4.97D-03  0.00D+00 EMaxC= 1.00D-01 BMatC= 1.51D-03 BMatP= 1.05D-02
 IDIUse=3 WtCom= 9.50D-01 WtEn= 4.97D-02
 Coeff-Com: -0.460D-01 0.152D+00 0.338D+00 0.557D+00
 Coeff-En:   0.000D+00 0.000D+00 0.141D+00 0.859D+00
 Coeff:     -0.437D-01 0.144D+00 0.328D+00 0.572D+00
 Gap=     0.297 Goal=   None    Shift=    0.000
 RMSDP=4.78D-04 MaxDP=8.41D-03 DE=-7.80D-03 OVMax= 1.27D-02

 Cycle   5  Pass 0  IDiag  1:
 E= -257.968124842976     Delta-E=       -0.001180180529 Rises=F Damp=F
 DIIS: error= 1.20D-03 at cycle   5 NSaved=   5.
 NSaved= 5 IEnMin= 5 EnMin= -257.968124842976     IErMin= 5 ErrMin= 1.20D-03
 ErrMax= 1.20D-03  0.00D+00 EMaxC= 1.00D-01 BMatC= 1.20D-04 BMatP= 1.51D-03
 IDIUse=3 WtCom= 9.88D-01 WtEn= 1.20D-02
 EnCoef did     2 forward-backward iterations
 Coeff-Com: -0.107D-01 0.270D-01 0.130D+00 0.341D+00 0.513D+00
 Coeff-En:   0.000D+00 0.000D+00 0.000D+00 0.561D-03 0.999D+00
 Coeff:     -0.105D-01 0.266D-01 0.128D+00 0.337D+00 0.519D+00
 Gap=     0.295 Goal=   None    Shift=    0.000
 RMSDP=1.31D-04 MaxDP=3.01D-03 DE=-1.18D-03 OVMax= 4.11D-03

 Cycle   6  Pass 0  IDiag  1:
 E= -257.968219019102     Delta-E=       -0.000094176126 Rises=F Damp=F
 DIIS: error= 2.00D-04 at cycle   6 NSaved=   6.
 NSaved= 6 IEnMin= 6 EnMin= -257.968219019102     IErMin= 6 ErrMin= 2.00D-04
 ErrMax= 2.00D-04  0.00D+00 EMaxC= 1.00D-01 BMatC= 4.47D-06 BMatP= 1.20D-04
 IDIUse=3 WtCom= 9.98D-01 WtEn= 2.00D-03
 Coeff-Com: -0.278D-02 0.336D-02 0.441D-01 0.136D+00 0.260D+00 0.559D+00
 Coeff-En:   0.000D+00 0.000D+00 0.000D+00 0.000D+00 0.000D+00 0.100D+01
 Coeff:     -0.278D-02 0.335D-02 0.440D-01 0.135D+00 0.260D+00 0.560D+00
 Gap=     0.295 Goal=   None    Shift=    0.000
 RMSDP=2.62D-05 MaxDP=3.87D-04 DE=-9.42D-05 OVMax= 6.66D-04

 Cycle   7  Pass 0  IDiag  1:
 E= -257.968222583158     Delta-E=       -0.000003564057 Rises=F Damp=F
 DIIS: error= 3.94D-05 at cycle   7 NSaved=   7.
 NSaved= 7 IEnMin= 7 EnMin= -257.968222583158     IErMin= 7 ErrMin= 3.94D-05
 ErrMax= 3.94D-05  0.00D+00 EMaxC= 1.00D-01 BMatC= 1.57D-07 BMatP= 4.47D-06
 IDIUse=1 WtCom= 1.00D+00 WtEn= 0.00D+00
 Coeff-Com: -0.860D-03 0.683D-03 0.155D-01 0.488D-01 0.957D-01 0.245D+00
 Coeff-Com:  0.595D+00
 Coeff:     -0.860D-03 0.683D-03 0.155D-01 0.488D-01 0.957D-01 0.245D+00
 Coeff:      0.595D+00
 Gap=     0.295 Goal=   None    Shift=    0.000
 RMSDP=5.92D-06 MaxDP=1.31D-04 DE=-3.56D-06 OVMax= 1.61D-04

 Initial convergence to 1.0D-05 achieved.  Increase integral accuracy.
 Cycle   8  Pass 1  IDiag  1:
 E= -257.968236626590     Delta-E=       -0.000014043432 Rises=F Damp=F
 DIIS: error= 1.77D-05 at cycle   1 NSaved=   1.
 NSaved= 1 IEnMin= 1 EnMin= -257.968236626590     IErMin= 1 ErrMin= 1.77D-05
 ErrMax= 1.77D-05  0.00D+00 EMaxC= 1.00D-01 BMatC= 4.94D-08 BMatP= 4.94D-08
 IDIUse=1 WtCom= 1.00D+00 WtEn= 0.00D+00
 Coeff-Com:  0.100D+01
 Coeff:      0.100D+01
 Gap=     0.295 Goal=   None    Shift=    0.000
 RMSDP=5.92D-06 MaxDP=1.31D-04 DE=-1.40D-05 OVMax= 1.41D-04

 Cycle   9  Pass 1  IDiag  1:
 E= -257.968236572882     Delta-E=        0.000000053709 Rises=F Damp=F
 DIIS: error= 2.96D-05 at cycle   2 NSaved=   2.
 NSaved= 2 IEnMin= 1 EnMin= -257.968236626590     IErMin= 1 ErrMin= 1.77D-05
 ErrMax= 2.96D-05  0.00D+00 EMaxC= 1.00D-01 BMatC= 1.15D-07 BMatP= 4.94D-08
 IDIUse=1 WtCom= 1.00D+00 WtEn= 0.00D+00
 Coeff-Com:  0.609D+00 0.391D+00
 Coeff:      0.609D+00 0.391D+00
 Gap=     0.295 Goal=   None    Shift=    0.000
 RMSDP=3.64D-06 MaxDP=6.82D-05 DE= 5.37D-08 OVMax= 1.05D-04

 Cycle  10  Pass 1  IDiag  1:
 E= -257.968236667938     Delta-E=       -0.000000095057 Rises=F Damp=F
 DIIS: error= 3.32D-06 at cycle   3 NSaved=   3.
 NSaved= 3 IEnMin= 3 EnMin= -257.968236667938     IErMin= 3 ErrMin= 3.32D-06
 ErrMax= 3.32D-06  0.00D+00 EMaxC= 1.00D-01 BMatC= 9.13D-10 BMatP= 4.94D-08
 IDIUse=1 WtCom= 1.00D+00 WtEn= 0.00D+00
 Coeff-Com:  0.111D+00 0.115D+00 0.774D+00
 Coeff:      0.111D+00 0.115D+00 0.774D+00
 Gap=     0.295 Goal=   None    Shift=    0.000
 RMSDP=6.48D-07 MaxDP=9.64D-06 DE=-9.51D-08 OVMax= 1.48D-05

 Cycle  11  Pass 1  IDiag  1:
 E= -257.968236668387     Delta-E=       -0.000000000449 Rises=F Damp=F
 DIIS: error= 1.93D-06 at cycle   4 NSaved=   4.
 NSaved= 4 IEnMin= 4 EnMin= -257.968236668387     IErMin= 4 ErrMin= 1.93D-06
 ErrMax= 1.93D-06  0.00D+00 EMaxC= 1.00D-01 BMatC= 4.82D-10 BMatP= 9.13D-10
 IDIUse=1 WtCom= 1.00D+00 WtEn= 0.00D+00
 Coeff-Com: -0.120D-01 0.221D-01 0.481D+00 0.509D+00
 Coeff:     -0.120D-01 0.221D-01 0.481D+00 0.509D+00
 Gap=     0.295 Goal=   None    Shift=    0.000
 RMSDP=2.73D-07 MaxDP=5.74D-06 DE=-4.49D-10 OVMax= 7.85D-06

 Cycle  12  Pass 1  IDiag  1:
 E= -257.968236668780     Delta-E=       -0.000000000392 Rises=F Damp=F
 DIIS: error= 7.15D-07 at cycle   5 NSaved=   5.
 NSaved= 5 IEnMin= 5 EnMin= -257.968236668780     IErMin= 5 ErrMin= 7.15D-07
 ErrMax= 7.15D-07  0.00D+00 EMaxC= 1.00D-01 BMatC= 3.55D-11 BMatP= 4.82D-10
 IDIUse=1 WtCom= 1.00D+00 WtEn= 0.00D+00
 Coeff-Com: -0.140D-01 0.661D-02 0.227D+00 0.294D+00 0.486D+00
 Coeff:     -0.140D-01 0.661D-02 0.227D+00 0.294D+00 0.486D+00
 Gap=     0.295 Goal=   None    Shift=    0.000
 RMSDP=7.48D-08 MaxDP=1.48D-06 DE=-3.92D-10 OVMax= 2.32D-06

 Cycle  13  Pass 1  IDiag  1:
 E= -257.968236668806     Delta-E=       -0.000000000026 Rises=F Damp=F
 DIIS: error= 1.71D-07 at cycle   6 NSaved=   6.
 NSaved= 6 IEnMin= 6 EnMin= -257.968236668806     IErMin= 6 ErrMin= 1.71D-07
 ErrMax= 1.71D-07  0.00D+00 EMaxC= 1.00D-01 BMatC= 2.46D-12 BMatP= 3.55D-11
 IDIUse=1 WtCom= 1.00D+00 WtEn= 0.00D+00
 Coeff-Com: -0.538D-02 0.283D-02 0.748D-01 0.104D+00 0.256D+00 0.568D+00
 Coeff:     -0.538D-02 0.283D-02 0.748D-01 0.104D+00 0.256D+00 0.568D+00
 Gap=     0.295 Goal=   None    Shift=    0.000
 RMSDP=2.45D-08 MaxDP=3.30D-07 DE=-2.64D-11 OVMax= 7.80D-07

 Cycle  14  Pass 1  IDiag  1:
 E= -257.968236668809     Delta-E=       -0.000000000003 Rises=F Damp=F
 DIIS: error= 6.54D-08 at cycle   7 NSaved=   7.
 NSaved= 7 IEnMin= 7 EnMin= -257.968236668809     IErMin= 7 ErrMin= 6.54D-08
 ErrMax= 6.54D-08  0.00D+00 EMaxC= 1.00D-01 BMatC= 4.22D-13 BMatP= 2.46D-12
 IDIUse=1 WtCom= 1.00D+00 WtEn= 0.00D+00
 Coeff-Com:  0.167D-03 0.112D-03-0.171D-01-0.179D-01 0.241D-01 0.321D+00
 Coeff-Com:  0.690D+00
 Coeff:      0.167D-03 0.112D-03-0.171D-01-0.179D-01 0.241D-01 0.321D+00
 Coeff:      0.690D+00
 Gap=     0.295 Goal=   None    Shift=    0.000
 RMSDP=8.51D-09 MaxDP=1.20D-07 DE=-2.73D-12 OVMax= 2.40D-07

 SCF Done:  E(RPBE1PBE) =  -257.968236669     A.U. after   14 cycles
            NFock= 14  Conv=0.85D-08     -V/T= 2.0069
 KE= 2.562017963254D+02 PE=-9.414523920538D+02 EE= 2.574515101090D+02
 Leave Link  502 at Mon Dec 16 15:19:09 2013, MaxMem=   436000000 cpu:         7.2
 (Enter /usr/local/gaussian/g09.d01.em64t.legacy.linda/g09/l601.exe)
 Copying SCF densities to generalized density rwf, IOpCl= 0 IROHF=0.

 **********************************************************************

            Population analysis using the SCF density.

 **********************************************************************

 Orbital symmetries:
       Occupied  (A') (A') (A') (A') (A') (A') (A') (A') (A') (A')
                 (A') (A") (A') (A') (A") (A") (A') (A')
       Virtual   (A") (A") (A') (A') (A') (A') (A') (A') (A') (A")
                 (A') (A') (A') (A') (A") (A') (A') (A") (A') (A")
                 (A') (A") (A') (A') (A') (A') (A') (A') (A') (A")
                 (A") (A") (A') (A') (A") (A") (A') (A') (A') (A')
                 (A') (A') (A") (A") (A') (A') (A") (A") (A') (A')
                 (A") (A') (A') (A') (A') (A') (A') (A') (A') (A')
                 (A')
 The electronic state is 1-A'.
 Alpha  occ. eigenvalues --  -14.51295 -14.47371 -14.45468 -14.42503 -10.32272
 Alpha  occ. eigenvalues --   -1.20240  -0.98691  -0.93554  -0.70959  -0.69570
 Alpha  occ. eigenvalues --   -0.62615  -0.52881  -0.52167  -0.39956  -0.34941
 Alpha  occ. eigenvalues --   -0.32886  -0.31470  -0.29945
 Alpha virt. eigenvalues --   -0.00421   0.03461   0.07363   0.12619   0.20636
 Alpha virt. eigenvalues --    0.22111   0.31563   0.34378   0.45028   0.53562
 Alpha virt. eigenvalues --    0.53734   0.61633   0.62070   0.68034   0.68727
 Alpha virt. eigenvalues --    0.69482   0.71151   0.72820   0.74876   0.81319
 Alpha virt. eigenvalues --    0.84090   0.85652   0.86581   0.88745   0.95184
 Alpha virt. eigenvalues --    1.01817   1.06541   1.10155   1.25038   1.27853
 Alpha virt. eigenvalues --    1.34385   1.37868   1.41643   1.47704   1.56536
 Alpha virt. eigenvalues --    1.58398   1.67139   1.88899   1.96759   2.05922
 Alpha virt. eigenvalues --    2.09212   2.19689   2.21236   2.26782   2.35082
 Alpha virt. eigenvalues --    2.38954   2.40343   2.47368   2.57273   2.57974
 Alpha virt. eigenvalues --    2.67084   2.69810   2.74724   2.99106   3.02864
 Alpha virt. eigenvalues --    3.06804   3.54011   3.66136   4.00675   4.08443
 Alpha virt. eigenvalues --    4.19349
          Condensed to atoms (all electrons):
               1          2          3          4          5          6
     1  C    4.877493   0.304805  -0.117232  -0.107001   0.426451   0.382638
     2  N    0.304805   6.845211   0.191938  -0.089337  -0.072400  -0.043000
     3  N   -0.117232   0.191938   6.777847   0.279911  -0.080882   0.002545
     4  N   -0.107001  -0.089337   0.279911   6.708942   0.277572   0.004693
     5  N    0.426451  -0.072400  -0.080882   0.277572   6.788612  -0.029187
     6  H    0.382638  -0.043000   0.002545   0.004693  -0.029187   0.451266
     7  H   -0.024109   0.309082  -0.024080   0.006816   0.005811   0.001273
               7
     1  C   -0.024109
     2  N    0.309082
     3  N   -0.024080
     4  N    0.006816
     5  N    0.005811
     6  H    0.001273
     7  H    0.338013
 Mulliken charges:
               1
     1  C    0.256953
     2  N   -0.446299
     3  N   -0.030047
     4  N   -0.081594
     5  N   -0.315977
     6  H    0.229771
     7  H    0.387194
 Sum of Mulliken charges =   0.00000
 Mulliken charges with hydrogens summed into heavy atoms:
               1
     1  C    0.486724
     2  N   -0.059105
     3  N   -0.030047
     4  N   -0.081594
     5  N   -0.315977
 Electronic spatial extent (au):  <R**2>=            243.6432
 Charge=              0.0000 electrons
 Dipole moment (field-independent basis, Debye):
    X=              2.4646    Y=              4.7525    Z=              0.0000  Tot=              5.3536
 Quadrupole moment (field-independent basis, Debye-Ang):
   XX=            -28.4697   YY=            -25.9670   ZZ=            -27.9624
   XY=              1.7434   XZ=              0.0000   YZ=              0.0000
 Traceless Quadrupole moment (field-independent basis, Debye-Ang):
   XX=             -1.0033   YY=              1.4994   ZZ=             -0.4960
   XY=              1.7434   XZ=              0.0000   YZ=              0.0000
 Octapole moment (field-independent basis, Debye-Ang**2):
  XXX=             11.4273  YYY=             21.7977  ZZZ=              0.0000  XYY=             -0.6003
  XXY=              4.4361  XXZ=              0.0000  XZZ=             -0.6202  YZZ=              0.5180
  YYZ=              0.0000  XYZ=              0.0000
 Hexadecapole moment (field-independent basis, Debye-Ang**3):
 XXXX=           -136.4606 YYYY=           -114.7735 ZZZZ=            -24.1850 XXXY=              6.1672
 XXXZ=              0.0000 YYYX=             -0.4804 YYYZ=              0.0000 ZZZX=              0.0000
 ZZZY=              0.0000 XXYY=            -51.2397 XXZZ=            -29.0445 YYZZ=            -27.4336
 XXYZ=              0.0000 YYXZ=              0.0000 ZZXY=             -0.1182
 N-N= 1.698308489506D+02 E-N=-9.414523944037D+02  KE= 2.562017963254D+02
 Symmetry A'   KE= 2.467848238893D+02
 Symmetry A"   KE= 9.416972436096D+00
 No NMR shielding tensors so no spin-rotation constants.
 Leave Link  601 at Mon Dec 16 15:19:09 2013, MaxMem=   436000000 cpu:         1.3
 (Enter /usr/local/gaussian/g09.d01.em64t.legacy.linda/g09/l701.exe)
 Compute integral first derivatives.
 ... and contract with generalized density number  0.
 Leave Link  701 at Mon Dec 16 15:19:09 2013, MaxMem=   436000000 cpu:         1.5
 (Enter /usr/local/gaussian/g09.d01.em64t.legacy.linda/g09/l702.exe)
 L702 exits ... SP integral derivatives will be done elsewhere.
 Leave Link  702 at Mon Dec 16 15:19:09 2013, MaxMem=   436000000 cpu:         0.2
 (Enter /usr/local/gaussian/g09.d01.em64t.legacy.linda/g09/l703.exe)
 Compute integral first derivatives, UseDBF=F ICtDFT=           0.
 Integral derivatives from FoFJK, PRISM(SPDF).
 Calling FoFJK, ICntrl=      2127 FMM=F ISym2X=1 I1Cent= 0 IOpClX= 0 NMat=1 NMatS=1 NMatT=0.
 FoFJK:  IHMeth= 1 ICntrl=    2127 DoSepK=F KAlg= 0 I1Cent=   0 FoldK=F
 IRaf=         0 NMat=   1 IRICut=       1 DoRegI=T DoRafI=F ISym2E= 1.
 FoFCou: FMM=F IPFlag=           0 FMFlag=      100000 FMFlg1=         800
         NFxFlg=           0 DoJE=F BraDBF=F KetDBF=F FulRan=T
         wScrn=  0.000000 ICntrl=    2127 IOpCl=  0 I1Cent=           0 NGrid=           0
         NMat0=    1 NMatS0=      1 NMatT0=    0 NMatD0=    1 NMtDS0=    0 NMtDT0=    0
 Petite list used in FoFCou.
 Leave Link  703 at Mon Dec 16 15:19:10 2013, MaxMem=   436000000 cpu:         3.2
 (Enter /usr/local/gaussian/g09.d01.em64t.legacy.linda/g09/l716.exe)
 Dipole        = 9.69630334D-01 1.86979602D+00 1.93587870D-32
 ***** Axes restored to original set *****
 -------------------------------------------------------------------
 Center     Atomic                   Forces (Hartrees/Bohr)
 Number     Number              X              Y              Z
 -------------------------------------------------------------------
      1        6           0.017092330   -0.006477437    0.000000000
      2        7           0.004099102   -0.001928269    0.000000000
      3        7          -0.012699239   -0.039659522    0.000000000
      4        7          -0.017490010    0.032580155    0.000000000
      5        7          -0.004979564    0.027787244    0.000000000
      6        1           0.009140428    0.001101367    0.000000000
      7        1           0.004836952   -0.013403538    0.000000000
 -------------------------------------------------------------------
 Cartesian Forces:  Max     0.039659522 RMS     0.014704841
 Leave Link  716 at Mon Dec 16 15:19:10 2013, MaxMem=   436000000 cpu:         0.2
 (Enter /usr/local/gaussian/g09.d01.em64t.legacy.linda/g09/l103.exe)

 GradGradGradGradGradGradGradGradGradGradGradGradGradGradGradGradGradGrad
 Berny optimization.
 FormGI is forming the generalized inverse of G from B-inverse, IUseBI=4.
 Internal  Forces:  Max     0.039726566 RMS     0.011545648
 Search for a local minimum.
 Step number   1 out of a maximum of   36
 All quantities printed in internal units (Hartrees-Bohrs-Radians)
 RMS Force = .11546D-01 SwitMx=.10000D-02 MixMth= 1
 Mixed Optimization -- RFO/linear search
 Second derivative matrix not updated -- first step.
 ITU=  0
     Eigenvalues ---    0.02505   0.02639   0.02674   0.02834   0.16000
     Eigenvalues ---    0.16000   0.22605   0.24688   0.37510   0.48741
     Eigenvalues ---    0.50870   0.56601   0.58498   0.66939   0.78934
 RFO step:  Lambda=-5.03810087D-03 EMin= 2.50488176D-02
 Linear search not attempted -- first point.
 Iteration  1 RMS(Cart)=  0.01818611 RMS(Int)=  0.00003131
 Iteration  2 RMS(Cart)=  0.00002969 RMS(Int)=  0.00001054
 Iteration  3 RMS(Cart)=  0.00000000 RMS(Int)=  0.00001054
 ITry= 1 IFail=0 DXMaxC= 4.14D-02 DCOld= 1.00D+10 DXMaxT= 3.00D-01 DXLimC= 3.00D+00 Rises=F
 ClnCor:  largest displacement from symmetrization is 1.60D-11 for atom     1.
 Variable       Old X    -DE/DX   Delta X   Delta X   Delta X     New X
                                 (Linear)    (Quad)   (Total)
    R1        2.51383   0.01749   0.00000   0.02721   0.02719   2.54103
    R2        2.43626   0.02759   0.00000   0.03808   0.03807   2.47434
    R3        2.01785   0.00921   0.00000   0.02422   0.02422   2.04207
    R4        2.50598   0.01679   0.00000   0.02739   0.02739   2.53337
    R5        1.87858   0.01424   0.00000   0.02892   0.02892   1.90750
    R6        2.36600   0.03973   0.00000   0.04923   0.04925   2.41524
    R7        2.53497   0.01485   0.00000   0.02731   0.02731   2.56228
    A1        1.88804   0.00229   0.00000   0.00213   0.00210   1.89015
    A2        2.18209  -0.00127   0.00000  -0.00181  -0.00180   2.18029
    A3        2.21305  -0.00102   0.00000  -0.00031  -0.00030   2.21275
    A4        1.88509   0.00272   0.00000   0.00615   0.00614   1.89124
    A5        2.29039  -0.00101   0.00000  -0.00092  -0.00091   2.28947
    A6        2.10770  -0.00172   0.00000  -0.00523  -0.00523   2.10248
    A7        1.86199  -0.00295   0.00000  -0.00753  -0.00752   1.85447
    A8        1.94382  -0.00133   0.00000   0.00290   0.00293   1.94674
    A9        1.84584  -0.00074   0.00000  -0.00365  -0.00365   1.84218
    D1        0.00000   0.00000   0.00000   0.00000   0.00000   0.00000
    D2        3.14159   0.00000   0.00000   0.00000   0.00000   3.14159
    D3        3.14159   0.00000   0.00000   0.00000   0.00000   3.14159
    D4        0.00000   0.00000   0.00000   0.00000   0.00000   0.00000
    D5        0.00000   0.00000   0.00000   0.00000   0.00000   0.00000
    D6        3.14159   0.00000   0.00000   0.00000   0.00000   3.14159
    D7        0.00000   0.00000   0.00000   0.00000   0.00000   0.00000
    D8        3.14159   0.00000   0.00000   0.00000   0.00000   3.14159
    D9        0.00000   0.00000   0.00000   0.00000   0.00000   0.00000
   D10        0.00000   0.00000   0.00000   0.00000   0.00000   0.00000
         Item               Value     Threshold  Converged?
 Maximum Force            0.039727     0.000450     NO 
 RMS     Force            0.011546     0.000300     NO 
 Maximum Displacement     0.041415     0.001800     NO 
 RMS     Displacement     0.018178     0.001200     NO 
 Predicted change in Energy=-2.538195D-03
 Lowest energy point so far.  Saving SCF results.
 GradGradGradGradGradGradGradGradGradGradGradGradGradGradGradGradGradGrad

 Leave Link  103 at Mon Dec 16 15:19:10 2013, MaxMem=   436000000 cpu:         0.1
 (Enter /usr/local/gaussian/g09.d01.em64t.legacy.linda/g09/l202.exe)
                          Input orientation:                          
 ---------------------------------------------------------------------
 Center     Atomic      Atomic             Coordinates (Angstroms)
 Number     Number       Type             X           Y           Z
 ---------------------------------------------------------------------
      1          6           0        1.007564    0.004700    0.000000
      2          7           0        0.387797   -1.188607    0.000000
      3          7           0       -0.935981   -0.976899    0.000000
      4          7           0       -1.095444    0.291206    0.000000
      5          7           0        0.093796    0.942495    0.000000
      6          1           0        2.078996    0.145292    0.000000
      7          1           0        0.755729   -2.128568    0.000000
 ---------------------------------------------------------------------
                    Distance matrix (angstroms):
                    1          2          3          4          5
     1  C    0.000000
     2  N    1.344653   0.000000
     3  N    2.177362   1.340601   0.000000
     4  N    2.122435   2.095197   1.278092   0.000000
     5  N    1.309364   2.151286   2.178191   1.355901   0.000000
     6  H    1.080617   2.153936   3.217049   3.177792   2.139289
     7  H    2.148082   1.009406   2.046515   3.046662   3.141590
                    6          7
     6  H    0.000000
     7  H    2.630870   0.000000
 Stoichiometry    CH2N4
 Framework group  CS[SG(CH2N4)]
 Deg. of freedom    11
 Full point group                 CS      NOp   2
 RotChk:  IX=0 Diff= 4.34D-04
 Largest Abelian subgroup         CS      NOp   2
 Largest concise Abelian subgroup C1      NOp   1
                         Standard orientation:                         
 ---------------------------------------------------------------------
 Center     Atomic      Atomic             Coordinates (Angstroms)
 Number     Number       Type             X           Y           Z
 ---------------------------------------------------------------------
      1          6           0        1.064625    0.229439    0.000000
      2          7           0        0.000000    1.050819    0.000000
      3          7           0       -1.111548    0.301372    0.000000
      4          7           0       -0.722204   -0.915974    0.000000
      5          7           0        0.630709   -1.005936    0.000000
      6          1           0        2.095638    0.553083    0.000000
      7          1           0       -0.062082    2.058314    0.000000
 ---------------------------------------------------------------------
 Rotational constants (GHZ):     10.6396530     10.4384443      5.2690441
 Leave Link  202 at Mon Dec 16 15:19:10 2013, MaxMem=   436000000 cpu:         0.0
 (Enter /usr/local/gaussian/g09.d01.em64t.legacy.linda/g09/l301.exe)
 Standard basis: 6-31G(d) (6D, 7F)
 Ernie: Thresh=  0.10000D-02 Tol=  0.10000D-05 Strict=F.
 There are    59 symmetry adapted cartesian basis functions of A'  symmetry.
 There are    20 symmetry adapted cartesian basis functions of A"  symmetry.
 There are    59 symmetry adapted basis functions of A'  symmetry.
 There are    20 symmetry adapted basis functions of A"  symmetry.
    79 basis functions,   148 primitive gaussians,    79 cartesian basis functions
    18 alpha electrons       18 beta electrons
       nuclear repulsion energy       167.5289994674 Hartrees.
 IExCor= 1009 DFT=T Ex+Corr=PBE1PBE ExCW=0 ScaHFX=  0.250000
 ScaDFX=  0.750000  0.750000  1.000000  1.000000 ScalE2=  1.000000  1.000000
 IRadAn=      0 IRanWt=     -1 IRanGd=            0 ICorTp=0 IEmpDi=  4
 NAtoms=    7 NActive=    7 NUniq=    7 SFac= 1.00D+00 NAtFMM=   60 NAOKFM=F Big=F
 Integral buffers will be    131072 words long.
 Raffenetti 2 integral format.
 Two-electron integral symmetry is turned on.
 Leave Link  301 at Mon Dec 16 15:19:10 2013, MaxMem=   436000000 cpu:         0.6
 (Enter /usr/local/gaussian/g09.d01.em64t.legacy.linda/g09/l302.exe)
 NPDir=0 NMtPBC=     1 NCelOv=     1 NCel=       1 NClECP=     1 NCelD=      1
         NCelK=      1 NCelE2=     1 NClLst=     1 CellRange=     0.0.
 One-electron integrals computed using PRISM.
 NBasis=    79 RedAO= T EigKep=  3.72D-03  NBF=    59    20
 NBsUse=    79 1.00D-06 EigRej= -1.00D+00 NBFU=    59    20
 Precomputing XC quadrature grid using
 IXCGrd= 4 IRadAn=           0 IRanWt=          -1 IRanGd=           0 AccXCQ= 0.00D+00.
 Generated NRdTot=       0 NPtTot=           0 NUsed=           0 NTot=          32
 NSgBfM=    79    79    79    79    79 MxSgAt=     7 MxSgA2=     7.
 Leave Link  302 at Mon Dec 16 15:19:10 2013, MaxMem=   436000000 cpu:         2.0
 (Enter /usr/local/gaussian/g09.d01.em64t.legacy.linda/g09/l303.exe)
 DipDrv:  MaxL=1.
 Leave Link  303 at Mon Dec 16 15:19:10 2013, MaxMem=   436000000 cpu:         0.2
 (Enter /usr/local/gaussian/g09.d01.em64t.legacy.linda/g09/l401.exe)
 Initial guess from the checkpoint file:  "/tmp/rdj3/g09-18029/Gau-31073.chk"
 B after Tr=     0.000000    0.000000    0.000000
         Rot=    1.000000    0.000000    0.000000    0.000051 Ang=   0.01 deg.
 Guess basis will be translated and rotated to current coordinates.
 JPrj=2 DoOrth=T DoCkMO=T.
 Initial guess orbital symmetries:
       Occupied  (A') (A') (A') (A') (A') (A') (A') (A') (A') (A')
                 (A') (A") (A') (A') (A") (A") (A') (A')
       Virtual   (A') (A') (A') (A') (A') (A') (A') (A') (A') (A')
                 (A') (A') (A') (A') (A') (A') (A') (A') (A') (A')
                 (A') (A') (A') (A') (A') (A') (A') (A') (A') (A')
                 (A') (A') (A') (A') (A') (A') (A') (A') (A') (A')
                 (A') (A') (A') (A') (A") (A") (A") (A") (A") (A")
                 (A") (A") (A") (A") (A") (A") (A") (A") (A") (A")
                 (A")
 The electronic state of the initial guess is 1-A'.
 Generating alternative initial guess.
 ExpMin= 1.61D-01 ExpMax= 4.17D+03 ExpMxC= 6.27D+02 IAcc=1 IRadAn=         1 AccDes= 0.00D+00
 Harris functional with IExCor= 1009 and IRadAn=       1 diagonalized for initial guess.
 HarFok:  IExCor= 1009 AccDes= 0.00D+00 IRadAn=         1 IDoV= 1 UseB2=F ITyADJ=14
 ICtDFT=  3500011 ScaDFX=  1.000000  1.000000  1.000000  1.000000
 FoFCou: FMM=F IPFlag=           0 FMFlag=      100000 FMFlg1=           0
         NFxFlg=           0 DoJE=T BraDBF=F KetDBF=T FulRan=T
         wScrn=  0.000000 ICntrl=     500 IOpCl=  0 I1Cent=   200000004 NGrid=           0
         NMat0=    1 NMatS0=      1 NMatT0=    0 NMatD0=    1 NMtDS0=    0 NMtDT0=    0
 Petite list used in FoFCou.
 Harris En= -257.966205445681    
 Leave Link  401 at Mon Dec 16 15:19:10 2013, MaxMem=   436000000 cpu:         2.2
 (Enter /usr/local/gaussian/g09.d01.em64t.legacy.linda/g09/l502.exe)
 Closed shell SCF:
 Using DIIS extrapolation, IDIIS=  1040.
 Integral symmetry usage will be decided dynamically.
 Keep R1 ints in memory in symmetry-blocked form, NReq=7698310.
 IVT=       38524 IEndB=       38524 NGot=   436000000 MDV=   433296150
 LenX=   433296150 LenY=   433289468
 Requested convergence on RMS density matrix=1.00D-08 within 128 cycles.
 Requested convergence on MAX density matrix=1.00D-06.
 Requested convergence on             energy=1.00D-06.
 No special actions if energy rises.
 FoFCou: FMM=F IPFlag=           0 FMFlag=           0 FMFlg1=           0
         NFxFlg=           0 DoJE=F BraDBF=F KetDBF=F FulRan=T
         wScrn=  0.000000 ICntrl=     600 IOpCl=  0 I1Cent=           0 NGrid=           0
         NMat0=    1 NMatS0=   3160 NMatT0=    0 NMatD0=    1 NMtDS0=    0 NMtDT0=    0
 Petite list used in FoFCou.
 Integral accuracy reduced to 1.0D-05 until final iterations.

 Cycle   1  Pass 0  IDiag  1:
 E= -257.969991602389    
 DIIS: error= 2.03D-03 at cycle   1 NSaved=   1.
 NSaved= 1 IEnMin= 1 EnMin= -257.969991602389     IErMin= 1 ErrMin= 2.03D-03
 ErrMax= 2.03D-03  0.00D+00 EMaxC= 1.00D-01 BMatC= 6.20D-04 BMatP= 6.20D-04
 IDIUse=3 WtCom= 9.80D-01 WtEn= 2.03D-02
 Coeff-Com:  0.100D+01
 Coeff-En:   0.100D+01
 Coeff:      0.100D+01
 Gap=     0.990 Goal=   None    Shift=    0.000
 GapD=    0.990 DampG=2.000 DampE=1.000 DampFc=2.0000 IDamp=-1.
 RMSDP=5.68D-04 MaxDP=7.27D-03              OVMax= 8.56D-03

 Cycle   2  Pass 0  IDiag  1:
 E= -257.970718987837     Delta-E=       -0.000727385448 Rises=F Damp=F
 DIIS: error= 8.74D-04 at cycle   2 NSaved=   2.
 NSaved= 2 IEnMin= 2 EnMin= -257.970718987837     IErMin= 2 ErrMin= 8.74D-04
 ErrMax= 8.74D-04  0.00D+00 EMaxC= 1.00D-01 BMatC= 1.09D-04 BMatP= 6.20D-04
 IDIUse=3 WtCom= 9.91D-01 WtEn= 8.74D-03
 Coeff-Com:  0.224D+00 0.776D+00
 Coeff-En:   0.000D+00 0.100D+01
 Coeff:      0.222D+00 0.778D+00
 Gap=     0.292 Goal=   None    Shift=    0.000
 RMSDP=2.34D-04 MaxDP=3.28D-03 DE=-7.27D-04 OVMax= 3.32D-03

 Cycle   3  Pass 0  IDiag  1:
 E= -257.970779568981     Delta-E=       -0.000060581144 Rises=F Damp=F
 DIIS: error= 7.24D-04 at cycle   3 NSaved=   3.
 NSaved= 3 IEnMin= 3 EnMin= -257.970779568981     IErMin= 3 ErrMin= 7.24D-04
 ErrMax= 7.24D-04  0.00D+00 EMaxC= 1.00D-01 BMatC= 4.52D-05 BMatP= 1.09D-04
 IDIUse=3 WtCom= 9.93D-01 WtEn= 7.24D-03
 Coeff-Com:  0.964D-02 0.384D+00 0.607D+00
 Coeff-En:   0.000D+00 0.252D+00 0.748D+00
 Coeff:      0.958D-02 0.383D+00 0.608D+00
 Gap=     0.293 Goal=   None    Shift=    0.000
 RMSDP=9.61D-05 MaxDP=2.04D-03 DE=-6.06D-05 OVMax= 3.03D-03

 Cycle   4  Pass 0  IDiag  1:
 E= -257.970808823698     Delta-E=       -0.000029254718 Rises=F Damp=F
 DIIS: error= 3.78D-04 at cycle   4 NSaved=   4.
 NSaved= 4 IEnMin= 4 EnMin= -257.970808823698     IErMin= 4 ErrMin= 3.78D-04
 ErrMax= 3.78D-04  0.00D+00 EMaxC= 1.00D-01 BMatC= 1.18D-05 BMatP= 4.52D-05
 IDIUse=3 WtCom= 9.96D-01 WtEn= 3.78D-03
 Coeff-Com: -0.158D-01 0.174D+00 0.397D+00 0.445D+00
 Coeff-En:   0.000D+00 0.000D+00 0.193D+00 0.807D+00
 Coeff:     -0.157D-01 0.173D+00 0.396D+00 0.447D+00
 Gap=     0.292 Goal=   None    Shift=    0.000
 RMSDP=4.36D-05 MaxDP=6.27D-04 DE=-2.93D-05 OVMax= 1.28D-03

 Cycle   5  Pass 0  IDiag  1:
 E= -257.970819092108     Delta-E=       -0.000010268410 Rises=F Damp=F
 DIIS: error= 7.12D-05 at cycle   5 NSaved=   5.
 NSaved= 5 IEnMin= 5 EnMin= -257.970819092108     IErMin= 5 ErrMin= 7.12D-05
 ErrMax= 7.12D-05  0.00D+00 EMaxC= 1.00D-01 BMatC= 3.08D-07 BMatP= 1.18D-05
 IDIUse=1 WtCom= 1.00D+00 WtEn= 0.00D+00
 Coeff-Com: -0.774D-02 0.534D-01 0.142D+00 0.212D+00 0.600D+00
 Coeff:     -0.774D-02 0.534D-01 0.142D+00 0.212D+00 0.600D+00
 Gap=     0.292 Goal=   None    Shift=    0.000
 RMSDP=8.46D-06 MaxDP=1.65D-04 DE=-1.03D-05 OVMax= 2.64D-04

 Initial convergence to 1.0D-05 achieved.  Increase integral accuracy.
 Cycle   6  Pass 1  IDiag  1:
 E= -257.970834960047     Delta-E=       -0.000015867938 Rises=F Damp=F
 DIIS: error= 4.82D-05 at cycle   1 NSaved=   1.
 NSaved= 1 IEnMin= 1 EnMin= -257.970834960047     IErMin= 1 ErrMin= 4.82D-05
 ErrMax= 4.82D-05  0.00D+00 EMaxC= 1.00D-01 BMatC= 1.01D-07 BMatP= 1.01D-07
 IDIUse=1 WtCom= 1.00D+00 WtEn= 0.00D+00
 Coeff-Com:  0.100D+01
 Coeff:      0.100D+01
 Gap=     0.292 Goal=   None    Shift=    0.000
 RMSDP=8.46D-06 MaxDP=1.65D-04 DE=-1.59D-05 OVMax= 3.51D-04

 Cycle   7  Pass 1  IDiag  1:
 E= -257.970834740397     Delta-E=        0.000000219650 Rises=F Damp=F
 DIIS: error= 9.31D-05 at cycle   2 NSaved=   2.
 NSaved= 2 IEnMin= 1 EnMin= -257.970834960047     IErMin= 1 ErrMin= 4.82D-05
 ErrMax= 9.31D-05  0.00D+00 EMaxC= 1.00D-01 BMatC= 3.64D-07 BMatP= 1.01D-07
 IDIUse=1 WtCom= 1.00D+00 WtEn= 0.00D+00
 Coeff-Com:  0.659D+00 0.341D+00
 Coeff:      0.659D+00 0.341D+00
 Gap=     0.292 Goal=   None    Shift=    0.000
 RMSDP=6.18D-06 MaxDP=1.50D-04 DE= 2.20D-07 OVMax= 2.37D-04

 Cycle   8  Pass 1  IDiag  1:
 E= -257.970835044620     Delta-E=       -0.000000304223 Rises=F Damp=F
 DIIS: error= 6.00D-06 at cycle   3 NSaved=   3.
 NSaved= 3 IEnMin= 3 EnMin= -257.970835044620     IErMin= 3 ErrMin= 6.00D-06
 ErrMax= 6.00D-06  0.00D+00 EMaxC= 1.00D-01 BMatC= 2.44D-09 BMatP= 1.01D-07
 IDIUse=1 WtCom= 1.00D+00 WtEn= 0.00D+00
 Coeff-Com:  0.262D+00 0.150D+00 0.588D+00
 Coeff:      0.262D+00 0.150D+00 0.588D+00
 Gap=     0.292 Goal=   None    Shift=    0.000
 RMSDP=8.69D-07 MaxDP=1.58D-05 DE=-3.04D-07 OVMax= 2.66D-05

 Cycle   9  Pass 1  IDiag  1:
 E= -257.970835046023     Delta-E=       -0.000000001403 Rises=F Damp=F
 DIIS: error= 3.71D-06 at cycle   4 NSaved=   4.
 NSaved= 4 IEnMin= 4 EnMin= -257.970835046023     IErMin= 4 ErrMin= 3.71D-06
 ErrMax= 3.71D-06  0.00D+00 EMaxC= 1.00D-01 BMatC= 9.05D-10 BMatP= 2.44D-09
 IDIUse=1 WtCom= 1.00D+00 WtEn= 0.00D+00
 Coeff-Com:  0.119D-01 0.138D-01 0.383D+00 0.591D+00
 Coeff:      0.119D-01 0.138D-01 0.383D+00 0.591D+00
 Gap=     0.292 Goal=   None    Shift=    0.000
 RMSDP=3.57D-07 MaxDP=7.90D-06 DE=-1.40D-09 OVMax= 1.22D-05

 Cycle  10  Pass 1  IDiag  1:
 E= -257.970835046773     Delta-E=       -0.000000000750 Rises=F Damp=F
 DIIS: error= 6.22D-07 at cycle   5 NSaved=   5.
 NSaved= 5 IEnMin= 5 EnMin= -257.970835046773     IErMin= 5 ErrMin= 6.22D-07
 ErrMax= 6.22D-07  0.00D+00 EMaxC= 1.00D-01 BMatC= 4.93D-11 BMatP= 9.05D-10
 IDIUse=1 WtCom= 1.00D+00 WtEn= 0.00D+00
 Coeff-Com: -0.133D-01-0.374D-02 0.165D+00 0.317D+00 0.535D+00
 Coeff:     -0.133D-01-0.374D-02 0.165D+00 0.317D+00 0.535D+00
 Gap=     0.292 Goal=   None    Shift=    0.000
 RMSDP=9.16D-08 MaxDP=1.81D-06 DE=-7.50D-10 OVMax= 2.63D-06

 Cycle  11  Pass 1  IDiag  1:
 E= -257.970835046812     Delta-E=       -0.000000000039 Rises=F Damp=F
 DIIS: error= 1.54D-07 at cycle   6 NSaved=   6.
 NSaved= 6 IEnMin= 6 EnMin= -257.970835046812     IErMin= 6 ErrMin= 1.54D-07
 ErrMax= 1.54D-07  0.00D+00 EMaxC= 1.00D-01 BMatC= 2.45D-12 BMatP= 4.93D-11
 IDIUse=1 WtCom= 1.00D+00 WtEn= 0.00D+00
 Coeff-Com: -0.713D-02-0.224D-02 0.712D-01 0.145D+00 0.286D+00 0.507D+00
 Coeff:     -0.713D-02-0.224D-02 0.712D-01 0.145D+00 0.286D+00 0.507D+00
 Gap=     0.292 Goal=   None    Shift=    0.000
 RMSDP=2.46D-08 MaxDP=3.22D-07 DE=-3.94D-11 OVMax= 6.03D-07

 Cycle  12  Pass 1  IDiag  1:
 E= -257.970835046815     Delta-E=       -0.000000000003 Rises=F Damp=F
 DIIS: error= 3.67D-08 at cycle   7 NSaved=   7.
 NSaved= 7 IEnMin= 7 EnMin= -257.970835046815     IErMin= 7 ErrMin= 3.67D-08
 ErrMax= 3.67D-08  0.00D+00 EMaxC= 1.00D-01 BMatC= 1.59D-13 BMatP= 2.45D-12
 IDIUse=1 WtCom= 1.00D+00 WtEn= 0.00D+00
 Coeff-Com: -0.669D-03-0.282D-03 0.476D-04 0.562D-02 0.235D-01 0.206D+00
 Coeff-Com:  0.766D+00
 Coeff:     -0.669D-03-0.282D-03 0.476D-04 0.562D-02 0.235D-01 0.206D+00
 Coeff:      0.766D+00
 Gap=     0.292 Goal=   None    Shift=    0.000
 RMSDP=6.09D-09 MaxDP=1.05D-07 DE=-2.56D-12 OVMax= 1.47D-07

 SCF Done:  E(RPBE1PBE) =  -257.970835047     A.U. after   12 cycles
            NFock= 12  Conv=0.61D-08     -V/T= 2.0081
 KE= 2.558950833517D+02 PE=-9.366646996834D+02 EE= 2.552697818175D+02
 Leave Link  502 at Mon Dec 16 15:19:11 2013, MaxMem=   436000000 cpu:         6.8
 (Enter /usr/local/gaussian/g09.d01.em64t.legacy.linda/g09/l701.exe)
 Compute integral first derivatives.
 ... and contract with generalized density number  0.
 Leave Link  701 at Mon Dec 16 15:19:12 2013, MaxMem=   436000000 cpu:         1.6
 (Enter /usr/local/gaussian/g09.d01.em64t.legacy.linda/g09/l702.exe)
 L702 exits ... SP integral derivatives will be done elsewhere.
 Leave Link  702 at Mon Dec 16 15:19:12 2013, MaxMem=   436000000 cpu:         0.2
 (Enter /usr/local/gaussian/g09.d01.em64t.legacy.linda/g09/l703.exe)
 Compute integral first derivatives, UseDBF=F ICtDFT=           0.
 Integral derivatives from FoFJK, PRISM(SPDF).
 Calling FoFJK, ICntrl=      2127 FMM=F ISym2X=1 I1Cent= 0 IOpClX= 0 NMat=1 NMatS=1 NMatT=0.
 FoFJK:  IHMeth= 1 ICntrl=    2127 DoSepK=F KAlg= 0 I1Cent=   0 FoldK=F
 IRaf=         0 NMat=   1 IRICut=       1 DoRegI=T DoRafI=F ISym2E= 1.
 FoFCou: FMM=F IPFlag=           0 FMFlag=      100000 FMFlg1=         800
         NFxFlg=           0 DoJE=F BraDBF=F KetDBF=F FulRan=T
         wScrn=  0.000000 ICntrl=    2127 IOpCl=  0 I1Cent=           0 NGrid=           0
         NMat0=    1 NMatS0=      1 NMatT0=    0 NMatD0=    1 NMtDS0=    0 NMtDT0=    0
 Petite list used in FoFCou.
 Leave Link  703 at Mon Dec 16 15:19:12 2013, MaxMem=   436000000 cpu:         3.7
 (Enter /usr/local/gaussian/g09.d01.em64t.legacy.linda/g09/l716.exe)
 Dipole        = 9.84604495D-01 1.88053489D+00 8.95538835D-33
 ***** Axes restored to original set *****
 -------------------------------------------------------------------
 Center     Atomic                   Forces (Hartrees/Bohr)
 Number     Number              X              Y              Z
 -------------------------------------------------------------------
      1        6           0.001588807   -0.003091188    0.000000000
      2        7           0.001067594    0.003607664    0.000000000
      3        7          -0.000004285   -0.007288472    0.000000000
      4        7          -0.000287058    0.006924987    0.000000000
      5        7          -0.001571818   -0.000272337    0.000000000
      6        1          -0.000678641   -0.000163635    0.000000000
      7        1          -0.000114598    0.000282981    0.000000000
 -------------------------------------------------------------------
 Cartesian Forces:  Max     0.007288472 RMS     0.002493036
 Leave Link  716 at Mon Dec 16 15:19:12 2013, MaxMem=   436000000 cpu:         0.2
 (Enter /usr/local/gaussian/g09.d01.em64t.legacy.linda/g09/l103.exe)

 GradGradGradGradGradGradGradGradGradGradGradGradGradGradGradGradGradGrad
 Berny optimization.
 Using GEDIIS/GDIIS optimizer.
 FormGI is forming the generalized inverse of G from B-inverse, IUseBI=4.
 Internal  Forces:  Max     0.005873059 RMS     0.001406553
 Search for a local minimum.
 Step number   2 out of a maximum of   36
 All quantities printed in internal units (Hartrees-Bohrs-Radians)
 RMS Force = .14066D-02 SwitMx=.10000D-02 MixMth= 1
 Mixed Optimization -- RFO/linear search
 Update second derivatives using D2CorX and points    1    2
 DE= -2.60D-03 DEPred=-2.54D-03 R= 1.02D+00
 TightC=F SS=  1.41D+00  RLast= 8.77D-02 DXNew= 5.0454D-01 2.6301D-01
 Trust test= 1.02D+00 RLast= 8.77D-02 DXMaxT set to 3.00D-01
 ITU=  1  0
 Use linear search instead of GDIIS.
     Eigenvalues ---    0.02505   0.02639   0.02674   0.02834   0.15998
     Eigenvalues ---    0.16001   0.22484   0.24689   0.37835   0.48936
     Eigenvalues ---    0.50843   0.56362   0.61648   0.67055   0.71665
 RFO step:  Lambda=-7.71300675D-05 EMin= 2.50541974D-02
 Quartic linear search produced a step of  0.05928.
 Iteration  1 RMS(Cart)=  0.00227089 RMS(Int)=  0.00000446
 Iteration  2 RMS(Cart)=  0.00000408 RMS(Int)=  0.00000176
 Iteration  3 RMS(Cart)=  0.00000000 RMS(Int)=  0.00000176
 ITry= 1 IFail=0 DXMaxC= 5.54D-03 DCOld= 1.00D+10 DXMaxT= 3.00D-01 DXLimC= 3.00D+00 Rises=F
 ClnCor:  largest displacement from symmetrization is 2.14D-12 for atom     1.
 Variable       Old X    -DE/DX   Delta X   Delta X   Delta X     New X
                                 (Linear)    (Quad)   (Total)
    R1        2.54103  -0.00231   0.00161  -0.00596  -0.00434   2.53668
    R2        2.47434   0.00144   0.00226   0.00022   0.00248   2.47682
    R3        2.04207  -0.00069   0.00144  -0.00287  -0.00144   2.04063
    R4        2.53337   0.00041   0.00162  -0.00040   0.00123   2.53460
    R5        1.90750  -0.00031   0.00171  -0.00180  -0.00008   1.90742
    R6        2.41524   0.00587   0.00292   0.00606   0.00898   2.42423
    R7        2.56228  -0.00083   0.00162  -0.00212  -0.00051   2.56178
    A1        1.89015   0.00012   0.00012  -0.00278  -0.00266   1.88749
    A2        2.18029  -0.00014  -0.00011   0.00087   0.00077   2.18106
    A3        2.21275   0.00002  -0.00002   0.00191   0.00189   2.21464
    A4        1.89124   0.00163   0.00036   0.00546   0.00583   1.89706
    A5        2.28947  -0.00081  -0.00005  -0.00274  -0.00279   2.28668
    A6        2.10248  -0.00082  -0.00031  -0.00272  -0.00303   2.09944
    A7        1.85447  -0.00141  -0.00045  -0.00387  -0.00431   1.85016
    A8        1.94674  -0.00118   0.00017  -0.00191  -0.00174   1.94500
    A9        1.84218   0.00084  -0.00022   0.00310   0.00288   1.84506
    D1        0.00000   0.00000   0.00000   0.00000   0.00000   0.00000
    D2        3.14159   0.00000   0.00000   0.00000   0.00000   3.14159
    D3        3.14159   0.00000   0.00000   0.00000   0.00000   3.14159
    D4        0.00000   0.00000   0.00000   0.00000   0.00000   0.00000
    D5        0.00000   0.00000   0.00000   0.00000   0.00000   0.00000
    D6        3.14159   0.00000   0.00000   0.00000   0.00000   3.14159
    D7        0.00000   0.00000   0.00000   0.00000   0.00000   0.00000
    D8        3.14159   0.00000   0.00000   0.00000   0.00000   3.14159
    D9        0.00000   0.00000   0.00000   0.00000   0.00000   0.00000
   D10        0.00000   0.00000   0.00000   0.00000   0.00000   0.00000
         Item               Value     Threshold  Converged?
 Maximum Force            0.005873     0.000450     NO 
 RMS     Force            0.001407     0.000300     NO 
 Maximum Displacement     0.005537     0.001800     NO 
 RMS     Displacement     0.002270     0.001200     NO 
 Predicted change in Energy=-4.577665D-05
 Lowest energy point so far.  Saving SCF results.
 GradGradGradGradGradGradGradGradGradGradGradGradGradGradGradGradGradGrad

 Leave Link  103 at Mon Dec 16 15:19:12 2013, MaxMem=   436000000 cpu:         0.1
 (Enter /usr/local/gaussian/g09.d01.em64t.legacy.linda/g09/l202.exe)
                          Input orientation:                          
 ---------------------------------------------------------------------
 Center     Atomic      Atomic             Coordinates (Angstroms)
 Number     Number       Type             X           Y           Z
 ---------------------------------------------------------------------
      1          6           0        1.008857    0.003780    0.000000
      2          7           0        0.387967   -1.186350    0.000000
      3          7           0       -0.937289   -0.979829    0.000000
      4          7           0       -1.096942    0.293043    0.000000
      5          7           0        0.093398    0.941759    0.000000
      6          1           0        2.079683    0.143133    0.000000
      7          1           0        0.756783   -2.125917    0.000000
 ---------------------------------------------------------------------
                    Distance matrix (angstroms):
                    1          2          3          4          5
     1  C    0.000000
     2  N    1.342354   0.000000
     3  N    2.180590   1.341251   0.000000
     4  N    2.125573   2.096082   1.282846   0.000000
     5  N    1.310675   2.148399   2.180554   1.355634   0.000000
     6  H    1.079856   2.151611   3.219187   3.180161   2.140825
     7  H    2.144563   1.009361   2.045335   3.047567   3.138585
                    6          7
     6  H    0.000000
     7  H    2.626529   0.000000
 Stoichiometry    CH2N4
 Framework group  CS[SG(CH2N4)]
 Deg. of freedom    11
 Full point group                 CS      NOp   2
 RotChk:  IX=0 Diff= 1.92D-03
 Largest Abelian subgroup         CS      NOp   2
 Largest concise Abelian subgroup C1      NOp   1
                         Standard orientation:                         
 ---------------------------------------------------------------------
 Center     Atomic      Atomic             Coordinates (Angstroms)
 Number     Number       Type             X           Y           Z
 ---------------------------------------------------------------------
      1          6           0        1.065415    0.232349    0.000000
      2          7           0        0.000000    1.048930    0.000000
      3          7           0       -1.114060    0.302053    0.000000
      4          7           0       -0.721223   -0.919164    0.000000
      5          7           0        0.631722   -1.004493    0.000000
      6          1           0        2.094916    0.558260    0.000000
      7          1           0       -0.062481    2.056356    0.000000
 ---------------------------------------------------------------------
 Rotational constants (GHZ):     10.6242632     10.4319852      5.2636231
 Leave Link  202 at Mon Dec 16 15:19:12 2013, MaxMem=   436000000 cpu:         0.0
 (Enter /usr/local/gaussian/g09.d01.em64t.legacy.linda/g09/l301.exe)
 Standard basis: 6-31G(d) (6D, 7F)
 Ernie: Thresh=  0.10000D-02 Tol=  0.10000D-05 Strict=F.
 There are    59 symmetry adapted cartesian basis functions of A'  symmetry.
 There are    20 symmetry adapted cartesian basis functions of A"  symmetry.
 There are    59 symmetry adapted basis functions of A'  symmetry.
 There are    20 symmetry adapted basis functions of A"  symmetry.
    79 basis functions,   148 primitive gaussians,    79 cartesian basis functions
    18 alpha electrons       18 beta electrons
       nuclear repulsion energy       167.4328341222 Hartrees.
 IExCor= 1009 DFT=T Ex+Corr=PBE1PBE ExCW=0 ScaHFX=  0.250000
 ScaDFX=  0.750000  0.750000  1.000000  1.000000 ScalE2=  1.000000  1.000000
 IRadAn=      0 IRanWt=     -1 IRanGd=            0 ICorTp=0 IEmpDi=  4
 NAtoms=    7 NActive=    7 NUniq=    7 SFac= 1.00D+00 NAtFMM=   60 NAOKFM=F Big=F
 Integral buffers will be    131072 words long.
 Raffenetti 2 integral format.
 Two-electron integral symmetry is turned on.
 Leave Link  301 at Mon Dec 16 15:19:12 2013, MaxMem=   436000000 cpu:         0.5
 (Enter /usr/local/gaussian/g09.d01.em64t.legacy.linda/g09/l302.exe)
 NPDir=0 NMtPBC=     1 NCelOv=     1 NCel=       1 NClECP=     1 NCelD=      1
         NCelK=      1 NCelE2=     1 NClLst=     1 CellRange=     0.0.
 One-electron integrals computed using PRISM.
 NBasis=    79 RedAO= T EigKep=  3.72D-03  NBF=    59    20
 NBsUse=    79 1.00D-06 EigRej= -1.00D+00 NBFU=    59    20
 Precomputing XC quadrature grid using
 IXCGrd= 4 IRadAn=           0 IRanWt=          -1 IRanGd=           0 AccXCQ= 0.00D+00.
 Generated NRdTot=       0 NPtTot=           0 NUsed=           0 NTot=          32
 NSgBfM=    79    79    79    79    79 MxSgAt=     7 MxSgA2=     7.
 Leave Link  302 at Mon Dec 16 15:19:12 2013, MaxMem=   436000000 cpu:         2.2
 (Enter /usr/local/gaussian/g09.d01.em64t.legacy.linda/g09/l303.exe)
 DipDrv:  MaxL=1.
 Leave Link  303 at Mon Dec 16 15:19:13 2013, MaxMem=   436000000 cpu:         0.2
 (Enter /usr/local/gaussian/g09.d01.em64t.legacy.linda/g09/l401.exe)
 Initial guess from the checkpoint file:  "/tmp/rdj3/g09-18029/Gau-31073.chk"
 B after Tr=     0.000000    0.000000    0.000000
         Rot=    1.000000    0.000000    0.000000   -0.000625 Ang=  -0.07 deg.
 Guess basis will be translated and rotated to current coordinates.
 JPrj=2 DoOrth=T DoCkMO=T.
 Initial guess orbital symmetries:
       Occupied  (A') (A') (A') (A') (A') (A') (A') (A') (A') (A')
                 (A') (A") (A') (A') (A") (A") (A') (A')
       Virtual   (A') (A') (A') (A') (A') (A') (A') (A') (A') (A')
                 (A') (A') (A') (A') (A') (A') (A') (A') (A') (A')
                 (A') (A') (A') (A') (A') (A') (A') (A') (A') (A')
                 (A') (A') (A') (A') (A') (A') (A') (A') (A') (A')
                 (A') (A') (A') (A') (A") (A") (A") (A") (A") (A")
                 (A") (A") (A") (A") (A") (A") (A") (A") (A") (A")
                 (A")
 The electronic state of the initial guess is 1-A'.
 Leave Link  401 at Mon Dec 16 15:19:13 2013, MaxMem=   436000000 cpu:         1.1
 (Enter /usr/local/gaussian/g09.d01.em64t.legacy.linda/g09/l502.exe)
 Closed shell SCF:
 Using DIIS extrapolation, IDIIS=  1040.
 Integral symmetry usage will be decided dynamically.
 Keep R1 ints in memory in symmetry-blocked form, NReq=7698310.
 IVT=       38524 IEndB=       38524 NGot=   436000000 MDV=   433296150
 LenX=   433296150 LenY=   433289468
 Requested convergence on RMS density matrix=1.00D-08 within 128 cycles.
 Requested convergence on MAX density matrix=1.00D-06.
 Requested convergence on             energy=1.00D-06.
 No special actions if energy rises.
 FoFCou: FMM=F IPFlag=           0 FMFlag=           0 FMFlg1=           0
         NFxFlg=           0 DoJE=F BraDBF=F KetDBF=F FulRan=T
         wScrn=  0.000000 ICntrl=     600 IOpCl=  0 I1Cent=           0 NGrid=           0
         NMat0=    1 NMatS0=   3160 NMatT0=    0 NMatD0=    1 NMtDS0=    0 NMtDT0=    0
 Petite list used in FoFCou.

 Cycle   1  Pass 1  IDiag  1:
 E= -257.970862926041    
 DIIS: error= 3.21D-04 at cycle   1 NSaved=   1.
 NSaved= 1 IEnMin= 1 EnMin= -257.970862926041     IErMin= 1 ErrMin= 3.21D-04
 ErrMax= 3.21D-04  0.00D+00 EMaxC= 1.00D-01 BMatC= 1.71D-05 BMatP= 1.71D-05
 IDIUse=3 WtCom= 9.97D-01 WtEn= 3.21D-03
 Coeff-Com:  0.100D+01
 Coeff-En:   0.100D+01
 Coeff:      0.100D+01
 Gap=     0.992 Goal=   None    Shift=    0.000
 RMSDP=9.80D-05 MaxDP=1.53D-03              OVMax= 1.77D-03

 Cycle   2  Pass 1  IDiag  1:
 E= -257.970889172632     Delta-E=       -0.000026246591 Rises=F Damp=F
 DIIS: error= 1.40D-04 at cycle   2 NSaved=   2.
 NSaved= 2 IEnMin= 2 EnMin= -257.970889172632     IErMin= 2 ErrMin= 1.40D-04
 ErrMax= 1.40D-04  0.00D+00 EMaxC= 1.00D-01 BMatC= 2.12D-06 BMatP= 1.71D-05
 IDIUse=3 WtCom= 9.99D-01 WtEn= 1.40D-03
 Coeff-Com:  0.132D+00 0.868D+00
 Coeff-En:   0.000D+00 0.100D+01
 Coeff:      0.132D+00 0.868D+00
 Gap=     0.292 Goal=   None    Shift=    0.000
 RMSDP=3.97D-05 MaxDP=4.61D-04 DE=-2.62D-05 OVMax= 1.17D-03

 Cycle   3  Pass 1  IDiag  1:
 E= -257.970887808330     Delta-E=        0.000001364302 Rises=F Damp=F
 DIIS: error= 2.12D-04 at cycle   3 NSaved=   3.
 NSaved= 3 IEnMin= 2 EnMin= -257.970889172632     IErMin= 2 ErrMin= 1.40D-04
 ErrMax= 2.12D-04  0.00D+00 EMaxC= 1.00D-01 BMatC= 3.73D-06 BMatP= 2.12D-06
 IDIUse=3 WtCom= 4.07D-01 WtEn= 5.93D-01
 Coeff-Com: -0.348D-01 0.585D+00 0.450D+00
 Coeff-En:   0.000D+00 0.609D+00 0.391D+00
 Coeff:     -0.142D-01 0.599D+00 0.415D+00
 Gap=     0.292 Goal=   None    Shift=    0.000
 RMSDP=2.36D-05 MaxDP=2.98D-04 DE= 1.36D-06 OVMax= 6.15D-04

 Cycle   4  Pass 1  IDiag  1:
 E= -257.970891227844     Delta-E=       -0.000003419513 Rises=F Damp=F
 DIIS: error= 2.13D-05 at cycle   4 NSaved=   4.
 NSaved= 4 IEnMin= 4 EnMin= -257.970891227844     IErMin= 4 ErrMin= 2.13D-05
 ErrMax= 2.13D-05  0.00D+00 EMaxC= 1.00D-01 BMatC= 3.73D-08 BMatP= 2.12D-06
 IDIUse=1 WtCom= 1.00D+00 WtEn= 0.00D+00
 Coeff-Com: -0.199D-01 0.186D+00 0.154D+00 0.679D+00
 Coeff:     -0.199D-01 0.186D+00 0.154D+00 0.679D+00
 Gap=     0.292 Goal=   None    Shift=    0.000
 RMSDP=3.20D-06 MaxDP=5.60D-05 DE=-3.42D-06 OVMax= 1.06D-04

 Cycle   5  Pass 1  IDiag  1:
 E= -257.970891249080     Delta-E=       -0.000000021236 Rises=F Damp=F
 DIIS: error= 1.91D-05 at cycle   5 NSaved=   5.
 NSaved= 5 IEnMin= 5 EnMin= -257.970891249080     IErMin= 5 ErrMin= 1.91D-05
 ErrMax= 1.91D-05  0.00D+00 EMaxC= 1.00D-01 BMatC= 1.60D-08 BMatP= 3.73D-08
 IDIUse=1 WtCom= 1.00D+00 WtEn= 0.00D+00
 Coeff-Com: -0.856D-02 0.681D-01 0.600D-01 0.421D+00 0.459D+00
 Coeff:     -0.856D-02 0.681D-01 0.600D-01 0.421D+00 0.459D+00
 Gap=     0.292 Goal=   None    Shift=    0.000
 RMSDP=1.73D-06 MaxDP=3.76D-05 DE=-2.12D-08 OVMax= 6.86D-05

 Cycle   6  Pass 1  IDiag  1:
 E= -257.970891262428     Delta-E=       -0.000000013348 Rises=F Damp=F
 DIIS: error= 4.22D-06 at cycle   6 NSaved=   6.
 NSaved= 6 IEnMin= 6 EnMin= -257.970891262428     IErMin= 6 ErrMin= 4.22D-06
 ErrMax= 4.22D-06  0.00D+00 EMaxC= 1.00D-01 BMatC= 1.47D-09 BMatP= 1.60D-08
 IDIUse=1 WtCom= 1.00D+00 WtEn= 0.00D+00
 Coeff-Com: -0.947D-03-0.301D-03 0.129D-02 0.106D+00 0.261D+00 0.633D+00
 Coeff:     -0.947D-03-0.301D-03 0.129D-02 0.106D+00 0.261D+00 0.633D+00
 Gap=     0.292 Goal=   None    Shift=    0.000
 RMSDP=5.10D-07 MaxDP=6.60D-06 DE=-1.33D-08 OVMax= 1.61D-05

 Cycle   7  Pass 1  IDiag  1:
 E= -257.970891263744     Delta-E=       -0.000000001316 Rises=F Damp=F
 DIIS: error= 1.15D-06 at cycle   7 NSaved=   7.
 NSaved= 7 IEnMin= 7 EnMin= -257.970891263744     IErMin= 7 ErrMin= 1.15D-06
 ErrMax= 1.15D-06  0.00D+00 EMaxC= 1.00D-01 BMatC= 8.23D-11 BMatP= 1.47D-09
 IDIUse=1 WtCom= 1.00D+00 WtEn= 0.00D+00
 Coeff-Com:  0.528D-03-0.739D-02-0.721D-02 0.164D-02 0.641D-01 0.245D+00
 Coeff-Com:  0.703D+00
 Coeff:      0.528D-03-0.739D-02-0.721D-02 0.164D-02 0.641D-01 0.245D+00
 Coeff:      0.703D+00
 Gap=     0.292 Goal=   None    Shift=    0.000
 RMSDP=1.56D-07 MaxDP=2.69D-06 DE=-1.32D-09 OVMax= 5.54D-06

 Cycle   8  Pass 1  IDiag  1:
 E= -257.970891263822     Delta-E=       -0.000000000077 Rises=F Damp=F
 DIIS: error= 4.44D-07 at cycle   8 NSaved=   8.
 NSaved= 8 IEnMin= 8 EnMin= -257.970891263822     IErMin= 8 ErrMin= 4.44D-07
 ErrMax= 4.44D-07  0.00D+00 EMaxC= 1.00D-01 BMatC= 1.80D-11 BMatP= 8.23D-11
 IDIUse=1 WtCom= 1.00D+00 WtEn= 0.00D+00
 Coeff-Com:  0.382D-03-0.446D-02-0.475D-02-0.819D-02 0.161D-01 0.850D-01
 Coeff-Com:  0.402D+00 0.514D+00
 Coeff:      0.382D-03-0.446D-02-0.475D-02-0.819D-02 0.161D-01 0.850D-01
 Coeff:      0.402D+00 0.514D+00
 Gap=     0.292 Goal=   None    Shift=    0.000
 RMSDP=4.42D-08 MaxDP=8.33D-07 DE=-7.74D-11 OVMax= 1.16D-06

 Cycle   9  Pass 1  IDiag  1:
 E= -257.970891263835     Delta-E=       -0.000000000013 Rises=F Damp=F
 DIIS: error= 9.31D-08 at cycle   9 NSaved=   9.
 NSaved= 9 IEnMin= 9 EnMin= -257.970891263835     IErMin= 9 ErrMin= 9.31D-08
 ErrMax= 9.31D-08  0.00D+00 EMaxC= 1.00D-01 BMatC= 7.65D-13 BMatP= 1.80D-11
 IDIUse=1 WtCom= 1.00D+00 WtEn= 0.00D+00
 Coeff-Com:  0.684D-04-0.528D-03-0.849D-03-0.295D-02-0.224D-02-0.567D-02
 Coeff-Com:  0.507D-01 0.168D+00 0.793D+00
 Coeff:      0.684D-04-0.528D-03-0.849D-03-0.295D-02-0.224D-02-0.567D-02
 Coeff:      0.507D-01 0.168D+00 0.793D+00
 Gap=     0.292 Goal=   None    Shift=    0.000
 RMSDP=1.28D-08 MaxDP=1.82D-07 DE=-1.28D-11 OVMax= 3.92D-07

 Cycle  10  Pass 1  IDiag  1:
 E= -257.970891263838     Delta-E=       -0.000000000003 Rises=F Damp=F
 DIIS: error= 4.43D-08 at cycle  10 NSaved=  10.
 NSaved=10 IEnMin=10 EnMin= -257.970891263838     IErMin=10 ErrMin= 4.43D-08
 ErrMax= 4.43D-08  0.00D+00 EMaxC= 1.00D-01 BMatC= 1.26D-13 BMatP= 7.65D-13
 IDIUse=1 WtCom= 1.00D+00 WtEn= 0.00D+00
 Coeff-Com:  0.141D-04-0.233D-04-0.186D-03-0.869D-03-0.140D-02-0.592D-02
 Coeff-Com:  0.885D-02 0.572D-01 0.410D+00 0.532D+00
 Coeff:      0.141D-04-0.233D-04-0.186D-03-0.869D-03-0.140D-02-0.592D-02
 Coeff:      0.885D-02 0.572D-01 0.410D+00 0.532D+00
 Gap=     0.292 Goal=   None    Shift=    0.000
 RMSDP=4.21D-09 MaxDP=8.09D-08 DE=-3.07D-12 OVMax= 1.36D-07

 SCF Done:  E(RPBE1PBE) =  -257.970891264     A.U. after   10 cycles
            NFock= 10  Conv=0.42D-08     -V/T= 2.0082
 KE= 2.558830259825D+02 PE=-9.364642846628D+02 EE= 2.551775332942D+02
 Leave Link  502 at Mon Dec 16 15:19:14 2013, MaxMem=   436000000 cpu:         7.3
 (Enter /usr/local/gaussian/g09.d01.em64t.legacy.linda/g09/l701.exe)
 Compute integral first derivatives.
 ... and contract with generalized density number  0.
 Leave Link  701 at Mon Dec 16 15:19:14 2013, MaxMem=   436000000 cpu:         1.3
 (Enter /usr/local/gaussian/g09.d01.em64t.legacy.linda/g09/l702.exe)
 L702 exits ... SP integral derivatives will be done elsewhere.
 Leave Link  702 at Mon Dec 16 15:19:14 2013, MaxMem=   436000000 cpu:         0.2
 (Enter /usr/local/gaussian/g09.d01.em64t.legacy.linda/g09/l703.exe)
 Compute integral first derivatives, UseDBF=F ICtDFT=           0.
 Integral derivatives from FoFJK, PRISM(SPDF).
 Calling FoFJK, ICntrl=      2127 FMM=F ISym2X=1 I1Cent= 0 IOpClX= 0 NMat=1 NMatS=1 NMatT=0.
 FoFJK:  IHMeth= 1 ICntrl=    2127 DoSepK=F KAlg= 0 I1Cent=   0 FoldK=F
 IRaf=         0 NMat=   1 IRICut=       1 DoRegI=T DoRafI=F ISym2E= 1.
 FoFCou: FMM=F IPFlag=           0 FMFlag=      100000 FMFlg1=         800
         NFxFlg=           0 DoJE=F BraDBF=F KetDBF=F FulRan=T
         wScrn=  0.000000 ICntrl=    2127 IOpCl=  0 I1Cent=           0 NGrid=           0
         NMat0=    1 NMatS0=      1 NMatT0=    0 NMatD0=    1 NMtDS0=    0 NMtDT0=    0
 Petite list used in FoFCou.
 Leave Link  703 at Mon Dec 16 15:19:14 2013, MaxMem=   436000000 cpu:         3.2
 (Enter /usr/local/gaussian/g09.d01.em64t.legacy.linda/g09/l716.exe)
 Dipole        = 9.86330042D-01 1.88295794D+00 1.00237191D-32
 ***** Axes restored to original set *****
 -------------------------------------------------------------------
 Center     Atomic                   Forces (Hartrees/Bohr)
 Number     Number              X              Y              Z
 -------------------------------------------------------------------
      1        6          -0.000486342   -0.001427736    0.000000000
      2        7          -0.000168193    0.000605313    0.000000000
      3        7           0.001235377   -0.002158338    0.000000000
      4        7           0.001488065    0.002875678    0.000000000
      5        7          -0.001830404   -0.000062288    0.000000000
      6        1          -0.000189483    0.000029791    0.000000000
      7        1          -0.000049021    0.000137579    0.000000000
 -------------------------------------------------------------------
 Cartesian Forces:  Max     0.002875678 RMS     0.001040844
 Leave Link  716 at Mon Dec 16 15:19:14 2013, MaxMem=   436000000 cpu:         0.2
 (Enter /usr/local/gaussian/g09.d01.em64t.legacy.linda/g09/l103.exe)

 GradGradGradGradGradGradGradGradGradGradGradGradGradGradGradGradGradGrad
 Berny optimization.
 Using GEDIIS/GDIIS optimizer.
 FormGI is forming the generalized inverse of G from B-inverse, IUseBI=4.
 Internal  Forces:  Max     0.002043147 RMS     0.000643892
 Search for a local minimum.
 Step number   3 out of a maximum of   36
 All quantities printed in internal units (Hartrees-Bohrs-Radians)
 RMS Force = .64389D-03 SwitMx=.10000D-02 MixMth= 2
 Mixed Optimization -- En-DIIS/RFO-DIIS
 Update second derivatives using D2CorX and points    1    2    3
 DE= -5.62D-05 DEPred=-4.58D-05 R= 1.23D+00
 TightC=F SS=  1.41D+00  RLast= 1.42D-02 DXNew= 5.0454D-01 4.2596D-02
 Trust test= 1.23D+00 RLast= 1.42D-02 DXMaxT set to 3.00D-01
 ITU=  1  1  0
 Use linear search instead of GDIIS.
     Eigenvalues ---    0.02505   0.02638   0.02674   0.02834   0.15999
     Eigenvalues ---    0.16016   0.23898   0.26357   0.36753   0.38479
     Eigenvalues ---    0.49255   0.52257   0.61975   0.67547   0.71454
 RFO step:  Lambda=-2.13756861D-05 EMin= 2.50530660D-02
 Quartic linear search produced a step of  0.28625.
 Iteration  1 RMS(Cart)=  0.00143373 RMS(Int)=  0.00000062
 Iteration  2 RMS(Cart)=  0.00000054 RMS(Int)=  0.00000034
 ITry= 1 IFail=0 DXMaxC= 3.77D-03 DCOld= 1.00D+10 DXMaxT= 3.00D-01 DXLimC= 3.00D+00 Rises=F
 ClnCor:  largest displacement from symmetrization is 3.92D-14 for atom     1.
 Variable       Old X    -DE/DX   Delta X   Delta X   Delta X     New X
                                 (Linear)    (Quad)   (Total)
    R1        2.53668  -0.00091  -0.00124  -0.00165  -0.00290   2.53378
    R2        2.47682   0.00064   0.00071   0.00123   0.00194   2.47876
    R3        2.04063  -0.00018  -0.00041  -0.00030  -0.00071   2.03992
    R4        2.53460  -0.00101   0.00035  -0.00192  -0.00157   2.53303
    R5        1.90742  -0.00015  -0.00002  -0.00010  -0.00013   1.90729
    R6        2.42423   0.00204   0.00257   0.00324   0.00582   2.43004
    R7        2.56178  -0.00191  -0.00014  -0.00389  -0.00404   2.55774
    A1        1.88749   0.00058  -0.00076   0.00253   0.00177   1.88925
    A2        2.18106  -0.00024   0.00022  -0.00086  -0.00064   2.18042
    A3        2.21464  -0.00034   0.00054  -0.00167  -0.00113   2.21351
    A4        1.89706  -0.00014   0.00167  -0.00155   0.00012   1.89718
    A5        2.28668   0.00007  -0.00080   0.00081   0.00001   2.28669
    A6        2.09944   0.00007  -0.00087   0.00075  -0.00012   2.09932
    A7        1.85016  -0.00013  -0.00123   0.00017  -0.00106   1.84910
    A8        1.94500  -0.00006  -0.00050   0.00068   0.00018   1.94518
    A9        1.84506  -0.00025   0.00082  -0.00183  -0.00100   1.84406
    D1        0.00000   0.00000   0.00000   0.00000   0.00000   0.00000
    D2        3.14159   0.00000   0.00000   0.00000   0.00000   3.14159
    D3        3.14159   0.00000   0.00000   0.00000   0.00000   3.14159
    D4        0.00000   0.00000   0.00000   0.00000   0.00000   0.00000
    D5        0.00000   0.00000   0.00000   0.00000   0.00000   0.00000
    D6        3.14159   0.00000   0.00000   0.00000   0.00000   3.14159
    D7        0.00000   0.00000   0.00000   0.00000   0.00000   0.00000
    D8        3.14159   0.00000   0.00000   0.00000   0.00000   3.14159
    D9        0.00000   0.00000   0.00000   0.00000   0.00000   0.00000
   D10        0.00000   0.00000   0.00000   0.00000   0.00000   0.00000
         Item               Value     Threshold  Converged?
 Maximum Force            0.002043     0.000450     NO 
 RMS     Force            0.000644     0.000300     NO 
 Maximum Displacement     0.003771     0.001800     NO 
 RMS     Displacement     0.001434     0.001200     NO 
 Predicted change in Energy=-1.347919D-05
 Lowest energy point so far.  Saving SCF results.
 GradGradGradGradGradGradGradGradGradGradGradGradGradGradGradGradGradGrad

 Leave Link  103 at Mon Dec 16 15:19:14 2013, MaxMem=   436000000 cpu:         0.0
 (Enter /usr/local/gaussian/g09.d01.em64t.legacy.linda/g09/l202.exe)
                          Input orientation:                          
 ---------------------------------------------------------------------
 Center     Atomic      Atomic             Coordinates (Angstroms)
 Number     Number       Type             X           Y           Z
 ---------------------------------------------------------------------
      1          6           0        1.007756    0.002813    0.000000
      2          7           0        0.388319   -1.186346    0.000000
      3          7           0       -0.936269   -0.980938    0.000000
      4          7           0       -1.095902    0.295038    0.000000
      5          7           0        0.092651    0.942570    0.000000
      6          1           0        2.078209    0.142104    0.000000
      7          1           0        0.757693   -2.125622    0.000000
 ---------------------------------------------------------------------
                    Distance matrix (angstroms):
                    1          2          3          4          5
     1  C    0.000000
     2  N    1.340821   0.000000
     3  N    2.178761   1.340421   0.000000
     4  N    2.123858   2.097001   1.285923   0.000000
[...]
      1  0.989156D+00
      2  0.189121D-01  0.646156D+00
      3  0.000000D+00  0.000000D+00  0.140649D+00
      4 -0.176037D+00 -0.863655D-01  0.000000D+00  0.619431D+00
      5 -0.115326D+00 -0.299885D+00  0.000000D+00 -0.110620D+00  0.103644D+01
      6  0.000000D+00  0.000000D+00 -0.626138D-01  0.000000D+00  0.000000D+00
      7 -0.935618D-01 -0.920627D-01  0.000000D+00 -0.258132D+00 -0.292647D-01
      8  0.482988D-02 -0.276168D-01  0.000000D+00  0.734770D-02 -0.108519D+00
      9  0.000000D+00  0.000000D+00  0.215253D-01  0.000000D+00  0.000000D+00
     10 -0.121121D+00  0.732462D-01  0.000000D+00 -0.796415D-01  0.355209D-01
     11 -0.321614D-01  0.295024D-01  0.000000D+00  0.116409D+00 -0.102421D+00
     12  0.000000D+00  0.000000D+00  0.197790D-01  0.000000D+00  0.000000D+00
     13 -0.247778D+00  0.143749D+00  0.000000D+00  0.170726D-01  0.910868D-01
     14  0.149570D+00 -0.280448D+00  0.000000D+00 -0.280460D-01 -0.103976D+00
     15  0.000000D+00  0.000000D+00 -0.803260D-01  0.000000D+00  0.000000D+00
     16 -0.367979D+00 -0.451126D-01  0.000000D+00 -0.217105D-02  0.258772D-02
     17 -0.409949D-01 -0.618705D-01  0.000000D+00 -0.325324D-01  0.259512D-02
     18  0.000000D+00  0.000000D+00 -0.293996D-01  0.000000D+00  0.000000D+00
     19  0.173207D-01 -0.123666D-01  0.000000D+00 -0.120522D+00  0.126016D+00
     20  0.151703D-01 -0.583792D-02  0.000000D+00  0.133807D+00 -0.424232D+00
     21  0.000000D+00  0.000000D+00 -0.961336D-02  0.000000D+00  0.000000D+00
                6             7             8             9            10 
      6  0.957823D-01
      7  0.000000D+00  0.490827D+00
      8  0.000000D+00  0.655237D-01  0.618065D+00
      9 -0.713112D-01  0.000000D+00  0.000000D+00  0.119365D+00
     10  0.000000D+00 -0.114415D+00  0.138512D-02  0.000000D+00  0.534205D+00
     11  0.000000D+00  0.632969D-01 -0.375320D+00  0.000000D+00 -0.929450D-01
     12  0.275743D-01  0.000000D+00  0.000000D+00 -0.100526D+00  0.000000D+00
     13  0.000000D+00 -0.266046D-01 -0.117012D+00  0.000000D+00 -0.205248D+00
     14  0.000000D+00 -0.661222D-02 -0.103310D+00  0.000000D+00 -0.193431D-01
     15  0.213683D-01  0.000000D+00  0.000000D+00  0.368700D-01  0.000000D+00
     16  0.000000D+00  0.316458D-03  0.210484D-02  0.000000D+00 -0.170348D-02
     17  0.000000D+00 -0.126595D-02 -0.696634D-02  0.000000D+00  0.656148D-02
     18 -0.318793D-02  0.000000D+00  0.000000D+00  0.647346D-02  0.000000D+00
     19  0.000000D+00  0.156974D-02  0.358205D-01  0.000000D+00 -0.120758D-01
     20  0.000000D+00  0.384943D-03  0.366676D-02  0.000000D+00 -0.442555D-02
     21 -0.761182D-02  0.000000D+00  0.000000D+00 -0.123963D-01  0.000000D+00
               11            12            13            14            15 
     11  0.566139D+00
     12  0.000000D+00  0.129212D+00
     13 -0.597900D-01  0.000000D+00  0.476722D+00
     14 -0.117263D+00  0.000000D+00 -0.815077D-01  0.597247D+00
     15  0.000000D+00 -0.933903D-01  0.000000D+00  0.000000D+00  0.113116D+00
     16  0.188577D-03  0.000000D+00 -0.116337D-01 -0.389256D-02  0.000000D+00
     17 -0.315819D-02  0.000000D+00  0.233701D-01  0.119100D-01  0.000000D+00
     18  0.000000D+00  0.915729D-02  0.000000D+00  0.000000D+00 -0.537838D-02
     19  0.500185D-02  0.000000D+00 -0.252960D-02 -0.101688D-01  0.000000D+00
     20  0.252021D-02  0.000000D+00  0.103307D-03 -0.416001D-02  0.000000D+00
     21  0.000000D+00  0.819439D-02  0.000000D+00  0.000000D+00  0.774031D-02
               16            17            18            19            20 
     16  0.383650D+00
     17  0.447103D-01  0.578211D-01
     18  0.000000D+00  0.000000D+00  0.231351D-01
     19 -0.479587D-03  0.151324D-03  0.000000D+00  0.116717D+00
     20 -0.586235D-03 -0.331219D-03  0.000000D+00 -0.144454D+00  0.428374D+00
     21  0.000000D+00  0.000000D+00 -0.799869D-03  0.000000D+00  0.000000D+00
               21 
     21  0.144866D-01
 FormGI is forming the generalized inverse of G from B-inverse, IUseBI=4.
 Force constants in internal coordinates: 
                1             2             3             4             5 
      1  0.429508D+00
      2  0.355943D-01  0.487589D+00
      3  0.290218D-02  0.628158D-02  0.389665D+00
      4  0.187102D-01  0.501425D-01  0.294865D-03  0.352802D+00
      5  0.358796D-03  0.627917D-03  0.415201D-03  0.357185D-02  0.485029D+00
      6  0.801227D-01  0.674990D-01 -0.276634D-02  0.473142D-01 -0.227267D-02
      7  0.406426D-01  0.373772D-01 -0.116333D-02  0.639248D-01 -0.314517D-02
      8 -0.305955D-01 -0.274378D-01 -0.765347D-02 -0.353687D-01  0.402908D-02
      9  0.306391D-01  0.111263D-02  0.519801D-02  0.116347D-01 -0.169469D-02
     10 -0.436320D-04  0.263252D-01  0.245546D-02  0.237340D-01 -0.233439D-02
     11 -0.372281D-01 -0.360954D-01  0.331819D-02 -0.144237D-01 -0.767005D-02
     12  0.253657D-01  0.154802D-01 -0.104522D-02 -0.441272D-02  0.420028D-02
     13  0.118624D-01  0.206151D-01 -0.227296D-02  0.188364D-01  0.346977D-02
     14 -0.342441D-01  0.144762D+00  0.112409D-02 -0.274087D-01  0.556034D-02
     15  0.132409D+00 -0.271752D-01 -0.144970D-02 -0.423081D-01 -0.184388D-02
     16 -0.303411D-01 -0.540540D-01  0.466090D-02  0.119509D+00 -0.754961D-04
     17  0.000000D+00  0.000000D+00  0.000000D+00  0.000000D+00  0.000000D+00
     18  0.000000D+00  0.000000D+00  0.000000D+00  0.000000D+00  0.000000D+00
     19  0.000000D+00  0.000000D+00  0.000000D+00  0.000000D+00  0.000000D+00
     20  0.000000D+00  0.000000D+00  0.000000D+00  0.000000D+00  0.000000D+00
     21  0.000000D+00  0.000000D+00  0.000000D+00  0.000000D+00  0.000000D+00
     22  0.000000D+00  0.000000D+00  0.000000D+00  0.000000D+00  0.000000D+00
     23  0.000000D+00  0.000000D+00  0.000000D+00  0.000000D+00  0.000000D+00
     24  0.000000D+00  0.000000D+00  0.000000D+00  0.000000D+00  0.000000D+00
     25  0.000000D+00  0.000000D+00  0.000000D+00  0.000000D+00  0.000000D+00
     26  0.000000D+00  0.000000D+00  0.000000D+00  0.000000D+00  0.000000D+00
                6             7             8             9            10 
      6  0.448759D+00
      7  0.427558D-01  0.304784D+00
      8  0.983150D-01 -0.154777D-01  0.129766D+00
      9 -0.479045D-01  0.101410D-01 -0.647225D-01  0.861936D-01
     10 -0.504104D-01  0.533667D-02 -0.650437D-01 -0.214711D-01  0.865148D-01
     11 -0.103998D-01  0.810755D-01 -0.655790D-01  0.350709D-01  0.305081D-01
     12  0.724913D-02 -0.397084D-01  0.348587D-01 -0.186787D-01 -0.161800D-01
     13  0.315065D-02 -0.413670D-01  0.307203D-01 -0.163922D-01 -0.143281D-01
     14 -0.327665D-01 -0.110661D-01  0.265581D-02 -0.907976D-02  0.642395D-02
     15 -0.559313D-01 -0.423569D-01  0.228575D-01 -0.263948D-02 -0.202180D-01
     16  0.782561D-03 -0.121749D-01 -0.897005D-01  0.413709D-01  0.483296D-01
     17  0.000000D+00  0.000000D+00  0.000000D+00  0.000000D+00  0.000000D+00
     18  0.000000D+00  0.000000D+00  0.000000D+00  0.000000D+00  0.000000D+00
     19  0.000000D+00  0.000000D+00  0.000000D+00  0.000000D+00  0.000000D+00
     20  0.000000D+00  0.000000D+00  0.000000D+00  0.000000D+00  0.000000D+00
     21  0.000000D+00  0.000000D+00  0.000000D+00  0.000000D+00  0.000000D+00
     22  0.000000D+00  0.000000D+00  0.000000D+00  0.000000D+00  0.000000D+00
     23  0.000000D+00  0.000000D+00  0.000000D+00  0.000000D+00  0.000000D+00
     24  0.000000D+00  0.000000D+00  0.000000D+00  0.000000D+00  0.000000D+00
     25  0.000000D+00  0.000000D+00  0.000000D+00  0.000000D+00  0.000000D+00
     26  0.000000D+00  0.000000D+00  0.000000D+00  0.000000D+00  0.000000D+00
               11            12            13            14            15 
     11  0.135458D+00
     12 -0.622865D-01  0.830401D-01
     13 -0.731716D-01 -0.207536D-01  0.939252D-01
     14 -0.109722D+00  0.455366D-01  0.641855D-01  0.210815D+00
     15  0.402583D-01 -0.754825D-02 -0.327100D-01 -0.156460D+00  0.243366D+00
     16 -0.415318D-03 -0.105605D-01  0.109758D-01  0.527113D-01 -0.150022D+00
     17  0.000000D+00  0.000000D+00  0.000000D+00  0.000000D+00  0.000000D+00
     18  0.000000D+00  0.000000D+00  0.000000D+00  0.000000D+00  0.000000D+00
     19  0.000000D+00  0.000000D+00  0.000000D+00  0.000000D+00  0.000000D+00
     20  0.000000D+00  0.000000D+00  0.000000D+00  0.000000D+00  0.000000D+00
     21  0.000000D+00  0.000000D+00  0.000000D+00  0.000000D+00  0.000000D+00
     22  0.000000D+00  0.000000D+00  0.000000D+00  0.000000D+00  0.000000D+00
     23  0.000000D+00  0.000000D+00  0.000000D+00  0.000000D+00  0.000000D+00
     24  0.000000D+00  0.000000D+00  0.000000D+00  0.000000D+00  0.000000D+00
     25  0.000000D+00  0.000000D+00  0.000000D+00  0.000000D+00  0.000000D+00
     26  0.000000D+00  0.000000D+00  0.000000D+00  0.000000D+00  0.000000D+00
               16            17            18            19            20 
     16  0.187427D+00
     17  0.000000D+00  0.258848D-01
     18  0.000000D+00  0.106449D-01  0.114821D-01
     19  0.000000D+00  0.833256D-02 -0.282440D-02  0.137325D-01
     20  0.000000D+00 -0.690740D-02 -0.198719D-02  0.257555D-02  0.749576D-02
     21  0.000000D+00 -0.208089D-01 -0.122798D-01 -0.276456D-02  0.576455D-02
     22  0.000000D+00 -0.284273D-02  0.150710D-02 -0.829185D-02 -0.394202D-02
     23  0.000000D+00 -0.199679D-01 -0.429335D-02 -0.105689D-01  0.510566D-02
     24  0.000000D+00 -0.664614D-02 -0.502518D-02 -0.816223D-03  0.804732D-03
     25  0.000000D+00  0.700015D-02 -0.352422D-02  0.902047D-02 -0.150389D-02
     26  0.000000D+00  0.870136D-02  0.100430D-01 -0.403118D-02 -0.268958D-02
               21            22            23            24            25 
     21  0.254201D-01
     22  0.695026D-02  0.125279D-01
     23  0.690307D-02 -0.271757D-02  0.250343D-01
     24 -0.552520D-03 -0.651991D-02  0.113326D-01  0.991563D-02
     25  0.932362D-02  0.725566D-02 -0.211379D-01 -0.119382D-01  0.276110D-01
     26 -0.220901D-01 -0.905731D-02  0.917712D-02  0.800438D-02 -0.236124D-01
               26 
     26  0.291407D-01
 Leave Link  716 at Mon Dec 16 15:19:26 2013, MaxMem=   436000000 cpu:         0.2
 (Enter /usr/local/gaussian/g09.d01.em64t.legacy.linda/g09/l103.exe)

 GradGradGradGradGradGradGradGradGradGradGradGradGradGradGradGradGradGrad
 Berny optimization.
 Red2BG is reusing G-inverse.
 Internal  Forces:  Max     0.000351242 RMS     0.000107966
 Search for a local minimum.
 Step number   1 out of a maximum of    2
 All quantities printed in internal units (Hartrees-Bohrs-Radians)
 Second derivative matrix not updated -- analytic derivatives used.
 ITU=  0
     Eigenvalues ---    0.00859   0.02552   0.07391   0.08022   0.10367
     Eigenvalues ---    0.10774   0.21579   0.27079   0.36907   0.38856
     Eigenvalues ---    0.45790   0.48361   0.49919   0.60261   0.65570
 Angle between quadratic step and forces=  19.22 degrees.
 Linear search not attempted -- first point.
 Iteration  1 RMS(Cart)=  0.00023920 RMS(Int)=  0.00000004
 Iteration  2 RMS(Cart)=  0.00000003 RMS(Int)=  0.00000001
 ITry= 1 IFail=0 DXMaxC= 6.13D-04 DCOld= 1.00D+10 DXMaxT= 3.00D-01 DXLimC= 3.00D+00 Rises=F
 ClnCor:  largest displacement from symmetrization is 1.70D-12 for atom     4.
 Variable       Old X    -DE/DX   Delta X   Delta X   Delta X     New X
                                 (Linear)    (Quad)   (Total)
    R1        2.53352   0.00019   0.00000   0.00049   0.00049   2.53401
    R2        2.47885   0.00004   0.00000   0.00015   0.00015   2.47900
    R3        2.04019  -0.00001   0.00000  -0.00005  -0.00005   2.04014
    R4        2.53233  -0.00022   0.00000  -0.00051  -0.00051   2.53182
    R5        1.90715   0.00001   0.00000   0.00001   0.00001   1.90716
    R6        2.43013  -0.00020   0.00000  -0.00029  -0.00029   2.42984
    R7        2.55581  -0.00035   0.00000  -0.00099  -0.00099   2.55483
    A1        1.88748  -0.00005   0.00000  -0.00027  -0.00027   1.88721
    A2        2.18177   0.00005   0.00000   0.00032   0.00032   2.18209
    A3        2.21393   0.00000   0.00000  -0.00005  -0.00005   2.21388
    A4        1.89835  -0.00012   0.00000  -0.00021  -0.00021   1.89814
    A5        2.28589   0.00005   0.00000  -0.00004  -0.00004   2.28586
    A6        2.09894   0.00007   0.00000   0.00025   0.00025   2.09919
    A7        1.84852   0.00008   0.00000   0.00017   0.00017   1.84869
    A8        1.94496   0.00013   0.00000   0.00021   0.00021   1.94517
    A9        1.84547  -0.00004   0.00000   0.00010   0.00010   1.84556
    D1        0.00000   0.00000   0.00000   0.00000   0.00000   0.00000
    D2        3.14159   0.00000   0.00000   0.00000   0.00000   3.14159
    D3        3.14159   0.00000   0.00000   0.00000   0.00000   3.14159
    D4        0.00000   0.00000   0.00000   0.00000   0.00000   0.00000
    D5        0.00000   0.00000   0.00000   0.00000   0.00000   0.00000
    D6        3.14159   0.00000   0.00000   0.00000   0.00000   3.14159
    D7        0.00000   0.00000   0.00000   0.00000   0.00000   0.00000
    D8        3.14159   0.00000   0.00000   0.00000   0.00000   3.14159
    D9        0.00000   0.00000   0.00000   0.00000   0.00000   0.00000
   D10        0.00000   0.00000   0.00000   0.00000   0.00000   0.00000
         Item               Value     Threshold  Converged?
 Maximum Force            0.000351     0.000450     YES
 RMS     Force            0.000108     0.000300     YES
 Maximum Displacement     0.000613     0.001800     YES
 RMS     Displacement     0.000239     0.001200     YES
 Predicted change in Energy=-3.637985D-07
 Optimization completed.
    -- Stationary point found.
                           ----------------------------
                           !   Optimized Parameters   !
                           ! (Angstroms and Degrees)  !
 --------------------------                            --------------------------
 ! Name  Definition              Value          Derivative Info.                !
 --------------------------------------------------------------------------------
 ! R1    R(1,2)                  1.3407         -DE/DX =    0.0002              !
 ! R2    R(1,5)                  1.3118         -DE/DX =    0.0                 !
 ! R3    R(1,6)                  1.0796         -DE/DX =    0.0                 !
 ! R4    R(2,3)                  1.3401         -DE/DX =   -0.0002              !
 ! R5    R(2,7)                  1.0092         -DE/DX =    0.0                 !
 ! R6    R(3,4)                  1.286          -DE/DX =   -0.0002              !
 ! R7    R(4,5)                  1.3525         -DE/DX =   -0.0004              !
 ! A1    A(2,1,5)              108.1447         -DE/DX =    0.0                 !
 ! A2    A(2,1,6)              125.0063         -DE/DX =    0.0001              !
 ! A3    A(5,1,6)              126.849          -DE/DX =    0.0                 !
 ! A4    A(1,2,3)              108.7676         -DE/DX =   -0.0001              !
 ! A5    A(1,2,7)              130.9721         -DE/DX =    0.0                 !
 ! A6    A(3,2,7)              120.2604         -DE/DX =    0.0001              !
 ! A7    A(2,3,4)              105.9124         -DE/DX =    0.0001              !
 ! A8    A(3,4,5)              111.4379         -DE/DX =    0.0001              !
 ! A9    A(1,5,4)              105.7374         -DE/DX =    0.0                 !
 ! D1    D(5,1,2,3)              0.0            -DE/DX =    0.0                 !
 ! D2    D(5,1,2,7)            180.0            -DE/DX =    0.0                 !
 ! D3    D(6,1,2,3)            180.0            -DE/DX =    0.0                 !
 ! D4    D(6,1,2,7)              0.0            -DE/DX =    0.0                 !
 ! D5    D(2,1,5,4)              0.0            -DE/DX =    0.0                 !
 ! D6    D(6,1,5,4)            180.0            -DE/DX =    0.0                 !
 ! D7    D(1,2,3,4)              0.0            -DE/DX =    0.0                 !
 ! D8    D(7,2,3,4)            180.0            -DE/DX =    0.0                 !
 ! D9    D(2,3,4,5)              0.0            -DE/DX =    0.0                 !
 ! D10   D(3,4,5,1)              0.0            -DE/DX =    0.0                 !
 --------------------------------------------------------------------------------
 GradGradGradGradGradGradGradGradGradGradGradGradGradGradGradGradGradGrad

 Leave Link  103 at Mon Dec 16 15:19:26 2013, MaxMem=   436000000 cpu:         0.1
 (Enter /usr/local/gaussian/g09.d01.em64t.legacy.linda/g09/l9999.exe)
 1\1\GINC-N963\Freq\RPBE1PBE\6-31G(d)\C1H2N4\RDJ3\16-Dec-2013\0\\#P Geo
 m=AllCheck Guess=TCheck SCRF=Check GenChk RPBE1PBE/6-31G(d) Freq\\1H-t
 etrazole CH2N4 casno=288948 state=1 config=1 method=54 basis=3\\0,1\C,
 1.0082793143,0.0026212588,0.\N,0.3879402499,-1.1859091711,0.\N,-0.9363
 581657,-0.9810346464,0.\N,-1.0957114893,0.2950250982,0.\N,0.0922372778
 ,0.9415362845,0.\H,2.0788027195,0.1425043497,0.\H,0.7572668814,-2.1251
 245277,0.\\Version=EM64L-G09RevD.01\State=1-A'\HF=-257.9709065\RMSD=7.
 180e-10\RMSF=1.692e-04\ZeroPoint=0.0479409\Thermal=0.0513681\Dipole=1.
 692136,-1.2908059,0.\DipoleDeriv=0.1987205,0.0585524,0.,-0.0868945,0.4
 31399,0.,0.,0.,0.1019961,-0.2230816,0.289629,0.,0.1910381,-0.3361715,0
 .,0.,0.,-0.1648763,0.096288,-0.3699423,0.,-0.3300116,-0.1812285,0.,0.,
 0.,-0.0957073,0.0365731,0.162789,0.,0.2151967,0.0012584,0.,0.,0.,-0.15
 56766,-0.3743864,-0.1235042,0.,0.0131853,-0.3148884,0.,0.,0.,-0.207855
 3,0.0543432,0.0088279,0.,0.0084084,0.1192234,0.,0.,0.,0.1668188,0.2115
 432,-0.0263519,0.,-0.0109225,0.2804076,0.,0.,0.,0.3553006\Polar=37.818
 902,-0.3820058,35.9937042,0.,0.,15.6220962\PG=CS [SG(C1H2N4)]\NImag=0\
 \0.98915643,0.01891211,0.64615647,0.,0.,0.14064862,-0.17603671,-0.0863
 6552,0.,0.61943094,-0.11532637,-0.29988521,0.,-0.11062004,1.03643828,0
 .,0.,-0.06261382,0.,0.,0.09578228,-0.09356180,-0.09206267,0.,-0.258132
 44,-0.02926467,0.,0.49082732,0.00482988,-0.02761684,0.,0.00734770,-0.1
 0851894,0.,0.06552369,0.61806511,0.,0.,0.02152526,0.,0.,-0.07131122,0.
 ,0.,0.11936511,-0.12112141,0.07324616,0.,-0.07964146,0.03552088,0.,-0.
 11441471,0.00138512,0.,0.53420503,-0.03216145,0.02950242,0.,0.11640912
 ,-0.10242101,0.,0.06329688,-0.37531978,0.,-0.09294501,0.56613896,0.,0.
 ,0.01977898,0.,0.,0.02757426,0.,0.,-0.10052635,0.,0.,0.12921175,-0.247
 77832,0.14374918,0.,0.01707261,0.09108677,0.,-0.02660456,-0.11701168,0
 .,-0.20524813,-0.05978998,0.,0.47672169,0.14957038,-0.28044845,0.,-0.0
 2804601,-0.10397624,0.,-0.00661222,-0.10330998,0.,-0.01934308,-0.11726
 262,0.,-0.08150772,0.59724734,0.,0.,-0.08032604,0.,0.,0.02136825,0.,0.
 ,0.03687004,0.,0.,-0.09339032,0.,0.,0.11311613,-0.36797885,-0.04511263
 ,0.,-0.00217105,0.00258772,0.,0.00031646,0.00210484,0.,-0.00170348,0.0
 0018858,0.,-0.01163369,-0.00389256,0.,0.38365019,-0.04099490,-0.061870
 46,0.,-0.03253235,0.00259512,0.,-0.00126595,-0.00696634,0.,0.00656148,
 -0.00315819,0.,0.02337012,0.01190995,0.,0.04471028,0.05782113,0.,0.,-0
 .02939963,0.,0.,-0.00318793,0.,0.,0.00647346,0.,0.,0.00915729,0.,0.,-0
 .00537838,0.,0.,0.02313506,0.01732065,-0.01236663,0.,-0.12052189,0.126
 01570,0.,0.00156974,0.03582045,0.,-0.01207585,0.00500185,0.,-0.0025296
 0,-0.01016879,0.,-0.00047959,0.00015132,0.,0.11671653,0.01517034,-0.00
 583792,0.,0.13380711,-0.42423202,0.,0.00038494,0.00366676,0.,-0.004425
 55,0.00252021,0.,0.00010331,-0.00416001,0.,-0.00058623,-0.00033122,0.,
 -0.14445392,0.42837420,0.,0.,-0.00961336,0.,0.,-0.00761182,0.,0.,-0.01
 239630,0.,0.,0.00819439,0.,0.,0.00774031,0.,0.,-0.00079987,0.,0.,0.014
 48664\\-0.00011044,-0.00013557,0.,0.00031133,0.00025068,0.,-0.00019348
 ,-0.00026416,0.,-0.00038260,0.00009054,0.,0.00037479,0.00008528,0.,0.0
 0001889,-0.00002850,0.,-0.00001849,0.00000174,0.\\\@


 ... FOR AFTERWARDS A MAN FINDS PLEASURE IN HIS PAINS,
 WHEN HE HAS SUFFERED LONG AND WANDERED FAR.

                                    -- HOMER
 Job cpu time:       0 days  0 hours  0 minutes 50.8 seconds.
 File lengths (MBytes):  RWF=     10 Int=      0 D2E=      0 Chk=      2 Scr=      1
 Normal termination of Gaussian 09 at Mon Dec 16 15:19:26 2013.
