 Entering Gaussian System, Link 0=g09
 Initial command:
 /usr/local/gaussian/g09.d01.em64t.legacy.linda/g09/l1.exe "/tmp/rdj3/g09-18029/Gau-3669.inp" -scrdir="/tmp/rdj3/g09-18029/"
 Entering Link 1 = /usr/local/gaussian/g09.d01.em64t.legacy.linda/g09/l1.exe PID=      3670.
  
 Copyright (c) 1988,1990,1992,1993,1995,1998,2003,2009,2013,
            Gaussian, Inc.  All Rights Reserved.
  
 This is part of the Gaussian(R) 09 program.  It is based on
 the Gaussian(R) 03 system (copyright 2003, Gaussian, Inc.),
 the Gaussian(R) 98 system (copyright 1998, Gaussian, Inc.),
 the Gaussian(R) 94 system (copyright 1995, Gaussian, Inc.),
 the Gaussian 92(TM) system (copyright 1992, Gaussian, Inc.),
 the Gaussian 90(TM) system (copyright 1990, Gaussian, Inc.),
 the Gaussian 88(TM) system (copyright 1988, Gaussian, Inc.),
 the Gaussian 86(TM) system (copyright 1986, Carnegie Mellon
 University), and the Gaussian 82(TM) system (copyright 1983,
 Carnegie Mellon University). Gaussian is a federally registered
 trademark of Gaussian, Inc.
  
 This software contains proprietary and confidential information,
 including trade secrets, belonging to Gaussian, Inc.
  
 This software is provided under written license and may be
 used, copied, transmitted, or stored only in accord with that
 written license.
  
 The following legend is applicable only to US Government
 contracts under FAR:
  
                    RESTRICTED RIGHTS LEGEND
  
 Use, reproduction and disclosure by the US Government is
 subject to restrictions as set forth in subparagraphs (a)
 and (c) of the Commercial Computer Software - Restricted
 Rights clause in FAR 52.227-19.
  
 Gaussian, Inc.
 340 Quinnipiac St., Bldg. 40, Wallingford CT 06492
  
  
 ---------------------------------------------------------------
 Warning -- This program may not be used in any manner that
 competes with the business of Gaussian, Inc. or will provide
 assistance to any competitor of Gaussian, Inc.  The licensee
 of this program is prohibited from giving any competitor of
 Gaussian, Inc. access to this program.  By using this program,
 the user acknowledges that Gaussian, Inc. is engaged in the
 business of creating and licensing software in the field of
 computational chemistry and represents and warrants to the
 licensee that it is not a competitor of Gaussian, Inc. and that
 it will not use this program in any manner prohibited above.
 ---------------------------------------------------------------
  

 Cite this work as:
 Gaussian 09, Revision D.01,
 M. J. Frisch, G. W. Trucks, H. B. Schlegel, G. E. Scuseria, 
 M. A. Robb, J. R. Cheeseman, G. Scalmani, V. Barone, B. Mennucci, 
 G. A. Petersson, H. Nakatsuji, M. Caricato, X. Li, H. P. Hratchian, 
 A. F. Izmaylov, J. Bloino, G. Zheng, J. L. Sonnenberg, M. Hada, 
 M. Ehara, K. Toyota, R. Fukuda, J. Hasegawa, M. Ishida, T. Nakajima, 
 Y. Honda, O. Kitao, H. Nakai, T. Vreven, J. A. Montgomery, Jr., 
 J. E. Peralta, F. Ogliaro, M. Bearpark, J. J. Heyd, E. Brothers, 
 K. N. Kudin, V. N. Staroverov, T. Keith, R. Kobayashi, J. Normand, 
 K. Raghavachari, A. Rendell, J. C. Burant, S. S. Iyengar, J. Tomasi, 
 M. Cossi, N. Rega, J. M. Millam, M. Klene, J. E. Knox, J. B. Cross, 
 V. Bakken, C. Adamo, J. Jaramillo, R. Gomperts, R. E. Stratmann, 
 O. Yazyev, A. J. Austin, R. Cammi, C. Pomelli, J. W. Ochterski, 
 R. L. Martin, K. Morokuma, V. G. Zakrzewski, G. A. Voth, 
 P. Salvador, J. J. Dannenberg, S. Dapprich, A. D. Daniels, 
 O. Farkas, J. B. Foresman, J. V. Ortiz, J. Cioslowski, 
 and D. J. Fox, Gaussian, Inc., Wallingford CT, 2013.
 
 ******************************************
 Gaussian 09:  EM64L-G09RevD.01 24-Apr-2013
                16-Dec-2013 
 ******************************************
 %Nproc=8
 Will use up to    8 processors via shared memory.
 %mem=436000000
 ----------------------
 #B1B95/STO-3G opt freq
 ----------------------
 1/14=-1,18=20,19=15,26=3,38=1/1,3;
 2/9=110,12=2,17=6,18=5,40=1/2;
 3/6=3,11=2,16=1,25=1,30=1,71=1,74=-17/1,2,3;
 4//1;
 5/5=2,38=5/2;
 6/7=2,8=2,9=2,10=2,28=1/1;
 7//1,2,3,16;
 1/14=-1,18=20,19=15,26=3/3(2);
 2/9=110/2;
 99//99;
 2/9=110/2;
 3/6=3,11=2,16=1,25=1,30=1,71=1,74=-17/1,2,3;
 4/5=5,16=3,69=1/1;
 5/5=2,38=5/2;
 7//1,2,3,16;
 1/14=-1,18=20,19=15,26=3/3(-5);
 2/9=110/2;
 6/7=2,8=2,9=2,10=2,19=2,28=1/1;
 99/9=1/99;
 -------------------------------------------------------------------
 1H-tetrazole CH2N4 casno=288948 state=1 config=1 method=55 basis=20
 -------------------------------------------------------------------
 Symbolic Z-matrix:
 Charge =  0 Multiplicity = 1
 X
 X                    1     1. 
 C                    1     1.       2     90. 
 N                    1    rn1      2     90.      3    an1      0
 N                    1    rn2      2     90.      3    an2      0
 N                    1    rn3      2     90.      3    an3      0
 N                    1    rn4      2     90.      3    an4      0
 H                    3    rch      4    ach      5     180.     0
 H                    4    rnh      5    anh      6     180.     0
       Variables:
  rn1                   1.2426                   
  rn2                   1.333                    
  rn3                   1.1146                   
  rn4                   0.9264                   
  rch                   1.0678                   
  rnh                   0.9941                   
  an1                  71.8427                   
  an2                 133.7028                   
  an3                 194.4597                   
  an4                 276.0768                   
  ach                 125.0248                   
  anh                 120.7626                   
 

 GradGradGradGradGradGradGradGradGradGradGradGradGradGradGradGradGradGrad
 Berny optimization.
 Initialization pass.
                           ----------------------------
                           !    Initial Parameters    !
                           ! (Angstroms and Degrees)  !
 --------------------------                            --------------------------
 ! Name  Definition              Value          Derivative Info.                !
 --------------------------------------------------------------------------------
 ! R1    R(1,2)                  1.3303         estimate D2E/DX2                !
 ! R2    R(1,5)                  1.2892         estimate D2E/DX2                !
 ! R3    R(1,6)                  1.0678         estimate D2E/DX2                !
 ! R4    R(2,3)                  1.3261         estimate D2E/DX2                !
 ! R5    R(2,7)                  0.9941         estimate D2E/DX2                !
 ! R6    R(3,4)                  1.252          estimate D2E/DX2                !
 ! R7    R(4,5)                  1.3414         estimate D2E/DX2                !
 ! A1    A(2,1,5)              108.177          estimate D2E/DX2                !
 ! A2    A(2,1,6)              125.0248         estimate D2E/DX2                !
 ! A3    A(5,1,6)              126.7982         estimate D2E/DX2                !
 ! A4    A(1,2,3)              108.008          estimate D2E/DX2                !
 ! A5    A(1,2,7)              131.2294         estimate D2E/DX2                !
 ! A6    A(3,2,7)              120.7626         estimate D2E/DX2                !
 ! A7    A(2,3,4)              106.684          estimate D2E/DX2                !
 ! A8    A(3,4,5)              111.3724         estimate D2E/DX2                !
 ! A9    A(1,5,4)              105.7586         estimate D2E/DX2                !
 ! D1    D(5,1,2,3)              0.0            estimate D2E/DX2                !
 ! D2    D(5,1,2,7)            180.0            estimate D2E/DX2                !
 ! D3    D(6,1,2,3)            180.0            estimate D2E/DX2                !
 ! D4    D(6,1,2,7)              0.0            estimate D2E/DX2                !
 ! D5    D(2,1,5,4)              0.0            estimate D2E/DX2                !
 ! D6    D(6,1,5,4)            180.0            estimate D2E/DX2                !
 ! D7    D(1,2,3,4)              0.0            estimate D2E/DX2                !
 ! D8    D(7,2,3,4)            180.0            estimate D2E/DX2                !
 ! D9    D(2,3,4,5)              0.0            estimate D2E/DX2                !
 ! D10   D(3,4,5,1)              0.0            estimate D2E/DX2                !
 --------------------------------------------------------------------------------
 Trust Radius=3.00D-01 FncErr=1.00D-07 GrdErr=1.00D-06
 Number of steps in this run=     36 maximum allowed number of steps=    100.
 GradGradGradGradGradGradGradGradGradGradGradGradGradGradGradGradGradGrad

                          Input orientation:                          
 ---------------------------------------------------------------------
 Center     Atomic      Atomic             Coordinates (Angstroms)
 Number     Number       Type             X           Y           Z
 ---------------------------------------------------------------------
      1          6           0        1.000000    0.000000    0.000000
      2          7           0        0.387228   -1.180724    0.000000
      3          7           0       -0.920993   -0.963670    0.000000
      4          7           0       -1.079293    0.278314    0.000000
      5          7           0        0.098070    0.921194    0.000000
      6          1           0        2.058429    0.141157    0.000000
      7          1           0        0.749017   -2.106652    0.000000
 ---------------------------------------------------------------------
                    Distance matrix (angstroms):
                    1          2          3          4          5
     1  C    0.000000
     2  N    1.330263   0.000000
     3  N    2.149157   1.326105   0.000000
     4  N    2.097837   2.068690   1.252032   0.000000
     5  N    1.289216   2.121715   2.142710   1.341447   0.000000
     6  H    1.067800   2.130794   3.177672   3.140719   2.109850
     7  H    2.121551   0.994100   2.023695   3.005127   3.097029
                    6          7
     6  H    0.000000
     7  H    2.601385   0.000000
 Stoichiometry    CH2N4
 Framework group  CS[SG(CH2N4)]
 Deg. of freedom    11
 Full point group                 CS      NOp   2
 Largest Abelian subgroup         CS      NOp   2
 Largest concise Abelian subgroup C1      NOp   1
                         Standard orientation:                         
 ---------------------------------------------------------------------
 Center     Atomic      Atomic             Coordinates (Angstroms)
 Number     Number       Type             X           Y           Z
 ---------------------------------------------------------------------
      1          6           0        1.052733    0.225621    0.000000
      2          7           0        0.000000    1.038857    0.000000
      3          7           0       -1.095416    0.291448    0.000000
      4          7           0       -0.716382   -0.901832    0.000000
      5          7           0        0.622191   -0.989579    0.000000
      6          1           0        2.072287    0.542964    0.000000
      7          1           0       -0.061439    2.031056    0.000000
 ---------------------------------------------------------------------
 Rotational constants (GHZ):     10.9201517     10.7345054      5.4132664
 Standard basis: STO-3G (5D, 7F)
 There are    22 symmetry adapted cartesian basis functions of A'  symmetry.
 There are     5 symmetry adapted cartesian basis functions of A"  symmetry.
 There are    22 symmetry adapted basis functions of A'  symmetry.
 There are     5 symmetry adapted basis functions of A"  symmetry.
    27 basis functions,    81 primitive gaussians,    27 cartesian basis functions
    18 alpha electrons       18 beta electrons
       nuclear repulsion energy       169.8308489506 Hartrees.
 NAtoms=    7 NActive=    7 NUniq=    7 SFac= 1.00D+00 NAtFMM=   60 NAOKFM=F Big=F
 Integral buffers will be    131072 words long.
 Raffenetti 2 integral format.
 Two-electron integral symmetry is turned on.
 One-electron integrals computed using PRISM.
 NBasis=    27 RedAO= T EigKep=  2.71D-01  NBF=    22     5
 NBsUse=    27 1.00D-06 EigRej= -1.00D+00 NBFU=    22     5
 ExpMin= 1.69D-01 ExpMax= 9.91D+01 ExpMxC= 9.91D+01 IAcc=1 IRadAn=         1 AccDes= 0.00D+00
 Harris functional with IExCor=  409 and IRadAn=       1 diagonalized for initial guess.
 HarFok:  IExCor=  409 AccDes= 0.00D+00 IRadAn=         1 IDoV= 1 UseB2=F ITyADJ=14
 ICtDFT=  3500011 ScaDFX=  1.000000  1.000000  1.000000  1.000000
 FoFCou: FMM=F IPFlag=           0 FMFlag=      100000 FMFlg1=           0
         NFxFlg=           0 DoJE=T BraDBF=F KetDBF=T FulRan=T
         wScrn=  0.000000 ICntrl=     500 IOpCl=  0 I1Cent=   200000004 NGrid=           0
         NMat0=    1 NMatS0=      1 NMatT0=    0 NMatD0=    1 NMtDS0=    0 NMtDT0=    0
 Petite list used in FoFCou.
 Initial guess orbital symmetries:
       Occupied  (A') (A') (A') (A') (A') (A') (A') (A') (A') (A')
                 (A') (A') (A") (A') (A") (A") (A') (A')
       Virtual   (A") (A") (A') (A') (A') (A') (A') (A') (A')
 The electronic state of the initial guess is 1-A'.
 Keep R1 ints in memory in symmetry-blocked form, NReq=954538.
 Requested convergence on RMS density matrix=1.00D-08 within 128 cycles.
 Requested convergence on MAX density matrix=1.00D-06.
 Requested convergence on             energy=1.00D-06.
 No special actions if energy rises.
 Integral accuracy reduced to 1.0D-05 until final iterations.
 Initial convergence to 1.0D-05 achieved.  Increase integral accuracy.
 SCF Done:  E(RB1B95) =  -254.801610050     A.U. after   14 cycles
            NFock= 14  Conv=0.45D-08     -V/T= 2.0155

 **********************************************************************

            Population analysis using the SCF density.

 **********************************************************************

 Orbital symmetries:
       Occupied  (A') (A') (A') (A') (A') (A') (A') (A') (A') (A')
                 (A') (A") (A') (A') (A") (A") (A') (A')
       Virtual   (A") (A") (A') (A') (A') (A') (A') (A') (A')
 The electronic state is 1-A'.
 Alpha  occ. eigenvalues --  -14.43122 -14.35723 -14.32816 -14.29502 -10.21585
 Alpha  occ. eigenvalues --   -1.18484  -0.95957  -0.90739  -0.67496  -0.65681
 Alpha  occ. eigenvalues --   -0.58991  -0.48900  -0.48241  -0.32571  -0.29670
 Alpha  occ. eigenvalues --   -0.27950  -0.23611  -0.22000
 Alpha virt. eigenvalues --    0.07855   0.12976   0.30665   0.30987   0.40784
 Alpha virt. eigenvalues --    0.44595   0.51026   0.64457   0.67944
          Condensed to atoms (all electrons):
               1          2          3          4          5          6
     1  C    4.814685   0.410798  -0.071730  -0.062601   0.457799   0.395589
     2  N    0.410798   6.301287   0.305787  -0.070133  -0.064975  -0.021112
     3  N   -0.071730   0.305787   6.518636   0.369986  -0.047606   0.001410
     4  N   -0.062601  -0.070133   0.369986   6.528335   0.301770   0.002242
     5  N    0.457799  -0.064975  -0.047606   0.301770   6.540855  -0.019080
     6  H    0.395589  -0.021112   0.001410   0.002242  -0.019080   0.503557
     7  H   -0.024416   0.348660  -0.024217   0.003039   0.001968  -0.000819
               7
     1  C   -0.024416
     2  N    0.348660
     3  N   -0.024217
     4  N    0.003039
     5  N    0.001968
     6  H   -0.000819
     7  H    0.407923
 Mulliken charges:
               1
     1  C    0.079876
     2  N   -0.210313
     3  N   -0.052267
     4  N   -0.072639
     5  N   -0.170730
     6  H    0.138213
     7  H    0.287861
 Sum of Mulliken charges =   0.00000
 Mulliken charges with hydrogens summed into heavy atoms:
               1
     1  C    0.218088
     2  N    0.077548
     3  N   -0.052267
     4  N   -0.072639
     5  N   -0.170730
 Electronic spatial extent (au):  <R**2>=            240.7068
 Charge=              0.0000 electrons
 Dipole moment (field-independent basis, Debye):
    X=              2.2128    Y=              4.5342    Z=              0.0000  Tot=              5.0453
 Quadrupole moment (field-independent basis, Debye-Ang):
   XX=            -27.7317   YY=            -25.0616   ZZ=            -25.6561
   XY=              1.4566   XZ=              0.0000   YZ=              0.0000
 Traceless Quadrupole moment (field-independent basis, Debye-Ang):
   XX=             -1.5819   YY=              1.0882   ZZ=              0.4937
   XY=              1.4566   XZ=              0.0000   YZ=              0.0000
 Octapole moment (field-independent basis, Debye-Ang**2):
  XXX=              8.3909  YYY=             18.4675  ZZZ=              0.0000  XYY=             -0.7599
  XXY=              3.4615  XXZ=              0.0000  XZZ=             -1.0974  YZZ=             -0.2646
  YYZ=              0.0000  XYZ=              0.0000
 Hexadecapole moment (field-independent basis, Debye-Ang**3):
 XXXX=           -126.7833 YYYY=           -105.2310 ZZZZ=            -17.1944 XXXY=              4.5150
 XXXZ=              0.0000 YYYX=             -1.4375 YYYZ=              0.0000 ZZZX=              0.0000
 ZZZY=              0.0000 XXYY=            -46.4757 XXZZ=            -25.1224 YYZZ=            -23.5679
 XXYZ=              0.0000 YYXZ=              0.0000 ZZXY=             -0.4807
 N-N= 1.698308489506D+02 E-N=-9.324127088659D+02  KE= 2.509227566579D+02
 Symmetry A'   KE= 2.411473513773D+02
 Symmetry A"   KE= 9.775405280572D+00
 Calling FoFJK, ICntrl=      2127 FMM=F ISym2X=1 I1Cent= 0 IOpClX= 0 NMat=1 NMatS=1 NMatT=0.
 ***** Axes restored to original set *****
 -------------------------------------------------------------------
 Center     Atomic                   Forces (Hartrees/Bohr)
 Number     Number              X              Y              Z
 -------------------------------------------------------------------
      1        6           0.078429606   -0.004591420    0.000000000
      2        7           0.049215509   -0.033368658    0.000000000
      3        7          -0.086493566   -0.146872745    0.000000000
      4        7          -0.109442791    0.111601592    0.000000000
      5        7           0.024462018    0.121305993    0.000000000
      6        1           0.022403354    0.001701260    0.000000000
      7        1           0.021425871   -0.049776022    0.000000000
 -------------------------------------------------------------------
 Cartesian Forces:  Max     0.146872745 RMS     0.062468414

 GradGradGradGradGradGradGradGradGradGradGradGradGradGradGradGradGradGrad
 Berny optimization.
 FormGI is forming the generalized inverse of G from B-inverse, IUseBI=4.
 Internal  Forces:  Max     0.156550979 RMS     0.050714217
 Search for a local minimum.
 Step number   1 out of a maximum of   36
 All quantities printed in internal units (Hartrees-Bohrs-Radians)
 Mixed Optimization -- RFO/linear search
 Second derivative matrix not updated -- first step.
 ITU=  0
     Eigenvalues ---    0.02505   0.02639   0.02674   0.02834   0.16000
     Eigenvalues ---    0.16000   0.22605   0.24688   0.37510   0.48741
     Eigenvalues ---    0.50870   0.56601   0.58498   0.66939   0.78934
 RFO step:  Lambda=-8.85094736D-02 EMin= 2.50488176D-02
 Linear search not attempted -- first point.
 Maximum step size (   0.300) exceeded in Quadratic search.
    -- Step size scaled by   0.866
 Iteration  1 RMS(Cart)=  0.06145897 RMS(Int)=  0.00027201
 Iteration  2 RMS(Cart)=  0.00020591 RMS(Int)=  0.00020290
 Iteration  3 RMS(Cart)=  0.00000004 RMS(Int)=  0.00020290
 ClnCor:  largest displacement from symmetrization is 7.17D-12 for atom     1.
 Variable       Old X    -DE/DX   Delta X   Delta X   Delta X     New X
                                 (Linear)    (Quad)   (Total)
    R1        2.51383   0.08233   0.00000   0.09840   0.09814   2.61197
    R2        2.43626   0.10150   0.00000   0.10727   0.10706   2.54333
    R3        2.01785   0.02243   0.00000   0.04191   0.04191   2.05976
    R4        2.50598   0.10553   0.00000   0.13264   0.13268   2.63865
    R5        1.87858   0.05416   0.00000   0.08145   0.08145   1.96003
    R6        2.36600   0.15655   0.00000   0.15330   0.15359   2.51959
    R7        2.53497   0.10030   0.00000   0.13578   0.13592   2.67089
    A1        1.88804   0.01363   0.00000   0.01552   0.01505   1.90310
    A2        2.18209  -0.00811   0.00000  -0.01228  -0.01205   2.17005
    A3        2.21305  -0.00552   0.00000  -0.00324  -0.00300   2.21004
    A4        1.88509   0.00770   0.00000   0.00892   0.00868   1.89377
    A5        2.29039  -0.00557   0.00000  -0.01046  -0.01034   2.28005
    A6        2.10770  -0.00213   0.00000   0.00154   0.00166   2.10936
    A7        1.86199  -0.01240   0.00000  -0.01594  -0.01554   1.84645
    A8        1.94382  -0.01066   0.00000  -0.00577  -0.00528   1.93854
    A9        1.84584   0.00173   0.00000  -0.00273  -0.00291   1.84292
    D1        0.00000   0.00000   0.00000   0.00000   0.00000   0.00000
    D2        3.14159   0.00000   0.00000   0.00000   0.00000   3.14159
    D3        3.14159   0.00000   0.00000   0.00000   0.00000   3.14159
    D4        0.00000   0.00000   0.00000   0.00000   0.00000   0.00000
    D5        0.00000   0.00000   0.00000   0.00000   0.00000   0.00000
    D6        3.14159   0.00000   0.00000   0.00000   0.00000   3.14159
    D7        0.00000   0.00000   0.00000   0.00000   0.00000   0.00000
    D8        3.14159   0.00000   0.00000   0.00000   0.00000   3.14159
    D9        0.00000   0.00000   0.00000   0.00000   0.00000   0.00000
   D10        0.00000   0.00000   0.00000   0.00000   0.00000   0.00000
         Item               Value     Threshold  Converged?
 Maximum Force            0.156551     0.000450     NO 
 RMS     Force            0.050714     0.000300     NO 
 Maximum Displacement     0.127781     0.001800     NO 
 RMS     Displacement     0.061408     0.001200     NO 
 Predicted change in Energy=-4.742859D-02
 GradGradGradGradGradGradGradGradGradGradGradGradGradGradGradGradGradGrad

                          Input orientation:                          
 ---------------------------------------------------------------------
 Center     Atomic      Atomic             Coordinates (Angstroms)
 Number     Number       Type             X           Y           Z
 ---------------------------------------------------------------------
      1          6           0        1.029544    0.015537    0.000000
      2          7           0        0.396203   -1.213018    0.000000
      3          7           0       -0.983799   -1.000206    0.000000
      4          7           0       -1.146912    0.323089    0.000000
      5          7           0        0.099897    0.988739    0.000000
      6          1           0        2.111253    0.149556    0.000000
      7          1           0        0.786270   -2.174079    0.000000
 ---------------------------------------------------------------------
                    Distance matrix (angstroms):
                    1          2          3          4          5
     1  C    0.000000
     2  N    1.382197   0.000000
     3  N    2.255058   1.396314   0.000000
     4  N    2.198079   2.177344   1.333310   0.000000
     5  N    1.345870   2.221606   2.265016   1.413373   0.000000
     6  H    1.089980   2.190436   3.301712   3.262783   2.179399
     7  H    2.203089   1.037204   2.123941   3.158013   3.236438
                    6          7
     6  H    0.000000
     7  H    2.674858   0.000000
 Stoichiometry    CH2N4
 Framework group  CS[SG(CH2N4)]
 Deg. of freedom    11
 Full point group                 CS      NOp   2
 Largest Abelian subgroup         CS      NOp   2
 Largest concise Abelian subgroup C1      NOp   1
                         Standard orientation:                         
 ---------------------------------------------------------------------
 Center     Atomic      Atomic             Coordinates (Angstroms)
 Number     Number       Type             X           Y           Z
 ---------------------------------------------------------------------
      1          6           0        1.095376    0.244152    0.000000
      2          7           0        0.000000    1.087136    0.000000
      3          7           0       -1.158776    0.308077    0.000000
      4          7           0       -0.744110   -0.959111    0.000000
      5          7           0        0.667390   -1.031855    0.000000
      6          1           0        2.131512    0.582495    0.000000
      7          1           0       -0.055294    2.122865    0.000000
 ---------------------------------------------------------------------
 Rotational constants (GHZ):      9.9158803      9.7353562      4.9123945
 Standard basis: STO-3G (5D, 7F)
 There are    22 symmetry adapted cartesian basis functions of A'  symmetry.
 There are     5 symmetry adapted cartesian basis functions of A"  symmetry.
 There are    22 symmetry adapted basis functions of A'  symmetry.
 There are     5 symmetry adapted basis functions of A"  symmetry.
    27 basis functions,    81 primitive gaussians,    27 cartesian basis functions
    18 alpha electrons       18 beta electrons
       nuclear repulsion energy       161.7856125966 Hartrees.
 NAtoms=    7 NActive=    7 NUniq=    7 SFac= 1.00D+00 NAtFMM=   60 NAOKFM=F Big=F
 Integral buffers will be    131072 words long.
 Raffenetti 2 integral format.
 Two-electron integral symmetry is turned on.
 One-electron integrals computed using PRISM.
 NBasis=    27 RedAO= T EigKep=  3.19D-01  NBF=    22     5
 NBsUse=    27 1.00D-06 EigRej= -1.00D+00 NBFU=    22     5
 Initial guess from the checkpoint file:  "/tmp/rdj3/g09-18029/Gau-3670.chk"
 B after Tr=     0.000000    0.000000    0.000000
         Rot=    0.999995    0.000000    0.000000   -0.003117 Ang=  -0.36 deg.
 Initial guess orbital symmetries:
       Occupied  (A') (A') (A') (A') (A') (A') (A') (A') (A') (A')
                 (A') (A") (A') (A') (A") (A") (A') (A')
       Virtual   (A') (A') (A') (A') (A') (A') (A') (A") (A")
 ExpMin= 1.69D-01 ExpMax= 9.91D+01 ExpMxC= 9.91D+01 IAcc=1 IRadAn=         1 AccDes= 0.00D+00
 Harris functional with IExCor=  409 and IRadAn=       1 diagonalized for initial guess.
 HarFok:  IExCor=  409 AccDes= 0.00D+00 IRadAn=         1 IDoV= 1 UseB2=F ITyADJ=14
 ICtDFT=  3500011 ScaDFX=  1.000000  1.000000  1.000000  1.000000
 FoFCou: FMM=F IPFlag=           0 FMFlag=      100000 FMFlg1=           0
         NFxFlg=           0 DoJE=T BraDBF=F KetDBF=T FulRan=T
         wScrn=  0.000000 ICntrl=     500 IOpCl=  0 I1Cent=   200000004 NGrid=           0
         NMat0=    1 NMatS0=      1 NMatT0=    0 NMatD0=    1 NMtDS0=    0 NMtDT0=    0
 Petite list used in FoFCou.
 Keep R1 ints in memory in symmetry-blocked form, NReq=954538.
 Requested convergence on RMS density matrix=1.00D-08 within 128 cycles.
 Requested convergence on MAX density matrix=1.00D-06.
 Requested convergence on             energy=1.00D-06.
 No special actions if energy rises.
 Integral accuracy reduced to 1.0D-05 until final iterations.
 Initial convergence to 1.0D-05 achieved.  Increase integral accuracy.
 SCF Done:  E(RB1B95) =  -254.844583336     A.U. after   14 cycles
            NFock= 14  Conv=0.52D-08     -V/T= 2.0174
 Calling FoFJK, ICntrl=      2127 FMM=F ISym2X=1 I1Cent= 0 IOpClX= 0 NMat=1 NMatS=1 NMatT=0.
 ***** Axes restored to original set *****
 -------------------------------------------------------------------
 Center     Atomic                   Forces (Hartrees/Bohr)
 Number     Number              X              Y              Z
 -------------------------------------------------------------------
      1        6           0.003882046   -0.005632788    0.000000000
      2        7           0.013859299    0.003642151    0.000000000
      3        7          -0.020119614   -0.033978859    0.000000000
      4        7          -0.019169450    0.019523076    0.000000000
      5        7           0.013688972    0.023265269    0.000000000
      6        1           0.004051125   -0.000307915    0.000000000
      7        1           0.003807622   -0.006510934    0.000000000
 -------------------------------------------------------------------
 Cartesian Forces:  Max     0.033978859 RMS     0.012653216

 GradGradGradGradGradGradGradGradGradGradGradGradGradGradGradGradGradGrad
 Berny optimization.
 Using GEDIIS/GDIIS optimizer.
 FormGI is forming the generalized inverse of G from B-inverse, IUseBI=4.
 Internal  Forces:  Max     0.030920222 RMS     0.009347884
 Search for a local minimum.
 Step number   2 out of a maximum of   36
 All quantities printed in internal units (Hartrees-Bohrs-Radians)
 Mixed Optimization -- RFO/linear search
 Update second derivatives using D2CorX and points    1    2
 DE= -4.30D-02 DEPred=-4.74D-02 R= 9.06D-01
 TightC=F SS=  1.41D+00  RLast= 3.00D-01 DXNew= 5.0454D-01 8.9998D-01
 Trust test= 9.06D-01 RLast= 3.00D-01 DXMaxT set to 5.05D-01
 ITU=  1  0
 Use linear search instead of GDIIS.
     Eigenvalues ---    0.02504   0.02637   0.02677   0.02835   0.15996
     Eigenvalues ---    0.16000   0.22590   0.24551   0.37595   0.49197
     Eigenvalues ---    0.50885   0.56584   0.61263   0.68764   0.80716
 RFO step:  Lambda=-1.03061452D-03 EMin= 2.50393547D-02
 Quartic linear search produced a step of  0.27848.
 Iteration  1 RMS(Cart)=  0.01970561 RMS(Int)=  0.00023019
 Iteration  2 RMS(Cart)=  0.00024975 RMS(Int)=  0.00009851
 Iteration  3 RMS(Cart)=  0.00000003 RMS(Int)=  0.00009851
 ClnCor:  largest displacement from symmetrization is 1.70D-11 for atom     1.
 Variable       Old X    -DE/DX   Delta X   Delta X   Delta X     New X
                                 (Linear)    (Quad)   (Total)
    R1        2.61197   0.00634   0.02733  -0.01801   0.00921   2.62119
    R2        2.54333   0.01204   0.02981  -0.01089   0.01881   2.56214
    R3        2.05976   0.00399   0.01167   0.00263   0.01430   2.07406
    R4        2.63865   0.01972   0.03695   0.00472   0.04171   2.68037
    R5        1.96003   0.00746   0.02268  -0.00262   0.02007   1.98010
    R6        2.51959   0.03092   0.04277   0.00692   0.04983   2.56942
    R7        2.67089   0.02212   0.03785   0.01473   0.05262   2.72351
    A1        1.90310   0.00582   0.00419   0.01092   0.01489   1.91799
    A2        2.17005  -0.00376  -0.00335  -0.01135  -0.01459   2.15546
    A3        2.21004  -0.00206  -0.00084   0.00042  -0.00030   2.20974
    A4        1.89377   0.00541   0.00242   0.01688   0.01923   1.91301
    A5        2.28005  -0.00374  -0.00288  -0.01549  -0.01833   2.26172
    A6        2.10936  -0.00167   0.00046  -0.00139  -0.00090   2.10846
    A7        1.84645  -0.00853  -0.00433  -0.02885  -0.03294   1.81351
    A8        1.93854   0.00041  -0.00147   0.02093   0.01966   1.95820
    A9        1.84292  -0.00311  -0.00081  -0.01989  -0.02085   1.82207
    D1        0.00000   0.00000   0.00000   0.00000   0.00000   0.00000
    D2        3.14159   0.00000   0.00000   0.00000   0.00000   3.14159
    D3        3.14159   0.00000   0.00000   0.00000   0.00000   3.14159
    D4        0.00000   0.00000   0.00000   0.00000   0.00000   0.00000
    D5        0.00000   0.00000   0.00000   0.00000   0.00000   0.00000
    D6        3.14159   0.00000   0.00000   0.00000   0.00000   3.14159
    D7        0.00000   0.00000   0.00000   0.00000   0.00000   0.00000
    D8        3.14159   0.00000   0.00000   0.00000   0.00000   3.14159
    D9        0.00000   0.00000   0.00000   0.00000   0.00000   0.00000
   D10        0.00000   0.00000   0.00000   0.00000   0.00000   0.00000
         Item               Value     Threshold  Converged?
 Maximum Force            0.030920     0.000450     NO 
 RMS     Force            0.009348     0.000300     NO 
 Maximum Displacement     0.051948     0.001800     NO 
 RMS     Displacement     0.019695     0.001200     NO 
 Predicted change in Energy=-1.722906D-03
 GradGradGradGradGradGradGradGradGradGradGradGradGradGradGradGradGradGrad

                          Input orientation:                          
 ---------------------------------------------------------------------
 Center     Atomic      Atomic             Coordinates (Angstroms)
 Number     Number       Type             X           Y           Z
 ---------------------------------------------------------------------
      1          6           0        1.030728    0.019715    0.000000
      2          7           0        0.394295   -1.212731    0.000000
      3          7           0       -1.011289   -1.022576    0.000000
      4          7           0       -1.158179    0.329146    0.000000
      5          7           0        0.109601    1.014594    0.000000
      6          1           0        2.121882    0.138001    0.000000
      7          1           0        0.805418   -2.176530    0.000000
 ---------------------------------------------------------------------
                    Distance matrix (angstroms):
                    1          2          3          4          5
     1  C    0.000000
     2  N    1.387073   0.000000
     3  N    2.292641   1.418388   0.000000
     4  N    2.210670   2.188050   1.359679   0.000000
     5  N    1.355824   2.245446   2.325178   1.441217   0.000000
     6  H    1.097547   2.192951   3.341212   3.285626   2.194924
     7  H    2.207773   1.047822   2.152216   3.183415   3.266104
                    6          7
     6  H    0.000000
     7  H    2.662730   0.000000
 Stoichiometry    CH2N4
 Framework group  CS[SG(CH2N4)]
 Deg. of freedom    11
 Full point group                 CS      NOp   2
 Largest Abelian subgroup         CS      NOp   2
 Largest concise Abelian subgroup C1      NOp   1
                         Standard orientation:                         
 ---------------------------------------------------------------------
 Center     Atomic      Atomic             Coordinates (Angstroms)
 Number     Number       Type             X           Y           Z
 ---------------------------------------------------------------------
      1          6           0        1.101357    0.246999    0.000000
      2          7           0        0.000000    1.090199    0.000000
      3          7           0       -1.190165    0.318621    0.000000
      4          7           0       -0.746406   -0.966605    0.000000
      5          7           0        0.692636   -1.045752    0.000000
      6          1           0        2.138710    0.605478    0.000000
      7          1           0       -0.039295    2.137283    0.000000
 ---------------------------------------------------------------------
 Rotational constants (GHZ):      9.7972267      9.3697966      4.7893729
 Standard basis: STO-3G (5D, 7F)
 There are    22 symmetry adapted cartesian basis functions of A'  symmetry.
 There are     5 symmetry adapted cartesian basis functions of A"  symmetry.
 There are    22 symmetry adapted basis functions of A'  symmetry.
 There are     5 symmetry adapted basis functions of A"  symmetry.
    27 basis functions,    81 primitive gaussians,    27 cartesian basis functions
    18 alpha electrons       18 beta electrons
       nuclear repulsion energy       159.7534736985 Hartrees.
 NAtoms=    7 NActive=    7 NUniq=    7 SFac= 1.00D+00 NAtFMM=   60 NAOKFM=F Big=F
 Integral buffers will be    131072 words long.
 Raffenetti 2 integral format.
 Two-electron integral symmetry is turned on.
 One-electron integrals computed using PRISM.
 NBasis=    27 RedAO= T EigKep=  3.28D-01  NBF=    22     5
 NBsUse=    27 1.00D-06 EigRej= -1.00D+00 NBFU=    22     5
 Initial guess from the checkpoint file:  "/tmp/rdj3/g09-18029/Gau-3670.chk"
 B after Tr=     0.000000    0.000000    0.000000
         Rot=    0.999999    0.000000    0.000000   -0.001259 Ang=  -0.14 deg.
 Initial guess orbital symmetries:
       Occupied  (A') (A') (A') (A') (A') (A') (A') (A') (A') (A')
                 (A') (A') (A") (A') (A") (A") (A') (A')
       Virtual   (A') (A') (A') (A') (A') (A') (A') (A") (A")
 ExpMin= 1.69D-01 ExpMax= 9.91D+01 ExpMxC= 9.91D+01 IAcc=1 IRadAn=         1 AccDes= 0.00D+00
 Harris functional with IExCor=  409 and IRadAn=       1 diagonalized for initial guess.
 HarFok:  IExCor=  409 AccDes= 0.00D+00 IRadAn=         1 IDoV= 1 UseB2=F ITyADJ=14
 ICtDFT=  3500011 ScaDFX=  1.000000  1.000000  1.000000  1.000000
 FoFCou: FMM=F IPFlag=           0 FMFlag=      100000 FMFlg1=           0
         NFxFlg=           0 DoJE=T BraDBF=F KetDBF=T FulRan=T
         wScrn=  0.000000 ICntrl=     500 IOpCl=  0 I1Cent=   200000004 NGrid=           0
         NMat0=    1 NMatS0=      1 NMatT0=    0 NMatD0=    1 NMtDS0=    0 NMtDT0=    0
 Petite list used in FoFCou.
 Keep R1 ints in memory in symmetry-blocked form, NReq=954538.
 Requested convergence on RMS density matrix=1.00D-08 within 128 cycles.
 Requested convergence on MAX density matrix=1.00D-06.
 Requested convergence on             energy=1.00D-06.
 No special actions if energy rises.
 Integral accuracy reduced to 1.0D-05 until final iterations.
 Initial convergence to 1.0D-05 achieved.  Increase integral accuracy.
 SCF Done:  E(RB1B95) =  -254.846722057     A.U. after   13 cycles
            NFock= 13  Conv=0.83D-08     -V/T= 2.0177
 Calling FoFJK, ICntrl=      2127 FMM=F ISym2X=1 I1Cent= 0 IOpClX= 0 NMat=1 NMatS=1 NMatT=0.
 ***** Axes restored to original set *****
 -------------------------------------------------------------------
 Center     Atomic                   Forces (Hartrees/Bohr)
 Number     Number              X              Y              Z
 -------------------------------------------------------------------
      1        6          -0.000816599   -0.004137076    0.000000000
      2        7           0.005925643   -0.002445318    0.000000000
      3        7           0.004179167    0.002303224    0.000000000
      4        7          -0.008316710    0.005599787    0.000000000
      5        7           0.000542112   -0.003006841    0.000000000
      6        1          -0.001670743   -0.000661123    0.000000000
      7        1           0.000157130    0.002347347    0.000000000
 -------------------------------------------------------------------
 Cartesian Forces:  Max     0.008316710 RMS     0.003088140

 GradGradGradGradGradGradGradGradGradGradGradGradGradGradGradGradGradGrad
 Berny optimization.
 Using GEDIIS/GDIIS optimizer.
 FormGI is forming the generalized inverse of G from B-inverse, IUseBI=4.
 Internal  Forces:  Max     0.008020162 RMS     0.002688683
 Search for a local minimum.
 Step number   3 out of a maximum of   36
 All quantities printed in internal units (Hartrees-Bohrs-Radians)
 Mixed Optimization -- RFO/linear search
 Update second derivatives using D2CorX and points    1    2    3
 DE= -2.14D-03 DEPred=-1.72D-03 R= 1.24D+00
 TightC=F SS=  1.41D+00  RLast= 1.05D-01 DXNew= 8.4853D-01 3.1586D-01
 Trust test= 1.24D+00 RLast= 1.05D-01 DXMaxT set to 5.05D-01
 ITU=  1  1  0
 Use linear search instead of GDIIS.
     Eigenvalues ---    0.02503   0.02635   0.02676   0.02836   0.15737
     Eigenvalues ---    0.16001   0.22517   0.28400   0.37768   0.42203
     Eigenvalues ---    0.49395   0.54115   0.61934   0.67166   0.74250
 RFO step:  Lambda=-5.44741171D-04 EMin= 2.50264798D-02
 Quartic linear search produced a step of -0.06430.
 Iteration  1 RMS(Cart)=  0.00949009 RMS(Int)=  0.00006549
 Iteration  2 RMS(Cart)=  0.00005322 RMS(Int)=  0.00001915
 Iteration  3 RMS(Cart)=  0.00000000 RMS(Int)=  0.00001915
 ClnCor:  largest displacement from symmetrization is 6.58D-12 for atom     1.
 Variable       Old X    -DE/DX   Delta X   Delta X   Delta X     New X
                                 (Linear)    (Quad)   (Total)
    R1        2.62119  -0.00589  -0.00059  -0.00842  -0.00904   2.61215
    R2        2.56214   0.00182  -0.00121   0.00526   0.00404   2.56618
    R3        2.07406  -0.00172  -0.00092  -0.00214  -0.00305   2.07101
    R4        2.68037   0.00207  -0.00268   0.00997   0.00728   2.68764
    R5        1.98010  -0.00210  -0.00129  -0.00091  -0.00220   1.97789
    R6        2.56942   0.00266  -0.00320   0.01170   0.00851   2.57794
    R7        2.72351   0.00063  -0.00338   0.00990   0.00654   2.73005
    A1        1.91799   0.00106  -0.00096   0.00471   0.00372   1.92171
    A2        2.15546  -0.00107   0.00094  -0.00659  -0.00563   2.14982
    A3        2.20974   0.00001   0.00002   0.00188   0.00191   2.21165
    A4        1.91301  -0.00285  -0.00124  -0.01053  -0.01181   1.90120
    A5        2.26172   0.00041   0.00118  -0.00199  -0.00079   2.26093
    A6        2.10846   0.00244   0.00006   0.01252   0.01260   2.12106
    A7        1.81351   0.00586   0.00212   0.01871   0.02083   1.83434
    A8        1.95820  -0.00802  -0.00126  -0.02437  -0.02559   1.93262
    A9        1.82207   0.00395   0.00134   0.01148   0.01284   1.83491
    D1        0.00000   0.00000   0.00000   0.00000   0.00000   0.00000
    D2        3.14159   0.00000   0.00000   0.00000   0.00000   3.14159
    D3        3.14159   0.00000   0.00000   0.00000   0.00000   3.14159
    D4        0.00000   0.00000   0.00000   0.00000   0.00000   0.00000
    D5        0.00000   0.00000   0.00000   0.00000   0.00000   0.00000
    D6        3.14159   0.00000   0.00000   0.00000   0.00000   3.14159
    D7        0.00000   0.00000   0.00000   0.00000   0.00000   0.00000
    D8        3.14159   0.00000   0.00000   0.00000   0.00000   3.14159
    D9        0.00000   0.00000   0.00000   0.00000   0.00000   0.00000
   D10        0.00000   0.00000   0.00000   0.00000   0.00000   0.00000
         Item               Value     Threshold  Converged?
 Maximum Force            0.008020     0.000450     NO 
 RMS     Force            0.002689     0.000300     NO 
 Maximum Displacement     0.027045     0.001800     NO 
 RMS     Displacement     0.009492     0.001200     NO 
 Predicted change in Energy=-2.820560D-04
 GradGradGradGradGradGradGradGradGradGradGradGradGradGradGradGradGradGrad

                          Input orientation:                          
 ---------------------------------------------------------------------
 Center     Atomic      Atomic             Coordinates (Angstroms)
 Number     Number       Type             X           Y           Z
 ---------------------------------------------------------------------
      1          6           0        1.029741    0.014786    0.000000
      2          7           0        0.400487   -1.215973    0.000000
      3          7           0       -1.007392   -1.014377    0.000000
      4          7           0       -1.172491    0.339781    0.000000
      5          7           0        0.106829    1.010926    0.000000
      6          1           0        2.119473    0.131176    0.000000
      7          1           0        0.815810   -2.176700    0.000000
 ---------------------------------------------------------------------
                    Distance matrix (angstroms):
                    1          2          3          4          5
     1  C    0.000000
     2  N    1.382291   0.000000
     3  N    2.282342   1.422239   0.000000
     4  N    2.226084   2.212381   1.364185   0.000000
     5  N    1.357962   2.246177   2.311566   1.444678   0.000000
     6  H    1.095930   2.183970   3.330102   3.298567   2.196519
     7  H    2.201903   1.046656   2.162189   3.207182   3.265518
                    6          7
     6  H    0.000000
     7  H    2.650628   0.000000
 Stoichiometry    CH2N4
 Framework group  CS[SG(CH2N4)]
 Deg. of freedom    11
 Full point group                 CS      NOp   2
 Largest Abelian subgroup         CS      NOp   2
 Largest concise Abelian subgroup C1      NOp   1
                         Standard orientation:                         
 ---------------------------------------------------------------------
 Center     Atomic      Atomic             Coordinates (Angstroms)
 Number     Number       Type             X           Y           Z
 ---------------------------------------------------------------------
      1          6           0        1.097859    0.257615    0.000000
      2          7           0        0.000000    1.097516    0.000000
      3          7           0       -1.183897    0.309384    0.000000
      4          7           0       -0.749860   -0.983911    0.000000
      5          7           0        0.693774   -1.038833    0.000000
      6          1           0        2.131521    0.621763    0.000000
      7          1           0       -0.038798    2.143453    0.000000
 ---------------------------------------------------------------------
 Rotational constants (GHZ):      9.6359143      9.4711904      4.7764212
 Standard basis: STO-3G (5D, 7F)
 There are    22 symmetry adapted cartesian basis functions of A'  symmetry.
 There are     5 symmetry adapted cartesian basis functions of A"  symmetry.
 There are    22 symmetry adapted basis functions of A'  symmetry.
 There are     5 symmetry adapted basis functions of A"  symmetry.
    27 basis functions,    81 primitive gaussians,    27 cartesian basis functions
    18 alpha electrons       18 beta electrons
       nuclear repulsion energy       159.5348093649 Hartrees.
 NAtoms=    7 NActive=    7 NUniq=    7 SFac= 1.00D+00 NAtFMM=   60 NAOKFM=F Big=F
 Integral buffers will be    131072 words long.
 Raffenetti 2 integral format.
 Two-electron integral symmetry is turned on.
 One-electron integrals computed using PRISM.
 NBasis=    27 RedAO= T EigKep=  3.28D-01  NBF=    22     5
 NBsUse=    27 1.00D-06 EigRej= -1.00D+00 NBFU=    22     5
 Initial guess from the checkpoint file:  "/tmp/rdj3/g09-18029/Gau-3670.chk"
 B after Tr=     0.000000    0.000000    0.000000
         Rot=    0.999997    0.000000    0.000000   -0.002474 Ang=  -0.28 deg.
 Initial guess orbital symmetries:
       Occupied  (A') (A') (A') (A') (A') (A') (A') (A') (A') (A')
                 (A') (A') (A") (A') (A") (A") (A') (A')
       Virtual   (A') (A') (A') (A') (A') (A') (A') (A") (A")
 ExpMin= 1.69D-01 ExpMax= 9.91D+01 ExpMxC= 9.91D+01 IAcc=1 IRadAn=         1 AccDes= 0.00D+00
 Harris functional with IExCor=  409 and IRadAn=       1 diagonalized for initial guess.
 HarFok:  IExCor=  409 AccDes= 0.00D+00 IRadAn=         1 IDoV= 1 UseB2=F ITyADJ=14
 ICtDFT=  3500011 ScaDFX=  1.000000  1.000000  1.000000  1.000000
 FoFCou: FMM=F IPFlag=           0 FMFlag=      100000 FMFlg1=           0
         NFxFlg=           0 DoJE=T BraDBF=F KetDBF=T FulRan=T
         wScrn=  0.000000 ICntrl=     500 IOpCl=  0 I1Cent=   200000004 NGrid=           0
         NMat0=    1 NMatS0=      1 NMatT0=    0 NMatD0=    1 NMtDS0=    0 NMtDT0=    0
 Petite list used in FoFCou.
 Keep R1 ints in memory in symmetry-blocked form, NReq=954538.
 Requested convergence on RMS density matrix=1.00D-08 within 128 cycles.
 Requested convergence on MAX density matrix=1.00D-06.
 Requested convergence on             energy=1.00D-06.
 No special actions if energy rises.
 Integral accuracy reduced to 1.0D-05 until final iterations.
 Initial convergence to 1.0D-05 achieved.  Increase integral accuracy.
 SCF Done:  E(RB1B95) =  -254.846785744     A.U. after   13 cycles
            NFock= 13  Conv=0.25D-08     -V/T= 2.0177
 Calling FoFJK, ICntrl=      2127 FMM=F ISym2X=1 I1Cent= 0 IOpClX= 0 NMat=1 NMatS=1 NMatT=0.
 ***** Axes restored to original set *****
 -------------------------------------------------------------------
 Center     Atomic                   Forces (Hartrees/Bohr)
 Number     Number              X              Y              Z
 -------------------------------------------------------------------
      1        6          -0.002438319    0.001442715    0.000000000
      2        7          -0.002806456    0.002806894    0.000000000
      3        7          -0.002308027   -0.002408448    0.000000000
      4        7           0.007334247   -0.004073413    0.000000000
      5        7           0.001557413    0.000685752    0.000000000
      6        1          -0.000487679    0.000556150    0.000000000
      7        1          -0.000851180    0.000990349    0.000000000
 -------------------------------------------------------------------
 Cartesian Forces:  Max     0.007334247 RMS     0.002293276

 GradGradGradGradGradGradGradGradGradGradGradGradGradGradGradGradGradGrad
 Berny optimization.
 Using GEDIIS/GDIIS optimizer.
 FormGI is forming the generalized inverse of G from B-inverse, IUseBI=4.
 Internal  Forces:  Max     0.005908224 RMS     0.002170295
 Search for a local minimum.
 Step number   4 out of a maximum of   36
 All quantities printed in internal units (Hartrees-Bohrs-Radians)
 Mixed Optimization -- RFO/linear search
 Update second derivatives using D2CorX and points    1    2    3    4
 DE= -6.37D-05 DEPred=-2.82D-04 R= 2.26D-01
 Trust test= 2.26D-01 RLast= 4.34D-02 DXMaxT set to 5.05D-01
 ITU=  0  1  1  0
 Use linear search instead of GDIIS.
     Eigenvalues ---    0.02501   0.02634   0.02681   0.02838   0.15796
     Eigenvalues ---    0.16031   0.22385   0.37426   0.39379   0.47967
     Eigenvalues ---    0.49256   0.54513   0.61177   0.72962   0.74864
 RFO step:  Lambda=-2.30251724D-05 EMin= 2.50125381D-02
 Quartic linear search produced a step of -0.43793.
 Iteration  1 RMS(Cart)=  0.00427330 RMS(Int)=  0.00001394
 Iteration  2 RMS(Cart)=  0.00001062 RMS(Int)=  0.00000556
 Iteration  3 RMS(Cart)=  0.00000000 RMS(Int)=  0.00000556
 ClnCor:  largest displacement from symmetrization is 5.96D-12 for atom     1.
 Variable       Old X    -DE/DX   Delta X   Delta X   Delta X     New X
                                 (Linear)    (Quad)   (Total)
    R1        2.61215   0.00078   0.00396  -0.00359   0.00037   2.61253
    R2        2.56618  -0.00427  -0.00177  -0.00213  -0.00390   2.56228
    R3        2.07101  -0.00042   0.00134  -0.00252  -0.00118   2.06983
    R4        2.68764  -0.00281  -0.00319  -0.00092  -0.00410   2.68354
    R5        1.97789  -0.00125   0.00096  -0.00311  -0.00215   1.97575
    R6        2.57794  -0.00209  -0.00373   0.00029  -0.00344   2.57449
    R7        2.73005  -0.00128  -0.00286  -0.00053  -0.00340   2.72664
    A1        1.92171   0.00054  -0.00163   0.00206   0.00044   1.92215
    A2        2.14982   0.00032   0.00247  -0.00042   0.00204   2.15187
    A3        2.21165  -0.00086  -0.00084  -0.00164  -0.00248   2.20917
    A4        1.90120   0.00254   0.00517  -0.00020   0.00498   1.90618
    A5        2.26093  -0.00085   0.00035  -0.00109  -0.00075   2.26017
    A6        2.12106  -0.00169  -0.00552   0.00130  -0.00423   2.11683
    A7        1.83434  -0.00537  -0.00912  -0.00066  -0.00978   1.82456
    A8        1.93262   0.00591   0.01120   0.00008   0.01127   1.94389
    A9        1.83491  -0.00362  -0.00562  -0.00127  -0.00690   1.82801
    D1        0.00000   0.00000   0.00000   0.00000   0.00000   0.00000
    D2        3.14159   0.00000   0.00000   0.00000   0.00000   3.14159
    D3        3.14159   0.00000   0.00000   0.00000   0.00000   3.14159
    D4        0.00000   0.00000   0.00000   0.00000   0.00000   0.00000
    D5        0.00000   0.00000   0.00000   0.00000   0.00000   0.00000
    D6        3.14159   0.00000   0.00000   0.00000   0.00000   3.14159
    D7        0.00000   0.00000   0.00000   0.00000   0.00000   0.00000
    D8        3.14159   0.00000   0.00000   0.00000   0.00000   3.14159
    D9        0.00000   0.00000   0.00000   0.00000   0.00000   0.00000
   D10        0.00000   0.00000   0.00000   0.00000   0.00000   0.00000
         Item               Value     Threshold  Converged?
 Maximum Force            0.005908     0.000450     NO 
 RMS     Force            0.002170     0.000300     NO 
 Maximum Displacement     0.013938     0.001800     NO 
 RMS     Displacement     0.004273     0.001200     NO 
 Predicted change in Energy=-1.039970D-04
 GradGradGradGradGradGradGradGradGradGradGradGradGradGradGradGradGradGrad

                          Input orientation:                          
 ---------------------------------------------------------------------
 Center     Atomic      Atomic             Coordinates (Angstroms)
 Number     Number       Type             X           Y           Z
 ---------------------------------------------------------------------
      1          6           0        1.028899    0.015843    0.000000
      2          7           0        0.397911   -1.214251    0.000000
      3          7           0       -1.008543   -1.018086    0.000000
      4          7           0       -1.165115    0.335249    0.000000
      5          7           0        0.109153    1.012103    0.000000
      6          1           0        2.117927    0.132936    0.000000
      7          1           0        0.812225   -2.174175    0.000000
 ---------------------------------------------------------------------
                    Distance matrix (angstroms):
                    1          2          3          4          5
     1  C    0.000000
     2  N    1.382489   0.000000
     3  N    2.284771   1.420068   0.000000
     4  N    2.217142   2.200909   1.362362   0.000000
     5  N    1.355901   2.245002   2.317523   1.442876   0.000000
     6  H    1.095305   2.184804   3.331616   3.289270   2.192739
     7  H    2.200711   1.045519   2.156789   3.194853   3.262925
                    6          7
     6  H    0.000000
     7  H    2.650966   0.000000
 Stoichiometry    CH2N4
 Framework group  CS[SG(CH2N4)]
 Deg. of freedom    11
 Full point group                 CS      NOp   2
 Largest Abelian subgroup         CS      NOp   2
 Largest concise Abelian subgroup C1      NOp   1
                         Standard orientation:                         
 ---------------------------------------------------------------------
 Center     Atomic      Atomic             Coordinates (Angstroms)
 Number     Number       Type             X           Y           Z
 ---------------------------------------------------------------------
      1          6           0        1.097559    0.253186    0.000000
      2          7           0        0.000000    1.093806    0.000000
      3          7           0       -1.186418    0.313418    0.000000
      4          7           0       -0.747463   -0.976291    0.000000
      5          7           0        0.693950   -1.041251    0.000000
      6          1           0        2.131570    0.614453    0.000000
      7          1           0       -0.037400    2.138656    0.000000
 ---------------------------------------------------------------------
 Rotational constants (GHZ):      9.7173602      9.4366823      4.7874824
 Standard basis: STO-3G (5D, 7F)
 There are    22 symmetry adapted cartesian basis functions of A'  symmetry.
 There are     5 symmetry adapted cartesian basis functions of A"  symmetry.
 There are    22 symmetry adapted basis functions of A'  symmetry.
 There are     5 symmetry adapted basis functions of A"  symmetry.
    27 basis functions,    81 primitive gaussians,    27 cartesian basis functions
    18 alpha electrons       18 beta electrons
       nuclear repulsion energy       159.7221548402 Hartrees.
 NAtoms=    7 NActive=    7 NUniq=    7 SFac= 1.00D+00 NAtFMM=   60 NAOKFM=F Big=F
 Integral buffers will be    131072 words long.
 Raffenetti 2 integral format.
 Two-electron integral symmetry is turned on.
 One-electron integrals computed using PRISM.
 NBasis=    27 RedAO= T EigKep=  3.27D-01  NBF=    22     5
 NBsUse=    27 1.00D-06 EigRej= -1.00D+00 NBFU=    22     5
 Initial guess from the checkpoint file:  "/tmp/rdj3/g09-18029/Gau-3670.chk"
 B after Tr=     0.000000    0.000000    0.000000
         Rot=    1.000000    0.000000    0.000000    0.000946 Ang=   0.11 deg.
 Initial guess orbital symmetries:
       Occupied  (A') (A') (A') (A') (A') (A') (A') (A') (A') (A')
                 (A') (A') (A") (A') (A") (A") (A') (A')
       Virtual   (A') (A') (A') (A') (A') (A') (A') (A") (A")
 Keep R1 ints in memory in symmetry-blocked form, NReq=954538.
 Requested convergence on RMS density matrix=1.00D-08 within 128 cycles.
 Requested convergence on MAX density matrix=1.00D-06.
 Requested convergence on             energy=1.00D-06.
 No special actions if energy rises.
 SCF Done:  E(RB1B95) =  -254.846893099     A.U. after   10 cycles
            NFock= 10  Conv=0.20D-08     -V/T= 2.0177
 Calling FoFJK, ICntrl=      2127 FMM=F ISym2X=1 I1Cent= 0 IOpClX= 0 NMat=1 NMatS=1 NMatT=0.
 ***** Axes restored to original set *****
 -------------------------------------------------------------------
 Center     Atomic                   Forces (Hartrees/Bohr)
 Number     Number              X              Y              Z
 -------------------------------------------------------------------
      1        6          -0.000480547   -0.000287645    0.000000000
      2        7           0.000086632    0.000480764    0.000000000
      3        7           0.000043176   -0.000084772    0.000000000
      4        7          -0.000021738    0.000054970    0.000000000
      5        7           0.000203006   -0.000418780    0.000000000
      6        1           0.000092359    0.000101783    0.000000000
      7        1           0.000077112    0.000153679    0.000000000
 -------------------------------------------------------------------
 Cartesian Forces:  Max     0.000480764 RMS     0.000198793

 GradGradGradGradGradGradGradGradGradGradGradGradGradGradGradGradGradGrad
 Berny optimization.
 Using GEDIIS/GDIIS optimizer.
 FormGI is forming the generalized inverse of G from B-inverse, IUseBI=4.
 Internal  Forces:  Max     0.000533607 RMS     0.000147152
 Search for a local minimum.
 Step number   5 out of a maximum of   36
 All quantities printed in internal units (Hartrees-Bohrs-Radians)
 Mixed Optimization -- En-DIIS/RFO-DIIS
 Update second derivatives using D2CorX and points    1    2    3    4    5
 DE= -1.07D-04 DEPred=-1.04D-04 R= 1.03D+00
 TightC=F SS=  1.41D+00  RLast= 1.96D-02 DXNew= 8.4853D-01 5.8923D-02
 Trust test= 1.03D+00 RLast= 1.96D-02 DXMaxT set to 5.05D-01
 ITU=  1  0  1  1  0
 Use linear search instead of GDIIS.
     Eigenvalues ---    0.02502   0.02635   0.02679   0.02836   0.15757
     Eigenvalues ---    0.15990   0.22522   0.37637   0.40637   0.47960
     Eigenvalues ---    0.48767   0.54617   0.58860   0.73207   0.74121
 RFO step:  Lambda=-1.17664244D-06 EMin= 2.50168121D-02
 Quartic linear search produced a step of  0.00601.
 Iteration  1 RMS(Cart)=  0.00039354 RMS(Int)=  0.00000010
 Iteration  2 RMS(Cart)=  0.00000008 RMS(Int)=  0.00000003
 ClnCor:  largest displacement from symmetrization is 9.57D-14 for atom     1.
 Variable       Old X    -DE/DX   Delta X   Delta X   Delta X     New X
                                 (Linear)    (Quad)   (Total)
    R1        2.61253  -0.00053   0.00000  -0.00097  -0.00097   2.61156
    R2        2.56228  -0.00038  -0.00002  -0.00057  -0.00060   2.56168
    R3        2.06983   0.00011  -0.00001   0.00029   0.00028   2.07011
    R4        2.68354  -0.00003  -0.00002  -0.00001  -0.00003   2.68351
    R5        1.97575  -0.00012  -0.00001  -0.00024  -0.00026   1.97549
    R6        2.57449  -0.00003  -0.00002   0.00006   0.00004   2.57453
    R7        2.72664  -0.00006  -0.00002  -0.00003  -0.00005   2.72659
    A1        1.92215   0.00001   0.00000  -0.00023  -0.00022   1.92192
    A2        2.15187   0.00005   0.00001   0.00047   0.00048   2.15234
    A3        2.20917  -0.00006  -0.00001  -0.00024  -0.00025   2.20892
    A4        1.90618   0.00014   0.00003   0.00047   0.00050   1.90668
    A5        2.26017  -0.00016   0.00000  -0.00084  -0.00084   2.25933
    A6        2.11683   0.00002  -0.00003   0.00037   0.00035   2.11718
    A7        1.82456  -0.00011  -0.00006  -0.00027  -0.00033   1.82423
    A8        1.94389  -0.00015   0.00007  -0.00037  -0.00030   1.94359
    A9        1.82801   0.00012  -0.00004   0.00040   0.00036   1.82837
    D1        0.00000   0.00000   0.00000   0.00000   0.00000   0.00000
    D2        3.14159   0.00000   0.00000   0.00000   0.00000   3.14159
    D3        3.14159   0.00000   0.00000   0.00000   0.00000   3.14159
    D4        0.00000   0.00000   0.00000   0.00000   0.00000   0.00000
    D5        0.00000   0.00000   0.00000   0.00000   0.00000   0.00000
    D6        3.14159   0.00000   0.00000   0.00000   0.00000   3.14159
    D7        0.00000   0.00000   0.00000   0.00000   0.00000   0.00000
    D8        3.14159   0.00000   0.00000   0.00000   0.00000   3.14159
    D9        0.00000   0.00000   0.00000   0.00000   0.00000   0.00000
   D10        0.00000   0.00000   0.00000   0.00000   0.00000   0.00000
         Item               Value     Threshold  Converged?
 Maximum Force            0.000534     0.000450     NO 
 RMS     Force            0.000147     0.000300     YES
 Maximum Displacement     0.001233     0.001800     YES
 RMS     Displacement     0.000394     0.001200     YES
 Predicted change in Energy=-5.924531D-07
 GradGradGradGradGradGradGradGradGradGradGradGradGradGradGradGradGradGrad

                          Input orientation:                          
 ---------------------------------------------------------------------
 Center     Atomic      Atomic             Coordinates (Angstroms)
 Number     Number       Type             X           Y           Z
 ---------------------------------------------------------------------
      1          6           0        1.028823    0.015505    0.000000
      2          7           0        0.397721   -1.213955    0.000000
      3          7           0       -1.008759   -1.018097    0.000000
      4          7           0       -1.165176    0.335275    0.000000
      5          7           0        0.109349    1.011586    0.000000
      6          1           0        2.117977    0.132827    0.000000
      7          1           0        0.812521   -2.173523    0.000000
 ---------------------------------------------------------------------
                    Distance matrix (angstroms):
                    1          2          3          4          5
     1  C    0.000000
     2  N    1.381978   0.000000
     3  N    2.284747   1.420051   0.000000
     4  N    2.217179   2.200628   1.362381   0.000000
     5  N    1.355584   2.244146   2.317278   1.442848   0.000000
     6  H    1.095455   2.184744   3.331832   3.289389   2.192442
     7  H    2.199689   1.045384   2.156865   3.194582   3.261804
                    6          7
     6  H    0.000000
     7  H    2.650183   0.000000
 Stoichiometry    CH2N4
 Framework group  CS[SG(CH2N4)]
 Deg. of freedom    11
 Full point group                 CS      NOp   2
 Largest Abelian subgroup         CS      NOp   2
 Largest concise Abelian subgroup C1      NOp   1
                         Standard orientation:                         
 ---------------------------------------------------------------------
 Center     Atomic      Atomic             Coordinates (Angstroms)
 Number     Number       Type             X           Y           Z
 ---------------------------------------------------------------------
      1          6           0        1.097421    0.253449    0.000000
      2          7           0        0.000000    1.093408    0.000000
      3          7           0       -1.186544    0.313242    0.000000
      4          7           0       -0.747386   -0.976418    0.000000
      5          7           0        0.694029   -1.040723    0.000000
      6          1           0        2.131631    0.614603    0.000000
      7          1           0       -0.036847    2.138143    0.000000
 ---------------------------------------------------------------------
 Rotational constants (GHZ):      9.7196212      9.4390265      4.7886345
 Standard basis: STO-3G (5D, 7F)
 There are    22 symmetry adapted cartesian basis functions of A'  symmetry.
 There are     5 symmetry adapted cartesian basis functions of A"  symmetry.
 There are    22 symmetry adapted basis functions of A'  symmetry.
 There are     5 symmetry adapted basis functions of A"  symmetry.
    27 basis functions,    81 primitive gaussians,    27 cartesian basis functions
    18 alpha electrons       18 beta electrons
       nuclear repulsion energy       159.7406393422 Hartrees.
 NAtoms=    7 NActive=    7 NUniq=    7 SFac= 1.00D+00 NAtFMM=   60 NAOKFM=F Big=F
 Integral buffers will be    131072 words long.
 Raffenetti 2 integral format.
 Two-electron integral symmetry is turned on.
 One-electron integrals computed using PRISM.
 NBasis=    27 RedAO= T EigKep=  3.26D-01  NBF=    22     5
 NBsUse=    27 1.00D-06 EigRej= -1.00D+00 NBFU=    22     5
 Initial guess from the checkpoint file:  "/tmp/rdj3/g09-18029/Gau-3670.chk"
 B after Tr=     0.000000    0.000000    0.000000
         Rot=    1.000000    0.000000    0.000000   -0.000062 Ang=  -0.01 deg.
 Initial guess orbital symmetries:
       Occupied  (A') (A') (A') (A') (A') (A') (A') (A') (A') (A')
                 (A') (A') (A") (A') (A") (A") (A') (A')
       Virtual   (A') (A') (A') (A') (A') (A') (A') (A") (A")
 Keep R1 ints in memory in symmetry-blocked form, NReq=954538.
 Requested convergence on RMS density matrix=1.00D-08 within 128 cycles.
 Requested convergence on MAX density matrix=1.00D-06.
 Requested convergence on             energy=1.00D-06.
 No special actions if energy rises.
 SCF Done:  E(RB1B95) =  -254.846893645     A.U. after    8 cycles
            NFock=  8  Conv=0.60D-08     -V/T= 2.0177
 Calling FoFJK, ICntrl=      2127 FMM=F ISym2X=1 I1Cent= 0 IOpClX= 0 NMat=1 NMatS=1 NMatT=0.
 ***** Axes restored to original set *****
 -------------------------------------------------------------------
 Center     Atomic                   Forces (Hartrees/Bohr)
 Number     Number              X              Y              Z
 -------------------------------------------------------------------
      1        6          -0.000111991   -0.000068056    0.000000000
      2        7           0.000025705   -0.000046639    0.000000000
      3        7           0.000071931   -0.000062784    0.000000000
      4        7           0.000049502    0.000060052    0.000000000
      5        7          -0.000057900    0.000051294    0.000000000
      6        1          -0.000038216    0.000056757    0.000000000
      7        1           0.000060970    0.000009377    0.000000000
 -------------------------------------------------------------------
 Cartesian Forces:  Max     0.000111991 RMS     0.000048625

 GradGradGradGradGradGradGradGradGradGradGradGradGradGradGradGradGradGrad
 Berny optimization.
 Using GEDIIS/GDIIS optimizer.
 FormGI is forming the generalized inverse of G from B-inverse, IUseBI=4.
 Internal  Forces:  Max     0.000090487 RMS     0.000039007
 Search for a local minimum.
 Step number   6 out of a maximum of   36
 All quantities printed in internal units (Hartrees-Bohrs-Radians)
 Mixed Optimization -- En-DIIS/RFO-DIIS
 Swapping is turned off.
 Update second derivatives using D2CorX and points    1    2    3    4    5
                                                      6
 DE= -5.46D-07 DEPred=-5.92D-07 R= 9.22D-01
 Trust test= 9.22D-01 RLast= 1.79D-03 DXMaxT set to 5.05D-01
 ITU=  0  1  0  1  1  0
     Eigenvalues ---    0.02502   0.02635   0.02679   0.02836   0.14340
     Eigenvalues ---    0.15913   0.26129   0.38266   0.41445   0.47340
     Eigenvalues ---    0.49165   0.52726   0.55231   0.73563   0.78731
 En-DIIS/RFO-DIIS IScMMF=        0 using points:     6    5
 RFO step:  Lambda=-6.73350711D-08.
 DidBck=F Rises=F RFO-DIIS coefs:    0.96126    0.03874
 Iteration  1 RMS(Cart)=  0.00015599 RMS(Int)=  0.00000002
 Iteration  2 RMS(Cart)=  0.00000002 RMS(Int)=  0.00000000
 ClnCor:  largest displacement from symmetrization is 1.74D-14 for atom     1.
 Variable       Old X    -DE/DX   Delta X   Delta X   Delta X     New X
                                 (Linear)    (Quad)   (Total)
    R1        2.61156  -0.00003   0.00004  -0.00020  -0.00016   2.61140
    R2        2.56168   0.00002   0.00002  -0.00007  -0.00005   2.56164
    R3        2.07011  -0.00002  -0.00001  -0.00002  -0.00003   2.07008
    R4        2.68351  -0.00004   0.00000  -0.00005  -0.00005   2.68346
    R5        1.97549   0.00001   0.00001  -0.00001   0.00000   1.97549
    R6        2.57453   0.00008   0.00000   0.00012   0.00012   2.57464
    R7        2.72659  -0.00007   0.00000  -0.00012  -0.00012   2.72647
    A1        1.92192   0.00009   0.00001   0.00033   0.00034   1.92226
    A2        2.15234  -0.00002  -0.00002   0.00002   0.00000   2.15235
    A3        2.20892  -0.00007   0.00001  -0.00035  -0.00034   2.20858
    A4        1.90668  -0.00006  -0.00002  -0.00021  -0.00023   1.90645
    A5        2.25933   0.00001   0.00003  -0.00011  -0.00008   2.25925
    A6        2.11718   0.00005  -0.00001   0.00032   0.00031   2.11749
    A7        1.82423   0.00002   0.00001   0.00005   0.00006   1.82429
    A8        1.94359   0.00001   0.00001   0.00003   0.00005   1.94363
    A9        1.82837  -0.00006  -0.00001  -0.00021  -0.00022   1.82815
    D1        0.00000   0.00000   0.00000   0.00000   0.00000   0.00000
    D2        3.14159   0.00000   0.00000   0.00000   0.00000   3.14159
    D3        3.14159   0.00000   0.00000   0.00000   0.00000   3.14159
    D4        0.00000   0.00000   0.00000   0.00000   0.00000   0.00000
    D5        0.00000   0.00000   0.00000   0.00000   0.00000   0.00000
    D6        3.14159   0.00000   0.00000   0.00000   0.00000   3.14159
    D7        0.00000   0.00000   0.00000   0.00000   0.00000   0.00000
    D8        3.14159   0.00000   0.00000   0.00000   0.00000   3.14159
    D9        0.00000   0.00000   0.00000   0.00000   0.00000   0.00000
   D10        0.00000   0.00000   0.00000   0.00000   0.00000   0.00000
         Item               Value     Threshold  Converged?
 Maximum Force            0.000090     0.000450     YES
 RMS     Force            0.000039     0.000300     YES
 Maximum Displacement     0.000399     0.001800     YES
 RMS     Displacement     0.000156     0.001200     YES
 Predicted change in Energy=-6.179654D-08
 Optimization completed.
    -- Stationary point found.
                           ----------------------------
                           !   Optimized Parameters   !
                           ! (Angstroms and Degrees)  !
 --------------------------                            --------------------------
 ! Name  Definition              Value          Derivative Info.                !
 --------------------------------------------------------------------------------
 ! R1    R(1,2)                  1.382          -DE/DX =    0.0                 !
 ! R2    R(1,5)                  1.3556         -DE/DX =    0.0                 !
 ! R3    R(1,6)                  1.0955         -DE/DX =    0.0                 !
 ! R4    R(2,3)                  1.4201         -DE/DX =    0.0                 !
 ! R5    R(2,7)                  1.0454         -DE/DX =    0.0                 !
 ! R6    R(3,4)                  1.3624         -DE/DX =    0.0001              !
 ! R7    R(4,5)                  1.4428         -DE/DX =   -0.0001              !
 ! A1    A(2,1,5)              110.118          -DE/DX =    0.0001              !
 ! A2    A(2,1,6)              123.3203         -DE/DX =    0.0                 !
 ! A3    A(5,1,6)              126.5617         -DE/DX =   -0.0001              !
 ! A4    A(1,2,3)              109.2444         -DE/DX =   -0.0001              !
 ! A5    A(1,2,7)              129.4501         -DE/DX =    0.0                 !
 ! A6    A(3,2,7)              121.3054         -DE/DX =    0.0001              !
 ! A7    A(2,3,4)              104.5205         -DE/DX =    0.0                 !
 ! A8    A(3,4,5)              111.3593         -DE/DX =    0.0                 !
 ! A9    A(1,5,4)              104.7577         -DE/DX =   -0.0001              !
 ! D1    D(5,1,2,3)              0.0            -DE/DX =    0.0                 !
 ! D2    D(5,1,2,7)            180.0            -DE/DX =    0.0                 !
 ! D3    D(6,1,2,3)            180.0            -DE/DX =    0.0                 !
 ! D4    D(6,1,2,7)              0.0            -DE/DX =    0.0                 !
 ! D5    D(2,1,5,4)              0.0            -DE/DX =    0.0                 !
 ! D6    D(6,1,5,4)            180.0            -DE/DX =    0.0                 !
 ! D7    D(1,2,3,4)              0.0            -DE/DX =    0.0                 !
 ! D8    D(7,2,3,4)            180.0            -DE/DX =    0.0                 !
 ! D9    D(2,3,4,5)              0.0            -DE/DX =    0.0                 !
 ! D10   D(3,4,5,1)              0.0            -DE/DX =    0.0                 !
 --------------------------------------------------------------------------------
 GradGradGradGradGradGradGradGradGradGradGradGradGradGradGradGradGradGrad

                          Input orientation:                          
 ---------------------------------------------------------------------
 Center     Atomic      Atomic             Coordinates (Angstroms)
 Number     Number       Type             X           Y           Z
 ---------------------------------------------------------------------
      1          6           0        1.028823    0.015505    0.000000
      2          7           0        0.397721   -1.213955    0.000000
      3          7           0       -1.008759   -1.018097    0.000000
      4          7           0       -1.165176    0.335275    0.000000
      5          7           0        0.109349    1.011586    0.000000
      6          1           0        2.117977    0.132827    0.000000
      7          1           0        0.812521   -2.173523    0.000000
 ---------------------------------------------------------------------
                    Distance matrix (angstroms):
                    1          2          3          4          5
     1  C    0.000000
     2  N    1.381978   0.000000
     3  N    2.284747   1.420051   0.000000
     4  N    2.217179   2.200628   1.362381   0.000000
     5  N    1.355584   2.244146   2.317278   1.442848   0.000000
     6  H    1.095455   2.184744   3.331832   3.289389   2.192442
     7  H    2.199689   1.045384   2.156865   3.194582   3.261804
                    6          7
     6  H    0.000000
     7  H    2.650183   0.000000
 Stoichiometry    CH2N4
 Framework group  CS[SG(CH2N4)]
 Deg. of freedom    11
 Full point group                 CS      NOp   2
 Largest Abelian subgroup         CS      NOp   2
 Largest concise Abelian subgroup C1      NOp   1
                         Standard orientation:                         
 ---------------------------------------------------------------------
 Center     Atomic      Atomic             Coordinates (Angstroms)
 Number     Number       Type             X           Y           Z
 ---------------------------------------------------------------------
      1          6           0        1.097421    0.253449    0.000000
      2          7           0        0.000000    1.093408    0.000000
      3          7           0       -1.186544    0.313242    0.000000
      4          7           0       -0.747386   -0.976418    0.000000
      5          7           0        0.694029   -1.040723    0.000000
      6          1           0        2.131631    0.614603    0.000000
      7          1           0       -0.036847    2.138143    0.000000
 ---------------------------------------------------------------------
 Rotational constants (GHZ):      9.7196212      9.4390265      4.7886345

 **********************************************************************

            Population analysis using the SCF density.

 **********************************************************************

 Orbital symmetries:
       Occupied  (A') (A') (A') (A') (A') (A') (A') (A') (A') (A')
                 (A') (A') (A") (A') (A") (A") (A') (A')
       Virtual   (A") (A") (A') (A') (A') (A') (A') (A') (A')
 The electronic state is 1-A'.
 Alpha  occ. eigenvalues --  -14.40316 -14.33783 -14.30875 -14.28530 -10.20479
 Alpha  occ. eigenvalues --   -1.08878  -0.90729  -0.86193  -0.63980  -0.62024
 Alpha  occ. eigenvalues --   -0.55418  -0.44827  -0.43123  -0.31137  -0.26395
 Alpha  occ. eigenvalues --   -0.25249  -0.24519  -0.22956
 Alpha virt. eigenvalues --    0.05681   0.10220   0.23706   0.26311   0.36072
 Alpha virt. eigenvalues --    0.37348   0.39352   0.53674   0.59400
          Condensed to atoms (all electrons):
               1          2          3          4          5          6
     1  C    4.844155   0.394297  -0.049991  -0.040896   0.418375   0.386008
     2  N    0.394297   6.314836   0.270874  -0.044583  -0.045943  -0.019372
     3  N   -0.049991   0.270874   6.549825   0.314500  -0.024953   0.001052
     4  N   -0.040896  -0.044583   0.314500   6.573879   0.259343   0.001527
     5  N    0.418375  -0.045943  -0.024953   0.259343   6.562741  -0.016388
     6  H    0.386008  -0.019372   0.001052   0.001527  -0.016388   0.516851
     7  H   -0.022455   0.332814  -0.017381   0.001847   0.001405  -0.000528
               7
     1  C   -0.022455
     2  N    0.332814
     3  N   -0.017381
     4  N    0.001847
     5  N    0.001405
     6  H   -0.000528
     7  H    0.438608
 Mulliken charges:
               1
     1  C    0.070506
     2  N   -0.202922
     3  N   -0.043927
     4  N   -0.065618
     5  N   -0.154581
     6  H    0.130851
     7  H    0.265690
 Sum of Mulliken charges =   0.00000
 Mulliken charges with hydrogens summed into heavy atoms:
               1
     1  C    0.201357
     2  N    0.062768
     3  N   -0.043927
     4  N   -0.065618
     5  N   -0.154581
 Electronic spatial extent (au):  <R**2>=            263.5208
 Charge=              0.0000 electrons
 Dipole moment (field-independent basis, Debye):
    X=              2.1410    Y=              4.4408    Z=              0.0000  Tot=              4.9299
 Quadrupole moment (field-independent basis, Debye-Ang):
   XX=            -27.4151   YY=            -24.6779   ZZ=            -25.9071
   XY=              1.7621   XZ=              0.0000   YZ=              0.0000
 Traceless Quadrupole moment (field-independent basis, Debye-Ang):
   XX=             -1.4150   YY=              1.3221   ZZ=              0.0929
   XY=              1.7621   XZ=              0.0000   YZ=              0.0000
 Octapole moment (field-independent basis, Debye-Ang**2):
  XXX=              8.5392  YYY=             19.8553  ZZZ=              0.0000  XYY=             -0.5841
  XXY=              3.7540  XXZ=              0.0000  XZZ=             -1.1146  YZZ=             -0.3474
  YYZ=              0.0000  XYZ=              0.0000
 Hexadecapole moment (field-independent basis, Debye-Ang**3):
 XXXX=           -139.6992 YYYY=           -114.6942 ZZZZ=            -17.4397 XXXY=              5.9232
 XXXZ=              0.0000 YYYX=             -0.8454 YYYZ=              0.0000 ZZZX=              0.0000
 ZZZY=              0.0000 XXYY=            -51.1410 XXZZ=            -27.5847 YYZZ=            -25.9908
 XXYZ=              0.0000 YYXZ=              0.0000 ZZXY=             -0.4581
 N-N= 1.597406393422D+02 E-N=-9.130060433770D+02  KE= 2.504233858279D+02
 Symmetry A'   KE= 2.405739024875D+02
 Symmetry A"   KE= 9.849483340419D+00
 B after Tr=     0.038987   -0.022469    0.000000
         Rot=    0.999999    0.000000    0.000000   -0.001498 Ang=  -0.17 deg.
 Determination of dummy atom variables in z-matrix conversion failed.
 NNew=      5.88846040D+00 NOld=      5.88204383D+00 Diff= 6.42D-03
 1\1\GINC-N963\FOpt\RB1B95\STO-3G\C1H2N4\RDJ3\16-Dec-2013\0\\#B1B95/STO
 -3G opt freq\\1H-tetrazole CH2N4 casno=288948 state=1 config=1 method=
 55 basis=20\\0,1\C,1.0295010467,0.0152926134,0.\N,0.3983994836,-1.2141
 676886,0.\N,-1.008080251,-1.0183090042,0.\N,-1.1644978384,0.3350627017
 ,0.\N,0.1100277626,1.0113734396,0.\H,2.1186557053,0.1326146982,0.\H,0.
 8131987713,-2.1737354484,0.\\Version=EM64L-G09RevD.01\State=1-A'\HF=-2
 54.8468936\RMSD=5.962e-09\RMSF=4.863e-05\Dipole=1.5102767,-1.2169964,0
 .\Quadrupole=0.337465,-0.4065618,0.0690968,-1.6165382,0.,0.\PG=CS [SG(
 C1H2N4)]\\@


[...]
 Calling FoFJK, ICntrl=    100127 FMM=F ISym2X=1 I1Cent= 0 IOpClX= 0 NMat=1 NMatS=1 NMatT=0.
 Full mass-weighted force constant matrix:
 Low frequencies ---  -46.6552  -18.3836   -7.3560   -0.0007   -0.0006    0.0003
 Low frequencies ---  501.0735  648.6090  663.9991
 Diagonal vibrational polarizability:
        1.0916889       0.8264799      10.8490911
 Harmonic frequencies (cm**-1), IR intensities (KM/Mole), Raman scattering
 activities (A**4/AMU), depolarization ratios for plane and unpolarized
 incident light, reduced masses (AMU), force constants (mDyne/A),
 and normal coordinates:
                      1                      2                      3
                     A"                     A"                     A"
 Frequencies --    501.0731               648.6088               663.9991
 Red. masses --      1.9606                 2.0247                 7.2158
 Frc consts  --      0.2900                 0.5019                 1.8744
 IR Inten    --     82.3808                16.0923                 9.6961
  Atom  AN      X      Y      Z        X      Y      Z        X      Y      Z
     1   6     0.00   0.00  -0.09     0.00   0.00   0.19     0.00   0.00  -0.15
     2   7     0.00   0.00   0.23     0.00   0.00  -0.10     0.00   0.00  -0.05
     3   7     0.00   0.00  -0.11     0.00   0.00   0.11     0.00   0.00   0.36
     4   7     0.00   0.00   0.03     0.00   0.00   0.02     0.00   0.00  -0.46
     5   7     0.00   0.00   0.01     0.00   0.00  -0.16     0.00   0.00   0.34
     6   1     0.00   0.00  -0.20     0.00   0.00   0.42     0.00   0.00  -0.07
     7   1     0.00   0.00  -0.94     0.00   0.00  -0.86     0.00   0.00  -0.72
                      4                      5                      6
                     A"                     A'                     A'
 Frequencies --    850.6712               925.2610               967.9529
 Red. masses --      1.2646                 5.6567                 5.9607
 Frc consts  --      0.5392                 2.8533                 3.2904
 IR Inten    --     10.7007                 0.9648                 0.2638
  Atom  AN      X      Y      Z        X      Y      Z        X      Y      Z
     1   6     0.00   0.00  -0.15     0.09   0.12   0.00    -0.37  -0.06   0.00
     2   7     0.00   0.00   0.02     0.10   0.05   0.00     0.02   0.41   0.00
     3   7     0.00   0.00   0.00     0.21  -0.14   0.00     0.12  -0.08   0.00
     4   7     0.00   0.00   0.03     0.02  -0.22   0.00     0.18  -0.07   0.00
     5   7     0.00   0.00   0.01    -0.39   0.24   0.00    -0.01  -0.21   0.00
     6   1     0.00   0.00   0.99     0.32  -0.56   0.00    -0.25  -0.47   0.00
     7   1     0.00   0.00   0.04    -0.47   0.03   0.00     0.36   0.44   0.00
                      7                      8                      9
                     A'                     A'                     A'
 Frequencies --   1040.9174              1053.1534              1143.3870
 Red. masses --      3.9776                 3.7719                 1.4944
 Frc consts  --      2.5393                 2.4649                 1.1511
 IR Inten    --     17.4981                18.0461                 7.5145
  Atom  AN      X      Y      Z        X      Y      Z        X      Y      Z
     1   6    -0.03   0.03   0.00     0.09   0.05   0.00     0.06  -0.08   0.00
     2   7     0.05  -0.12   0.00     0.17   0.14   0.00    -0.07   0.03   0.00
     3   7    -0.23   0.02   0.00    -0.24  -0.19   0.00    -0.06  -0.02   0.00
     4   7     0.34   0.06   0.00    -0.19  -0.07   0.00     0.07   0.12   0.00
     5   7    -0.19   0.04   0.00     0.12   0.09   0.00     0.03   0.00   0.00
     6   1     0.00  -0.07   0.00     0.28  -0.44   0.00     0.31  -0.78   0.00
     7   1     0.87  -0.10   0.00     0.70   0.18   0.00    -0.51   0.02   0.00
                     10                     11                     12
                     A'                     A'                     A'
 Frequencies --   1250.6714              1266.7175              1486.5535
 Red. masses --      8.8783                 2.9763                 3.7182
 Frc consts  --      8.1821                 2.8137                 4.8411
 IR Inten    --      0.1921                 1.9342                16.7056
  Atom  AN      X      Y      Z        X      Y      Z        X      Y      Z
     1   6     0.13   0.00   0.00     0.20   0.08   0.00     0.25  -0.20   0.00
     2   7    -0.12   0.09   0.00     0.08   0.14   0.00    -0.29   0.14   0.00
     3   7    -0.17   0.50   0.00    -0.13  -0.05   0.00     0.08  -0.06   0.00
     4   7     0.06  -0.52   0.00     0.04   0.01   0.00     0.00   0.02   0.00
     5   7     0.09  -0.04   0.00    -0.12  -0.23   0.00    -0.07   0.05   0.00
     6   1     0.34  -0.51   0.00     0.04   0.66   0.00     0.09   0.36   0.00
     7   1    -0.04   0.12   0.00    -0.62   0.14   0.00     0.77   0.21   0.00
                     13                     14                     15
                     A'                     A'                     A'
 Frequencies --   1527.0777              3532.4822              3767.1845
 Red. masses --      3.6797                 1.1018                 1.0869
 Frc consts  --      5.0558                 8.1006                 9.0879
 IR Inten    --     30.3625                39.1223                94.4901
  Atom  AN      X      Y      Z        X      Y      Z        X      Y      Z
     1   6     0.06   0.36   0.00     0.09   0.03   0.00     0.01   0.00   0.00
     2   7    -0.14  -0.08   0.00     0.00   0.00   0.00     0.00   0.08   0.00
     3   7     0.11  -0.01   0.00     0.00   0.00   0.00     0.00   0.00   0.00
     4   7    -0.06   0.05   0.00     0.00   0.00   0.00     0.00   0.00   0.00
     5   7    -0.02  -0.23   0.00     0.00   0.00   0.00     0.00   0.00   0.00
     6   1     0.40  -0.54   0.00    -0.94  -0.33   0.00    -0.05  -0.01   0.00
     7   1     0.56  -0.06   0.00     0.00   0.06   0.00     0.04  -1.00   0.00

 -------------------
 - Thermochemistry -
 -------------------
 Temperature   298.150 Kelvin.  Pressure   1.00000 Atm.
 Atom     1 has atomic number  6 and mass  12.00000
 Atom     2 has atomic number  7 and mass  14.00307
 Atom     3 has atomic number  7 and mass  14.00307
 Atom     4 has atomic number  7 and mass  14.00307
 Atom     5 has atomic number  7 and mass  14.00307
 Atom     6 has atomic number  1 and mass   1.00783
 Atom     7 has atomic number  1 and mass   1.00783
 Molecular mass:    70.02795 amu.
 Principal axes and moments of inertia in atomic units:
                           1         2         3
     Eigenvalues --   185.68020 191.19993 376.88013
           X            0.90169   0.43239   0.00000
           Y           -0.43239   0.90169   0.00000
           Z            0.00000   0.00000   1.00000
 This molecule is an asymmetric top.
 Rotational symmetry number  1.
 Rotational temperatures (Kelvin)      0.46647     0.45300     0.22982
 Rotational constants (GHZ):           9.71962     9.43903     4.78863
 Zero-point vibrational energy     123369.1 (Joules/Mol)
                                   29.48593 (Kcal/Mol)
 Warning -- explicit consideration of   1 degrees of freedom as
           vibrations may cause significant error
 Vibrational temperatures:    720.93   933.20   955.35  1223.92  1331.24
          (Kelvin)           1392.67  1497.65  1515.25  1645.08  1799.44
                             1822.52  2138.82  2197.12  5082.45  5420.13
 
 Zero-point correction=                           0.046989 (Hartree/Particle)
 Thermal correction to Energy=                    0.050582
 Thermal correction to Enthalpy=                  0.051526
 Thermal correction to Gibbs Free Energy=         0.020718
 Sum of electronic and zero-point Energies=           -254.799905
 Sum of electronic and thermal Energies=              -254.796312
 Sum of electronic and thermal Enthalpies=            -254.795367
 Sum of electronic and thermal Free Energies=         -254.826175
 
                     E (Thermal)             CV                S
                      KCal/Mol        Cal/Mol-Kelvin    Cal/Mol-Kelvin
 Total                   31.741             11.878             64.841
 Electronic               0.000              0.000              0.000
 Translational            0.889              2.981             38.656
 Rotational               0.889              2.981             24.107
 Vibrational             29.963              5.917              2.078
 Vibration     1          0.856              1.248              0.655
                       Q            Log10(Q)             Ln(Q)
 Total Bot       0.295341D-09         -9.529677        -21.942892
 Total V=0       0.121237D+13         12.083637         27.823602
 Vib (Bot)       0.309661D-21        -21.509114        -49.526565
 Vib (Bot)    1  0.327690D+00         -0.484537         -1.115688
 Vib (V=0)       0.127116D+01          0.104200          0.239929
 Vib (V=0)    1  0.109781D+01          0.040528          0.093320
 Electronic      0.100000D+01          0.000000          0.000000
 Translational   0.230336D+08          7.362362         16.952466
 Rotational      0.414071D+05          4.617075         10.631207
 ***** Axes restored to original set *****
 -------------------------------------------------------------------
 Center     Atomic                   Forces (Hartrees/Bohr)
 Number     Number              X              Y              Z
 -------------------------------------------------------------------
      1        6          -0.000111972   -0.000068093    0.000000000
      2        7           0.000025720   -0.000046622    0.000000000
      3        7           0.000071939   -0.000062768    0.000000000
      4        7           0.000049473    0.000060047    0.000000000
      5        7          -0.000057904    0.000051293    0.000000000
      6        1          -0.000038223    0.000056759    0.000000000
      7        1           0.000060967    0.000009385    0.000000000
 -------------------------------------------------------------------
 Cartesian Forces:  Max     0.000111972 RMS     0.000048623
 FormGI is forming the generalized inverse of G from B-inverse, IUseBI=4.

 GradGradGradGradGradGradGradGradGradGradGradGradGradGradGradGradGradGrad
 Berny optimization.
 Internal  Forces:  Max     0.000090478 RMS     0.000039004
 Search for a local minimum.
 Step number   1 out of a maximum of    2
 All quantities printed in internal units (Hartrees-Bohrs-Radians)
 Second derivative matrix not updated -- analytic derivatives used.
 ITU=  0
     Eigenvalues ---    0.00717   0.02587   0.06315   0.07110   0.10223
     Eigenvalues ---    0.10756   0.19343   0.26181   0.35601   0.41668
     Eigenvalues ---    0.43692   0.46776   0.50333   0.57812   0.61790
 Angle between quadratic step and forces=  32.88 degrees.
 Linear search not attempted -- first point.
 Iteration  1 RMS(Cart)=  0.00013811 RMS(Int)=  0.00000001
 Iteration  2 RMS(Cart)=  0.00000001 RMS(Int)=  0.00000000
 ClnCor:  largest displacement from symmetrization is 1.98D-13 for atom     2.
 Variable       Old X    -DE/DX   Delta X   Delta X   Delta X     New X
                                 (Linear)    (Quad)   (Total)
    R1        2.61156  -0.00003   0.00000  -0.00012  -0.00012   2.61144
    R2        2.56168   0.00002   0.00000   0.00003   0.00003   2.56171
    R3        2.07011  -0.00002   0.00000  -0.00005  -0.00005   2.07006
    R4        2.68351  -0.00004   0.00000  -0.00001  -0.00001   2.68349
    R5        1.97549   0.00001   0.00000   0.00002   0.00002   1.97551
    R6        2.57453   0.00008   0.00000   0.00017   0.00017   2.57470
    R7        2.72659  -0.00007   0.00000  -0.00021  -0.00021   2.72638
    A1        1.92192   0.00009   0.00000   0.00022   0.00022   1.92215
    A2        2.15234  -0.00002   0.00000   0.00011   0.00011   2.15246
    A3        2.20892  -0.00007   0.00000  -0.00034  -0.00034   2.20858
    A4        1.90668  -0.00006   0.00000  -0.00016  -0.00016   1.90652
    A5        2.25933   0.00001   0.00000  -0.00014  -0.00014   2.25919
    A6        2.11718   0.00005   0.00000   0.00030   0.00030   2.11748
    A7        1.82423   0.00002   0.00000   0.00002   0.00002   1.82424
    A8        1.94359   0.00001   0.00000   0.00005   0.00005   1.94364
    A9        1.82837  -0.00006   0.00000  -0.00013  -0.00013   1.82824
    D1        0.00000   0.00000   0.00000   0.00000   0.00000   0.00000
    D2        3.14159   0.00000   0.00000   0.00000   0.00000   3.14159
    D3        3.14159   0.00000   0.00000   0.00000   0.00000   3.14159
    D4        0.00000   0.00000   0.00000   0.00000   0.00000   0.00000
    D5        0.00000   0.00000   0.00000   0.00000   0.00000   0.00000
    D6        3.14159   0.00000   0.00000   0.00000   0.00000   3.14159
    D7        0.00000   0.00000   0.00000   0.00000   0.00000   0.00000
    D8        3.14159   0.00000   0.00000   0.00000   0.00000   3.14159
    D9        0.00000   0.00000   0.00000   0.00000   0.00000   0.00000
   D10        0.00000   0.00000   0.00000   0.00000   0.00000   0.00000
         Item               Value     Threshold  Converged?
 Maximum Force            0.000090     0.000450     YES
 RMS     Force            0.000039     0.000300     YES
 Maximum Displacement     0.000318     0.001800     YES
 RMS     Displacement     0.000138     0.001200     YES
 Predicted change in Energy=-5.438173D-08
 Optimization completed.
    -- Stationary point found.
                           ----------------------------
                           !   Optimized Parameters   !
                           ! (Angstroms and Degrees)  !
 --------------------------                            --------------------------
 ! Name  Definition              Value          Derivative Info.                !
 --------------------------------------------------------------------------------
 ! R1    R(1,2)                  1.382          -DE/DX =    0.0                 !
 ! R2    R(1,5)                  1.3556         -DE/DX =    0.0                 !
 ! R3    R(1,6)                  1.0955         -DE/DX =    0.0                 !
 ! R4    R(2,3)                  1.4201         -DE/DX =    0.0                 !
 ! R5    R(2,7)                  1.0454         -DE/DX =    0.0                 !
 ! R6    R(3,4)                  1.3624         -DE/DX =    0.0001              !
 ! R7    R(4,5)                  1.4428         -DE/DX =   -0.0001              !
 ! A1    A(2,1,5)              110.118          -DE/DX =    0.0001              !
 ! A2    A(2,1,6)              123.3203         -DE/DX =    0.0                 !
 ! A3    A(5,1,6)              126.5617         -DE/DX =   -0.0001              !
 ! A4    A(1,2,3)              109.2444         -DE/DX =   -0.0001              !
 ! A5    A(1,2,7)              129.4501         -DE/DX =    0.0                 !
 ! A6    A(3,2,7)              121.3054         -DE/DX =    0.0001              !
 ! A7    A(2,3,4)              104.5205         -DE/DX =    0.0                 !
 ! A8    A(3,4,5)              111.3593         -DE/DX =    0.0                 !
 ! A9    A(1,5,4)              104.7577         -DE/DX =   -0.0001              !
 ! D1    D(5,1,2,3)              0.0            -DE/DX =    0.0                 !
 ! D2    D(5,1,2,7)            180.0            -DE/DX =    0.0                 !
 ! D3    D(6,1,2,3)            180.0            -DE/DX =    0.0                 !
 ! D4    D(6,1,2,7)              0.0            -DE/DX =    0.0                 !
 ! D5    D(2,1,5,4)              0.0            -DE/DX =    0.0                 !
 ! D6    D(6,1,5,4)            180.0            -DE/DX =    0.0                 !
 ! D7    D(1,2,3,4)              0.0            -DE/DX =    0.0                 !
 ! D8    D(7,2,3,4)            180.0            -DE/DX =    0.0                 !
 ! D9    D(2,3,4,5)              0.0            -DE/DX =    0.0                 !
 ! D10   D(3,4,5,1)              0.0            -DE/DX =    0.0                 !
 --------------------------------------------------------------------------------
 GradGradGradGradGradGradGradGradGradGradGradGradGradGradGradGradGradGrad

 1\1\GINC-N963\Freq\RB1B95\STO-3G\C1H2N4\RDJ3\16-Dec-2013\0\\#N Geom=Al
 lCheck Guess=TCheck SCRF=Check GenChk RB1B95/STO-3G Freq\\1H-tetrazole
  CH2N4 casno=288948 state=1 config=1 method=55 basis=20\\0,1\C,1.02882
 27764,0.0155050897,0.\N,0.3977212133,-1.2139552123,0.\N,-1.0087585214,
 -1.0180965279,0.\N,-1.1651761087,0.335275178,0.\N,0.1093494923,1.01158
 59159,0.\H,2.117977435,0.1328271745,0.\H,0.812520501,-2.1735229721,0.\
 \Version=EM64L-G09RevD.01\State=1-A'\HF=-254.8468936\RMSD=5.439e-09\RM
 SF=4.862e-05\ZeroPoint=0.0469888\Thermal=0.050582\Dipole=1.5102767,-1.
 2169967,0.\DipoleDeriv=0.0115682,0.1532213,0.,-0.150232,0.2182523,0.,0
 .,0.,0.104135,-0.365311,0.1396912,0.,0.1726531,-0.3403985,0.,0.,0.,-0.
 2028749,0.2101747,-0.2345116,0.,-0.0166416,-0.0778311,0.,0.,0.,-0.0571
 691,0.1816277,-0.0978934,0.,-0.038837,-0.2015923,0.,0.,0.,-0.1530773,-
 0.4579869,0.0294455,0.,0.0129449,0.00111,0.,0.,0.,-0.1653636,0.2144065
 ,0.0131792,0.,0.0456664,0.112848,0.,0.,0.,0.1298334,0.2055207,-0.00313
 22,0.,-0.0255538,0.2876115,0.,0.,0.,0.3445164\Polar=25.5203427,-1.0866
 79,24.2179947,0.,0.,6.1728215\PG=CS [SG(C1H2N4)]\NImag=0\\1.01821020,0
 .02334242,0.65437302,0.,0.,0.12442531,-0.17728468,-0.07650398,0.,0.632
 19726,-0.14107181,-0.32069514,0.,-0.11174686,1.03884456,0.,0.,-0.04974
 026,0.,0.,0.06832595,-0.07967407,-0.09624575,0.,-0.27153133,-0.0239078
 4,0.,0.46514401,0.01175953,-0.02000699,0.,0.00517577,-0.09143434,0.,0.
 05760827,0.52161887,0.,0.,0.01594280,0.,0.,-0.04970476,0.,0.,0.0878980
 9,-0.11323554,0.07610094,0.,-0.06250178,0.02390093,0.,-0.10408017,-0.0
 0536563,0.,0.46523871,-0.02930222,0.02717486,0.,0.09951707,-0.09277029
 ,0.,0.05484456,-0.32147428,0.,-0.07782987,0.47882846,0.,0.,0.01362704,
 0.,0.,0.01767471,0.,0.,-0.07559733,0.,0.,0.09990955,-0.23631993,0.1308
 4792,0.,0.01849634,0.09134060,0.,-0.02314133,-0.10093306,0.,-0.1729494
 2,-0.04964169,0.,0.42090822,0.15121216,-0.27980449,0.,-0.03132625,-0.0
 9851453,0.,0.00678346,-0.08578055,0.,-0.01770064,-0.09225923,0.,-0.092
 24666,0.54666339,0.,0.,-0.06598493,0.,0.,0.01945115,0.,0.,0.02806049,0
 .,0.,-0.07319594,0.,0.,0.09109142,-0.42588633,-0.04363252,0.,-0.003330
 15,0.00731117,0.,0.00354811,0.00258756,0.,-0.00073408,0.00005063,0.,-0
 .00615679,-0.00734777,0.,0.43149259,-0.03618854,-0.05976229,0.,-0.0351
 7585,0.00131527,0.,0.00120221,-0.00697737,0.,0.00517385,-0.00346838,0.
 ,0.02307087,0.01225529,0.,0.04170159,0.05633486,0.,0.,-0.02907996,0.,0
 .,-0.00233483,0.,0.,0.00497802,0.,0.,0.01000674,0.,0.,-0.00573537,0.,0
 .,0.02309766,0.01419035,-0.01390903,0.,-0.13604568,0.15417380,0.,0.009
 73478,0.02916756,0.,-0.01173773,0.00236153,0.,-0.00083709,-0.00937430,
 0.,0.00106665,0.00021588,0.,0.12362871,0.02024847,-0.00127896,0.,0.150
 06010,-0.43674553,0.,-0.00028491,0.00405467,0.,-0.00427958,0.00396886,
 0.,-0.00243797,-0.00255988,0.,-0.00067066,0.00030263,0.,-0.16263544,0.
 43225822,0.,0.,-0.00919000,0.,0.,-0.00367196,0.,0.,-0.01157731,0.,0.,0
 .00757524,0.,0.,0.00631318,0.,0.,-0.00093226,0.,0.,0.01148310\\0.00011
 197,0.00006809,0.,-0.00002572,0.00004662,0.,-0.00007194,0.00006277,0.,
 -0.00004947,-0.00006005,0.,0.00005790,-0.00005129,0.,0.00003822,-0.000
 05676,0.,-0.00006097,-0.00000938,0.\\\@


 The juvenile sea squirt wanders through the sea searching
 for a suitable rock or hunk of coral to cling to and make
 its home for life.  For this task it has a rudimentary
 nervous system.  When it finds its spot and takes root, it
 doesn't need its brain any more so it eats it.
 It's rather like getting tenure.

                               -- source unknown
 Job cpu time:       0 days  0 hours  0 minutes 26.7 seconds.
 File lengths (MBytes):  RWF=      5 Int=      0 D2E=      0 Chk=      1 Scr=      1
 Normal termination of Gaussian 09 at Mon Dec 16 15:34:27 2013.
