 Entering Gaussian System, Link 0=g09
 Initial command:
 /usr/local/gaussian/g09.d01.em64t.legacy.linda/g09/l1.exe "/tmp/rdj3/g09-18029/Gau-2485.inp" -scrdir="/tmp/rdj3/g09-18029/"
 Entering Link 1 = /usr/local/gaussian/g09.d01.em64t.legacy.linda/g09/l1.exe PID=      2486.
  
 Copyright (c) 1988,1990,1992,1993,1995,1998,2003,2009,2013,
            Gaussian, Inc.  All Rights Reserved.
  
 This is part of the Gaussian(R) 09 program.  It is based on
 the Gaussian(R) 03 system (copyright 2003, Gaussian, Inc.),
 the Gaussian(R) 98 system (copyright 1998, Gaussian, Inc.),
 the Gaussian(R) 94 system (copyright 1995, Gaussian, Inc.),
 the Gaussian 92(TM) system (copyright 1992, Gaussian, Inc.),
 the Gaussian 90(TM) system (copyright 1990, Gaussian, Inc.),
 the Gaussian 88(TM) system (copyright 1988, Gaussian, Inc.),
 the Gaussian 86(TM) system (copyright 1986, Carnegie Mellon
 University), and the Gaussian 82(TM) system (copyright 1983,
 Carnegie Mellon University). Gaussian is a federally registered
 trademark of Gaussian, Inc.
  
 This software contains proprietary and confidential information,
 including trade secrets, belonging to Gaussian, Inc.
  
 This software is provided under written license and may be
 used, copied, transmitted, or stored only in accord with that
 written license.
  
 The following legend is applicable only to US Government
 contracts under FAR:
  
                    RESTRICTED RIGHTS LEGEND
  
 Use, reproduction and disclosure by the US Government is
 subject to restrictions as set forth in subparagraphs (a)
 and (c) of the Commercial Computer Software - Restricted
 Rights clause in FAR 52.227-19.
  
 Gaussian, Inc.
 340 Quinnipiac St., Bldg. 40, Wallingford CT 06492
  
  
 ---------------------------------------------------------------
 Warning -- This program may not be used in any manner that
 competes with the business of Gaussian, Inc. or will provide
 assistance to any competitor of Gaussian, Inc.  The licensee
 of this program is prohibited from giving any competitor of
 Gaussian, Inc. access to this program.  By using this program,
 the user acknowledges that Gaussian, Inc. is engaged in the
 business of creating and licensing software in the field of
 computational chemistry and represents and warrants to the
 licensee that it is not a competitor of Gaussian, Inc. and that
 it will not use this program in any manner prohibited above.
 ---------------------------------------------------------------
  

 Cite this work as:
 Gaussian 09, Revision D.01,
 M. J. Frisch, G. W. Trucks, H. B. Schlegel, G. E. Scuseria, 
 M. A. Robb, J. R. Cheeseman, G. Scalmani, V. Barone, B. Mennucci, 
 G. A. Petersson, H. Nakatsuji, M. Caricato, X. Li, H. P. Hratchian, 
 A. F. Izmaylov, J. Bloino, G. Zheng, J. L. Sonnenberg, M. Hada, 
 M. Ehara, K. Toyota, R. Fukuda, J. Hasegawa, M. Ishida, T. Nakajima, 
 Y. Honda, O. Kitao, H. Nakai, T. Vreven, J. A. Montgomery, Jr., 
 J. E. Peralta, F. Ogliaro, M. Bearpark, J. J. Heyd, E. Brothers, 
 K. N. Kudin, V. N. Staroverov, T. Keith, R. Kobayashi, J. Normand, 
 K. Raghavachari, A. Rendell, J. C. Burant, S. S. Iyengar, J. Tomasi, 
 M. Cossi, N. Rega, J. M. Millam, M. Klene, J. E. Knox, J. B. Cross, 
 V. Bakken, C. Adamo, J. Jaramillo, R. Gomperts, R. E. Stratmann, 
 O. Yazyev, A. J. Austin, R. Cammi, C. Pomelli, J. W. Ochterski, 
 R. L. Martin, K. Morokuma, V. G. Zakrzewski, G. A. Voth, 
 P. Salvador, J. J. Dannenberg, S. Dapprich, A. D. Daniels, 
 O. Farkas, J. B. Foresman, J. V. Ortiz, J. Cioslowski, 
 and D. J. Fox, Gaussian, Inc., Wallingford CT, 2013.
 
 ******************************************
 Gaussian 09:  EM64L-G09RevD.01 24-Apr-2013
                16-Dec-2013 
 ******************************************
 %Nproc=8
 Will use up to    8 processors via shared memory.
 %mem=436000000
 ---------------------------
 #B1B95/aug-cc-pVDZ opt freq
 ---------------------------
 1/14=-1,18=20,19=15,26=3,38=1/1,3;
 2/9=110,12=2,17=6,18=5,40=1/2;
 3/5=16,7=10,11=2,16=1,25=1,30=1,71=1,74=-17/1,2,3;
 4//1;
 5/5=2,38=5/2;
 6/7=2,8=2,9=2,10=2,28=1/1;
 7//1,2,3,16;
 1/14=-1,18=20,19=15,26=3/3(2);
 2/9=110/2;
 99//99;
 2/9=110/2;
 3/5=16,7=10,11=2,16=1,25=1,30=1,71=1,74=-17/1,2,3;
 4/5=5,16=3,69=1/1;
 5/5=2,38=5/2;
 7//1,2,3,16;
 1/14=-1,18=20,19=15,26=3/3(-5);
 2/9=110/2;
 6/7=2,8=2,9=2,10=2,19=2,28=1/1;
 99/9=1/99;
 -------------------------------------------------------------------
 1H-tetrazole CH2N4 casno=288948 state=1 config=1 method=55 basis=17
 -------------------------------------------------------------------
 Symbolic Z-matrix:
 Charge =  0 Multiplicity = 1
 X
 X                    1     1. 
 C                    1     1.       2     90. 
 N                    1    rn1      2     90.      3    an1      0
 N                    1    rn2      2     90.      3    an2      0
 N                    1    rn3      2     90.      3    an3      0
 N                    1    rn4      2     90.      3    an4      0
 H                    3    rch      4    ach      5     180.     0
 H                    4    rnh      5    anh      6     180.     0
       Variables:
  rn1                   1.2426                   
  rn2                   1.333                    
  rn3                   1.1146                   
  rn4                   0.9264                   
  rch                   1.0678                   
  rnh                   0.9941                   
  an1                  71.8427                   
  an2                 133.7028                   
  an3                 194.4597                   
  an4                 276.0768                   
  ach                 125.0248                   
  anh                 120.7626                   
 

 GradGradGradGradGradGradGradGradGradGradGradGradGradGradGradGradGradGrad
 Berny optimization.
 Initialization pass.
                           ----------------------------
                           !    Initial Parameters    !
                           ! (Angstroms and Degrees)  !
 --------------------------                            --------------------------
 ! Name  Definition              Value          Derivative Info.                !
 --------------------------------------------------------------------------------
 ! R1    R(1,2)                  1.3303         estimate D2E/DX2                !
 ! R2    R(1,5)                  1.2892         estimate D2E/DX2                !
 ! R3    R(1,6)                  1.0678         estimate D2E/DX2                !
 ! R4    R(2,3)                  1.3261         estimate D2E/DX2                !
 ! R5    R(2,7)                  0.9941         estimate D2E/DX2                !
 ! R6    R(3,4)                  1.252          estimate D2E/DX2                !
 ! R7    R(4,5)                  1.3414         estimate D2E/DX2                !
 ! A1    A(2,1,5)              108.177          estimate D2E/DX2                !
 ! A2    A(2,1,6)              125.0248         estimate D2E/DX2                !
 ! A3    A(5,1,6)              126.7982         estimate D2E/DX2                !
 ! A4    A(1,2,3)              108.008          estimate D2E/DX2                !
 ! A5    A(1,2,7)              131.2294         estimate D2E/DX2                !
 ! A6    A(3,2,7)              120.7626         estimate D2E/DX2                !
 ! A7    A(2,3,4)              106.684          estimate D2E/DX2                !
 ! A8    A(3,4,5)              111.3724         estimate D2E/DX2                !
 ! A9    A(1,5,4)              105.7586         estimate D2E/DX2                !
 ! D1    D(5,1,2,3)              0.0            estimate D2E/DX2                !
 ! D2    D(5,1,2,7)            180.0            estimate D2E/DX2                !
 ! D3    D(6,1,2,3)            180.0            estimate D2E/DX2                !
 ! D4    D(6,1,2,7)              0.0            estimate D2E/DX2                !
 ! D5    D(2,1,5,4)              0.0            estimate D2E/DX2                !
 ! D6    D(6,1,5,4)            180.0            estimate D2E/DX2                !
 ! D7    D(1,2,3,4)              0.0            estimate D2E/DX2                !
 ! D8    D(7,2,3,4)            180.0            estimate D2E/DX2                !
 ! D9    D(2,3,4,5)              0.0            estimate D2E/DX2                !
 ! D10   D(3,4,5,1)              0.0            estimate D2E/DX2                !
 --------------------------------------------------------------------------------
 Trust Radius=3.00D-01 FncErr=1.00D-07 GrdErr=1.00D-06
 Number of steps in this run=     36 maximum allowed number of steps=    100.
 GradGradGradGradGradGradGradGradGradGradGradGradGradGradGradGradGradGrad

                          Input orientation:                          
 ---------------------------------------------------------------------
 Center     Atomic      Atomic             Coordinates (Angstroms)
 Number     Number       Type             X           Y           Z
 ---------------------------------------------------------------------
      1          6           0        1.000000    0.000000    0.000000
      2          7           0        0.387228   -1.180724    0.000000
      3          7           0       -0.920993   -0.963670    0.000000
      4          7           0       -1.079293    0.278314    0.000000
      5          7           0        0.098070    0.921194    0.000000
      6          1           0        2.058429    0.141157    0.000000
      7          1           0        0.749017   -2.106652    0.000000
 ---------------------------------------------------------------------
                    Distance matrix (angstroms):
                    1          2          3          4          5
     1  C    0.000000
     2  N    1.330263   0.000000
     3  N    2.149157   1.326105   0.000000
     4  N    2.097837   2.068690   1.252032   0.000000
     5  N    1.289216   2.121715   2.142710   1.341447   0.000000
     6  H    1.067800   2.130794   3.177672   3.140719   2.109850
     7  H    2.121551   0.994100   2.023695   3.005127   3.097029
                    6          7
     6  H    0.000000
     7  H    2.601385   0.000000
 Stoichiometry    CH2N4
 Framework group  CS[SG(CH2N4)]
 Deg. of freedom    11
 Full point group                 CS      NOp   2
 Largest Abelian subgroup         CS      NOp   2
 Largest concise Abelian subgroup C1      NOp   1
                         Standard orientation:                         
 ---------------------------------------------------------------------
 Center     Atomic      Atomic             Coordinates (Angstroms)
 Number     Number       Type             X           Y           Z
 ---------------------------------------------------------------------
      1          6           0        1.052733    0.225621    0.000000
      2          7           0        0.000000    1.038857    0.000000
      3          7           0       -1.095416    0.291448    0.000000
      4          7           0       -0.716382   -0.901832    0.000000
      5          7           0        0.622191   -0.989579    0.000000
      6          1           0        2.072287    0.542964    0.000000
      7          1           0       -0.061439    2.031056    0.000000
 ---------------------------------------------------------------------
 Rotational constants (GHZ):     10.9201517     10.7345054      5.4132664
 Standard basis: Aug-CC-pVDZ (5D, 7F)
 There are   104 symmetry adapted cartesian basis functions of A'  symmetry.
 There are    39 symmetry adapted cartesian basis functions of A"  symmetry.
 There are    94 symmetry adapted basis functions of A'  symmetry.
 There are    39 symmetry adapted basis functions of A"  symmetry.
   133 basis functions,   237 primitive gaussians,   143 cartesian basis functions
    18 alpha electrons       18 beta electrons
       nuclear repulsion energy       169.8308489506 Hartrees.
 NAtoms=    7 NActive=    7 NUniq=    7 SFac= 1.00D+00 NAtFMM=   60 NAOKFM=F Big=F
 Integral buffers will be    131072 words long.
 Raffenetti 2 integral format.
 Two-electron integral symmetry is turned on.
 One-electron integrals computed using PRISM.
 NBasis=   133 RedAO= T EigKep=  1.19D-04  NBF=    94    39
 NBsUse=   133 1.00D-06 EigRej= -1.00D+00 NBFU=    94    39
 ExpMin= 2.97D-02 ExpMax= 9.05D+03 ExpMxC= 3.09D+02 IAcc=3 IRadAn=         5 AccDes= 0.00D+00
 Harris functional with IExCor=  409 and IRadAn=       5 diagonalized for initial guess.
 HarFok:  IExCor=  409 AccDes= 0.00D+00 IRadAn=         5 IDoV= 1 UseB2=F ITyADJ=14
 ICtDFT=  3500011 ScaDFX=  1.000000  1.000000  1.000000  1.000000
 FoFCou: FMM=F IPFlag=           0 FMFlag=      100000 FMFlg1=           0
         NFxFlg=           0 DoJE=T BraDBF=F KetDBF=T FulRan=T
         wScrn=  0.000000 ICntrl=     500 IOpCl=  0 I1Cent=   200000004 NGrid=           0
         NMat0=    1 NMatS0=      1 NMatT0=    0 NMatD0=    1 NMtDS0=    0 NMtDT0=    0
 Petite list used in FoFCou.
 Initial guess orbital symmetries:
       Occupied  (A') (A') (A') (A') (A') (A') (A') (A') (A') (A')
                 (A') (A') (A") (A') (A") (A') (A") (A')
       Virtual   (A") (A") (A') (A') (A') (A") (A') (A') (A') (A')
                 (A') (A') (A") (A") (A') (A') (A') (A') (A") (A')
                 (A") (A') (A') (A') (A') (A") (A') (A') (A') (A')
                 (A") (A') (A') (A') (A") (A') (A") (A') (A') (A')
                 (A') (A') (A") (A") (A') (A') (A") (A') (A") (A')
                 (A') (A") (A") (A') (A') (A') (A") (A') (A') (A')
                 (A") (A') (A") (A') (A') (A") (A") (A') (A') (A")
                 (A') (A") (A') (A") (A') (A') (A') (A") (A') (A')
                 (A') (A") (A') (A") (A') (A') (A") (A') (A") (A')
                 (A") (A') (A') (A') (A') (A') (A") (A') (A') (A")
                 (A') (A") (A') (A") (A') (A') (A') (A") (A') (A')
                 (A') (A') (A') (A') (A')
 The electronic state of the initial guess is 1-A'.
 Keep R1 ints in memory in symmetry-blocked form, NReq=60288506.
 Requested convergence on RMS density matrix=1.00D-08 within 128 cycles.
 Requested convergence on MAX density matrix=1.00D-06.
 Requested convergence on             energy=1.00D-06.
 No special actions if energy rises.
 SCF Done:  E(RB1B95) =  -258.205489661     A.U. after   12 cycles
            NFock= 12  Conv=0.62D-08     -V/T= 2.0040

 **********************************************************************

            Population analysis using the SCF density.

 **********************************************************************

 Orbital symmetries:
       Occupied  (A') (A') (A') (A') (A') (A') (A') (A') (A') (A')
                 (A') (A") (A') (A') (A") (A") (A') (A')
       Virtual   (A') (A") (A') (A") (A') (A") (A') (A') (A') (A')
                 (A') (A") (A") (A') (A') (A') (A') (A") (A") (A')
                 (A') (A') (A') (A') (A') (A") (A') (A') (A') (A")
                 (A') (A') (A') (A') (A") (A') (A') (A") (A') (A')
                 (A') (A') (A") (A') (A') (A") (A') (A") (A") (A')
                 (A') (A") (A") (A') (A') (A") (A') (A') (A') (A")
                 (A') (A') (A") (A') (A") (A') (A") (A') (A') (A")
                 (A') (A") (A') (A") (A') (A') (A') (A") (A') (A')
                 (A') (A") (A") (A') (A') (A') (A") (A') (A") (A')
                 (A") (A') (A') (A') (A') (A') (A") (A') (A') (A")
                 (A') (A") (A') (A") (A') (A') (A') (A") (A') (A')
                 (A') (A') (A') (A') (A')
 The electronic state is 1-A'.
 Alpha  occ. eigenvalues --  -14.56589 -14.53321 -14.51563 -14.48521 -10.37421
 Alpha  occ. eigenvalues --   -1.20586  -0.99156  -0.94082  -0.71404  -0.70116
 Alpha  occ. eigenvalues --   -0.63093  -0.53720  -0.52575  -0.40977  -0.35722
 Alpha  occ. eigenvalues --   -0.33668  -0.32598  -0.31178
 Alpha virt. eigenvalues --   -0.01390  -0.01107   0.01578   0.02169   0.04989
 Alpha virt. eigenvalues --    0.05861   0.07083   0.08550   0.09672   0.10647
 Alpha virt. eigenvalues --    0.11449   0.12638   0.14088   0.15223   0.16391
 Alpha virt. eigenvalues --    0.18689   0.18983   0.19677   0.21112   0.21516
 Alpha virt. eigenvalues --    0.21911   0.23610   0.25874   0.26506   0.27969
 Alpha virt. eigenvalues --    0.29385   0.31403   0.31985   0.32953   0.35474
 Alpha virt. eigenvalues --    0.38974   0.41600   0.44624   0.44928   0.46696
 Alpha virt. eigenvalues --    0.48311   0.49029   0.49968   0.53706   0.55695
 Alpha virt. eigenvalues --    0.57653   0.59725   0.61220   0.62741   0.65569
 Alpha virt. eigenvalues --    0.65665   0.68228   0.68570   0.73236   0.73347
 Alpha virt. eigenvalues --    0.79816   0.83224   0.83708   0.83809   0.86014
 Alpha virt. eigenvalues --    0.87539   0.88183   0.90994   0.93361   0.96853
 Alpha virt. eigenvalues --    0.97223   1.00654   1.04385   1.04776   1.13289
 Alpha virt. eigenvalues --    1.13303   1.14942   1.18167   1.22599   1.30537
 Alpha virt. eigenvalues --    1.33494   1.37824   1.40541   1.43542   1.49263
 Alpha virt. eigenvalues --    1.53361   1.57857   1.62272   1.64710   1.71374
 Alpha virt. eigenvalues --    1.78498   1.80183   1.85025   1.85527   1.88974
 Alpha virt. eigenvalues --    1.93844   1.96884   2.02796   2.04894   2.09012
 Alpha virt. eigenvalues --    2.12010   2.13903   2.17056   2.25629   2.28850
 Alpha virt. eigenvalues --    2.30737   2.36381   2.39150   2.42837   2.50883
 Alpha virt. eigenvalues --    2.55511   2.56903   2.61321   2.62815   2.63802
 Alpha virt. eigenvalues --    2.75017   2.76283   2.86979   2.97635   2.99802
 Alpha virt. eigenvalues --    3.10480   3.18953   3.22674   3.58517   3.83447
          Condensed to atoms (all electrons):
               1          2          3          4          5          6
     1  C    4.938684   0.324567  -0.319581  -0.026929   0.283983   0.019979
     2  N    0.324567   6.963805  -0.690371   0.286559  -0.348426  -0.089955
     3  N   -0.319581  -0.690371   8.808812  -1.009600   0.505922   0.021583
     4  N   -0.026929   0.286559  -1.009600   8.850986  -0.875224   0.003771
     5  N    0.283983  -0.348426   0.505922  -0.875224   7.767431  -0.034911
     6  H    0.019979  -0.089955   0.021583   0.003771  -0.034911   1.317844
     7  H   -0.158255   0.517447  -0.234141   0.038744  -0.019637   0.010178
               7
     1  C   -0.158255
     2  N    0.517447
     3  N   -0.234141
     4  N    0.038744
     5  N   -0.019637
     6  H    0.010178
     7  H    0.941033
 Mulliken charges:
               1
     1  C    0.937551
     2  N    0.036374
     3  N   -0.082624
     4  N   -0.268307
     5  N   -0.279138
     6  H   -0.248489
     7  H   -0.095368
 Sum of Mulliken charges =   0.00000
 Mulliken charges with hydrogens summed into heavy atoms:
               1
     1  C    0.689062
     2  N   -0.058994
     3  N   -0.082624
     4  N   -0.268307
     5  N   -0.279138
 Electronic spatial extent (au):  <R**2>=            244.8195
 Charge=              0.0000 electrons
 Dipole moment (field-independent basis, Debye):
    X=              2.4740    Y=              4.7095    Z=              0.0000  Tot=              5.3198
 Quadrupole moment (field-independent basis, Debye-Ang):
   XX=            -28.9737   YY=            -26.5541   ZZ=            -28.4534
   XY=              1.8067   XZ=              0.0000   YZ=              0.0000
 Traceless Quadrupole moment (field-independent basis, Debye-Ang):
   XX=             -0.9800   YY=              1.4396   ZZ=             -0.4597
   XY=              1.8067   XZ=              0.0000   YZ=              0.0000
 Octapole moment (field-independent basis, Debye-Ang**2):
  XXX=             11.9280  YYY=             22.2127  ZZZ=              0.0000  XYY=             -0.6489
  XXY=              4.6271  XXZ=              0.0000  XZZ=             -0.4754  YZZ=              0.7701
  YYZ=              0.0000  XYZ=              0.0000
 Hexadecapole moment (field-independent basis, Debye-Ang**3):
 XXXX=           -142.8579 YYYY=           -121.3741 ZZZZ=            -27.1639 XXXY=              6.8179
 XXXZ=              0.0000 YYYX=             -0.1434 YYYZ=              0.0000 ZZZX=              0.0000
 ZZZY=              0.0000 XXYY=            -53.9949 XXZZ=            -30.8122 YYZZ=            -29.2540
 XXYZ=              0.0000 YYXZ=              0.0000 ZZXY=              0.0590
 N-N= 1.698308489506D+02 E-N=-9.424222348291D+02  KE= 2.571881377805D+02
 Symmetry A'   KE= 2.477476762037D+02
 Symmetry A"   KE= 9.440461576775D+00
 Calling FoFJK, ICntrl=      2127 FMM=F ISym2X=1 I1Cent= 0 IOpClX= 0 NMat=1 NMatS=1 NMatT=0.
 ***** Axes restored to original set *****
 -------------------------------------------------------------------
 Center     Atomic                   Forces (Hartrees/Bohr)
 Number     Number              X              Y              Z
 -------------------------------------------------------------------
      1        6           0.014935869   -0.007447701    0.000000000
      2        7           0.002662662   -0.002304536    0.000000000
      3        7          -0.010064691   -0.037153740    0.000000000
      4        7          -0.016497281    0.031399178    0.000000000
      5        7          -0.005580077    0.026458301    0.000000000
      6        1           0.009758430    0.001194153    0.000000000
      7        1           0.004785087   -0.012145654    0.000000000
 -------------------------------------------------------------------
 Cartesian Forces:  Max     0.037153740 RMS     0.013851185

 GradGradGradGradGradGradGradGradGradGradGradGradGradGradGradGradGradGrad
 Berny optimization.
 FormGI is forming the generalized inverse of G from B-inverse, IUseBI=4.
 Internal  Forces:  Max     0.037754010 RMS     0.010873847
 Search for a local minimum.
 Step number   1 out of a maximum of   36
 All quantities printed in internal units (Hartrees-Bohrs-Radians)
 Mixed Optimization -- RFO/linear search
 Second derivative matrix not updated -- first step.
 ITU=  0
     Eigenvalues ---    0.02505   0.02639   0.02674   0.02834   0.16000
     Eigenvalues ---    0.16000   0.22605   0.24688   0.37510   0.48741
     Eigenvalues ---    0.50870   0.56601   0.58498   0.66939   0.78934
 RFO step:  Lambda=-4.45900676D-03 EMin= 2.50488176D-02
 Linear search not attempted -- first point.
 Iteration  1 RMS(Cart)=  0.01719466 RMS(Int)=  0.00002065
 Iteration  2 RMS(Cart)=  0.00001947 RMS(Int)=  0.00001000
 Iteration  3 RMS(Cart)=  0.00000000 RMS(Int)=  0.00001000
 ClnCor:  largest displacement from symmetrization is 1.53D-11 for atom     1.
 Variable       Old X    -DE/DX   Delta X   Delta X   Delta X     New X
                                 (Linear)    (Quad)   (Total)
    R1        2.51383   0.01590   0.00000   0.02464   0.02463   2.53846
    R2        2.43626   0.02675   0.00000   0.03705   0.03704   2.47331
    R3        2.01785   0.00983   0.00000   0.02589   0.02589   2.04374
    R4        2.50598   0.01458   0.00000   0.02369   0.02368   2.52966
    R5        1.87858   0.01306   0.00000   0.02655   0.02655   1.90512
    R6        2.36600   0.03775   0.00000   0.04679   0.04680   2.41280
    R7        2.53497   0.01330   0.00000   0.02465   0.02467   2.55963
    A1        1.88804   0.00237   0.00000   0.00307   0.00305   1.89110
    A2        2.18209  -0.00127   0.00000  -0.00205  -0.00204   2.18006
    A3        2.21305  -0.00110   0.00000  -0.00102  -0.00102   2.21203
    A4        1.88509   0.00226   0.00000   0.00406   0.00404   1.88914
    A5        2.29039  -0.00118   0.00000  -0.00237  -0.00236   2.28803
    A6        2.10770  -0.00107   0.00000  -0.00170  -0.00169   2.10602
    A7        1.86199  -0.00198   0.00000  -0.00443  -0.00442   1.85757
    A8        1.94382  -0.00174   0.00000   0.00100   0.00103   1.94484
    A9        1.84584  -0.00090   0.00000  -0.00371  -0.00370   1.84213
    D1        0.00000   0.00000   0.00000   0.00000   0.00000   0.00000
    D2        3.14159   0.00000   0.00000   0.00000   0.00000   3.14159
    D3        3.14159   0.00000   0.00000   0.00000   0.00000   3.14159
    D4        0.00000   0.00000   0.00000   0.00000   0.00000   0.00000
    D5        0.00000   0.00000   0.00000   0.00000   0.00000   0.00000
    D6        3.14159   0.00000   0.00000   0.00000   0.00000   3.14159
    D7        0.00000   0.00000   0.00000   0.00000   0.00000   0.00000
    D8        3.14159   0.00000   0.00000   0.00000   0.00000   3.14159
    D9        0.00000   0.00000   0.00000   0.00000   0.00000   0.00000
   D10        0.00000   0.00000   0.00000   0.00000   0.00000   0.00000
         Item               Value     Threshold  Converged?
 Maximum Force            0.037754     0.000450     NO 
 RMS     Force            0.010874     0.000300     NO 
 Maximum Displacement     0.038386     0.001800     NO 
 RMS     Displacement     0.017189     0.001200     NO 
 Predicted change in Energy=-2.244440D-03
 GradGradGradGradGradGradGradGradGradGradGradGradGradGradGradGradGradGrad

                          Input orientation:                          
 ---------------------------------------------------------------------
 Center     Atomic      Atomic             Coordinates (Angstroms)
 Number     Number       Type             X           Y           Z
 ---------------------------------------------------------------------
      1          6           0        1.006074    0.003496    0.000000
      2          7           0        0.387413   -1.188856    0.000000
      3          7           0       -0.934066   -0.975218    0.000000
      4          7           0       -1.095138    0.291381    0.000000
      5          7           0        0.093199    0.941401    0.000000
      6          1           0        2.078358    0.144381    0.000000
      7          1           0        0.756617   -2.126965    0.000000
 ---------------------------------------------------------------------
                    Distance matrix (angstroms):
                    1          2          3          4          5
     1  C    0.000000
     2  N    1.343296   0.000000
     3  N    2.173022   1.338636   0.000000
     4  N    2.120841   2.095008   1.276800   0.000000
     5  N    1.308819   2.150478   2.174558   1.354500   0.000000
     6  H    1.081500   2.153327   3.213752   3.176899   2.139181
     7  H    2.145016   1.008147   2.045711   3.045882   3.139267
                    6          7
     6  H    0.000000
     7  H    2.627929   0.000000
 Stoichiometry    CH2N4
 Framework group  CS[SG(CH2N4)]
 Deg. of freedom    11
 Full point group                 CS      NOp   2
 Largest Abelian subgroup         CS      NOp   2
 Largest concise Abelian subgroup C1      NOp   1
                         Standard orientation:                         
 ---------------------------------------------------------------------
 Center     Atomic      Atomic             Coordinates (Angstroms)
 Number     Number       Type             X           Y           Z
 ---------------------------------------------------------------------
      1          6           0        1.062892    0.229405    0.000000
      2          7           0        0.000000    1.050809    0.000000
      3          7           0       -1.108949    0.301022    0.000000
      4          7           0       -0.722184   -0.915790    0.000000
      5          7           0        0.629341   -1.005519    0.000000
      6          1           0        2.094931    0.552731    0.000000
      7          1           0       -0.059746    2.057184    0.000000
 ---------------------------------------------------------------------
 Rotational constants (GHZ):     10.6468351     10.4699729      5.2788317
 Standard basis: Aug-CC-pVDZ (5D, 7F)
 There are   104 symmetry adapted cartesian basis functions of A'  symmetry.
 There are    39 symmetry adapted cartesian basis functions of A"  symmetry.
 There are    94 symmetry adapted basis functions of A'  symmetry.
 There are    39 symmetry adapted basis functions of A"  symmetry.
   133 basis functions,   237 primitive gaussians,   143 cartesian basis functions
    18 alpha electrons       18 beta electrons
       nuclear repulsion energy       167.6837513538 Hartrees.
 NAtoms=    7 NActive=    7 NUniq=    7 SFac= 1.00D+00 NAtFMM=   60 NAOKFM=F Big=F
 Integral buffers will be    131072 words long.
 Raffenetti 2 integral format.
 Two-electron integral symmetry is turned on.
 One-electron integrals computed using PRISM.
 NBasis=   133 RedAO= T EigKep=  1.29D-04  NBF=    94    39
 NBsUse=   133 1.00D-06 EigRej= -1.00D+00 NBFU=    94    39
 Initial guess from the checkpoint file:  "/tmp/rdj3/g09-18029/Gau-2486.chk"
 B after Tr=     0.000000    0.000000    0.000000
         Rot=    1.000000    0.000000    0.000000    0.000186 Ang=   0.02 deg.
 Initial guess orbital symmetries:
       Occupied  (A') (A') (A') (A') (A') (A') (A') (A') (A') (A')
                 (A') (A") (A') (A') (A") (A") (A') (A')
       Virtual   (A') (A') (A') (A') (A') (A') (A') (A') (A') (A')
                 (A') (A') (A') (A') (A') (A') (A') (A') (A') (A')
                 (A') (A') (A') (A') (A') (A') (A') (A') (A') (A')
                 (A') (A') (A') (A') (A') (A') (A') (A') (A') (A')
                 (A') (A') (A') (A') (A') (A') (A') (A') (A') (A')
                 (A') (A') (A') (A') (A') (A') (A') (A') (A') (A')
                 (A') (A') (A') (A') (A') (A') (A') (A') (A') (A')
                 (A') (A') (A') (A') (A') (A') (A') (A') (A') (A")
                 (A") (A") (A") (A") (A") (A") (A") (A") (A") (A")
                 (A") (A") (A") (A") (A") (A") (A") (A") (A") (A")
                 (A") (A") (A") (A") (A") (A") (A") (A") (A") (A")
                 (A") (A") (A") (A") (A")
 ExpMin= 2.97D-02 ExpMax= 9.05D+03 ExpMxC= 3.09D+02 IAcc=3 IRadAn=         5 AccDes= 0.00D+00
 Harris functional with IExCor=  409 and IRadAn=       5 diagonalized for initial guess.
 HarFok:  IExCor=  409 AccDes= 0.00D+00 IRadAn=         5 IDoV= 1 UseB2=F ITyADJ=14
 ICtDFT=  3500011 ScaDFX=  1.000000  1.000000  1.000000  1.000000
 FoFCou: FMM=F IPFlag=           0 FMFlag=      100000 FMFlg1=           0
         NFxFlg=           0 DoJE=T BraDBF=F KetDBF=T FulRan=T
         wScrn=  0.000000 ICntrl=     500 IOpCl=  0 I1Cent=   200000004 NGrid=           0
         NMat0=    1 NMatS0=      1 NMatT0=    0 NMatD0=    1 NMtDS0=    0 NMtDT0=    0
 Petite list used in FoFCou.
 Keep R1 ints in memory in symmetry-blocked form, NReq=60288506.
 Requested convergence on RMS density matrix=1.00D-08 within 128 cycles.
 Requested convergence on MAX density matrix=1.00D-06.
 Requested convergence on             energy=1.00D-06.
 No special actions if energy rises.
 SCF Done:  E(RB1B95) =  -258.207807550     A.U. after   11 cycles
            NFock= 11  Conv=0.46D-08     -V/T= 2.0051
 Calling FoFJK, ICntrl=      2127 FMM=F ISym2X=1 I1Cent= 0 IOpClX= 0 NMat=1 NMatS=1 NMatT=0.
 ***** Axes restored to original set *****
 -------------------------------------------------------------------
 Center     Atomic                   Forces (Hartrees/Bohr)
 Number     Number              X              Y              Z
 -------------------------------------------------------------------
      1        6           0.001897390   -0.002927716    0.000000000
      2        7           0.000042072    0.004032559    0.000000000
      3        7          -0.000171777   -0.007934061    0.000000000
      4        7           0.000317570    0.006780208    0.000000000
      5        7          -0.001560196   -0.000004452    0.000000000
      6        1          -0.000503150   -0.000100197    0.000000000
      7        1          -0.000021910    0.000153659    0.000000000
 -------------------------------------------------------------------
 Cartesian Forces:  Max     0.007934061 RMS     0.002583900

 GradGradGradGradGradGradGradGradGradGradGradGradGradGradGradGradGradGrad
 Berny optimization.
 Using GEDIIS/GDIIS optimizer.
 FormGI is forming the generalized inverse of G from B-inverse, IUseBI=4.
 Internal  Forces:  Max     0.005963337 RMS     0.001423547
 Search for a local minimum.
 Step number   2 out of a maximum of   36
 All quantities printed in internal units (Hartrees-Bohrs-Radians)
 Mixed Optimization -- RFO/linear search
 Update second derivatives using D2CorX and points    1    2
 DE= -2.32D-03 DEPred=-2.24D-03 R= 1.03D+00
 TightC=F SS=  1.41D+00  RLast= 8.24D-02 DXNew= 5.0454D-01 2.4715D-01
 Trust test= 1.03D+00 RLast= 8.24D-02 DXMaxT set to 3.00D-01
 ITU=  1  0
 Use linear search instead of GDIIS.
     Eigenvalues ---    0.02505   0.02640   0.02675   0.02834   0.16000
     Eigenvalues ---    0.16000   0.22488   0.24608   0.37863   0.48890
     Eigenvalues ---    0.50832   0.56557   0.61385   0.67388   0.70999
 RFO step:  Lambda=-8.74059310D-05 EMin= 2.50501414D-02
 Quartic linear search produced a step of  0.06748.
 Iteration  1 RMS(Cart)=  0.00260405 RMS(Int)=  0.00000725
 Iteration  2 RMS(Cart)=  0.00000671 RMS(Int)=  0.00000322
 Iteration  3 RMS(Cart)=  0.00000000 RMS(Int)=  0.00000322
 ClnCor:  largest displacement from symmetrization is 2.05D-13 for atom     1.
 Variable       Old X    -DE/DX   Delta X   Delta X   Delta X     New X
                                 (Linear)    (Quad)   (Total)
    R1        2.53846  -0.00185   0.00166  -0.00515  -0.00349   2.53497
    R2        2.47331   0.00131   0.00250  -0.00001   0.00248   2.47579
    R3        2.04374  -0.00052   0.00175  -0.00254  -0.00079   2.04295
    R4        2.52966   0.00002   0.00160  -0.00104   0.00056   2.53022
    R5        1.90512  -0.00015   0.00179  -0.00146   0.00033   1.90546
    R6        2.41280   0.00596   0.00316   0.00615   0.00931   2.42212
    R7        2.55963  -0.00079   0.00166  -0.00202  -0.00036   2.55928
    A1        1.89110  -0.00005   0.00021  -0.00360  -0.00340   1.88770
    A2        2.18006   0.00002  -0.00014   0.00177   0.00164   2.18169
    A3        2.21203   0.00003  -0.00007   0.00183   0.00176   2.21379
    A4        1.88914   0.00207   0.00027   0.00760   0.00788   1.89702
    A5        2.28803  -0.00109  -0.00016  -0.00419  -0.00435   2.28368
    A6        2.10602  -0.00098  -0.00011  -0.00342  -0.00353   2.10249
    A7        1.85757  -0.00199  -0.00030  -0.00666  -0.00695   1.85061
    A8        1.94484  -0.00058   0.00007   0.00062   0.00069   1.94553
    A9        1.84213   0.00056  -0.00025   0.00205   0.00179   1.84392
    D1        0.00000   0.00000   0.00000   0.00000   0.00000   0.00000
    D2        3.14159   0.00000   0.00000   0.00000   0.00000   3.14159
    D3        3.14159   0.00000   0.00000   0.00000   0.00000   3.14159
    D4        0.00000   0.00000   0.00000   0.00000   0.00000   0.00000
    D5        0.00000   0.00000   0.00000   0.00000   0.00000   0.00000
    D6        3.14159   0.00000   0.00000   0.00000   0.00000   3.14159
    D7        0.00000   0.00000   0.00000   0.00000   0.00000   0.00000
    D8        3.14159   0.00000   0.00000   0.00000   0.00000   3.14159
    D9        0.00000   0.00000   0.00000   0.00000   0.00000   0.00000
   D10        0.00000   0.00000   0.00000   0.00000   0.00000   0.00000
         Item               Value     Threshold  Converged?
 Maximum Force            0.005963     0.000450     NO 
 RMS     Force            0.001424     0.000300     NO 
 Maximum Displacement     0.007737     0.001800     NO 
 RMS     Displacement     0.002604     0.001200     NO 
 Predicted change in Energy=-5.190591D-05
 GradGradGradGradGradGradGradGradGradGradGradGradGradGradGradGradGradGrad

                          Input orientation:                          
 ---------------------------------------------------------------------
 Center     Atomic      Atomic             Coordinates (Angstroms)
 Number     Number       Type             X           Y           Z
 ---------------------------------------------------------------------
      1          6           0        1.007624    0.002860    0.000000
      2          7           0        0.386583   -1.186169    0.000000
      3          7           0       -0.936276   -0.979313    0.000000
      4          7           0       -1.095694    0.292463    0.000000
      5          7           0        0.093192    0.941082    0.000000
      6          1           0        2.079645    0.142535    0.000000
      7          1           0        0.757382   -2.123839    0.000000
 ---------------------------------------------------------------------
                    Distance matrix (angstroms):
                    1          2          3          4          5
     1  C    0.000000
     2  N    1.341448   0.000000
     3  N    2.177938   1.338934   0.000000
     4  N    2.123162   2.093680   1.281728   0.000000
     5  N    1.310132   2.147388   2.178926   1.354310   0.000000
     6  H    1.081082   2.152188   3.217813   3.178877   2.140952
     7  H    2.141372   1.008324   2.044118   3.045063   3.136063
                    6          7
     6  H    0.000000
     7  H    2.623896   0.000000
 Stoichiometry    CH2N4
 Framework group  CS[SG(CH2N4)]
 Deg. of freedom    11
 Full point group                 CS      NOp   2
 Largest Abelian subgroup         CS      NOp   2
 Largest concise Abelian subgroup C1      NOp   1
                         Standard orientation:                         
 ---------------------------------------------------------------------
 Center     Atomic      Atomic             Coordinates (Angstroms)
 Number     Number       Type             X           Y           Z
 ---------------------------------------------------------------------
      1          6           0        1.064285    0.231441    0.000000
      2          7           0        0.000000    1.048007    0.000000
      3          7           0       -1.112479    0.302932    0.000000
      4          7           0       -0.721093   -0.917578    0.000000
      5          7           0        0.630408   -1.004762    0.000000
      6          1           0        2.095324    0.556550    0.000000
      7          1           0       -0.058892    2.054610    0.000000
 ---------------------------------------------------------------------
 Rotational constants (GHZ):     10.6449019     10.4487259      5.2729508
 Standard basis: Aug-CC-pVDZ (5D, 7F)
 There are   104 symmetry adapted cartesian basis functions of A'  symmetry.
 There are    39 symmetry adapted cartesian basis functions of A"  symmetry.
 There are    94 symmetry adapted basis functions of A'  symmetry.
 There are    39 symmetry adapted basis functions of A"  symmetry.
   133 basis functions,   237 primitive gaussians,   143 cartesian basis functions
    18 alpha electrons       18 beta electrons
       nuclear repulsion energy       167.5801210196 Hartrees.
 NAtoms=    7 NActive=    7 NUniq=    7 SFac= 1.00D+00 NAtFMM=   60 NAOKFM=F Big=F
 Integral buffers will be    131072 words long.
 Raffenetti 2 integral format.
 Two-electron integral symmetry is turned on.
 One-electron integrals computed using PRISM.
 NBasis=   133 RedAO= T EigKep=  1.30D-04  NBF=    94    39
 NBsUse=   133 1.00D-06 EigRej= -1.00D+00 NBFU=    94    39
 Initial guess from the checkpoint file:  "/tmp/rdj3/g09-18029/Gau-2486.chk"
 B after Tr=     0.000000    0.000000    0.000000
         Rot=    1.000000    0.000000    0.000000   -0.000351 Ang=  -0.04 deg.
 Initial guess orbital symmetries:
       Occupied  (A') (A') (A') (A') (A') (A') (A') (A') (A') (A')
                 (A') (A") (A') (A') (A") (A") (A') (A')
       Virtual   (A') (A') (A') (A') (A') (A') (A') (A') (A') (A')
                 (A') (A') (A') (A') (A') (A') (A') (A') (A') (A')
                 (A') (A') (A') (A') (A') (A') (A') (A') (A') (A')
                 (A') (A') (A') (A') (A') (A') (A') (A') (A') (A')
                 (A') (A') (A') (A') (A') (A') (A') (A') (A') (A')
                 (A') (A') (A') (A') (A') (A') (A') (A') (A') (A')
                 (A') (A') (A') (A') (A') (A') (A') (A') (A') (A')
                 (A') (A') (A') (A') (A') (A') (A') (A') (A') (A")
                 (A") (A") (A") (A") (A") (A") (A") (A") (A") (A")
                 (A") (A") (A") (A") (A") (A") (A") (A") (A") (A")
                 (A") (A") (A") (A") (A") (A") (A") (A") (A") (A")
                 (A") (A") (A") (A") (A")
 Keep R1 ints in memory in symmetry-blocked form, NReq=60288506.
 Requested convergence on RMS density matrix=1.00D-08 within 128 cycles.
 Requested convergence on MAX density matrix=1.00D-06.
 Requested convergence on             energy=1.00D-06.
 No special actions if energy rises.
 SCF Done:  E(RB1B95) =  -258.207867066     A.U. after   10 cycles
            NFock= 10  Conv=0.82D-08     -V/T= 2.0051
 Calling FoFJK, ICntrl=      2127 FMM=F ISym2X=1 I1Cent= 0 IOpClX= 0 NMat=1 NMatS=1 NMatT=0.
 ***** Axes restored to original set *****
 -------------------------------------------------------------------
 Center     Atomic                   Forces (Hartrees/Bohr)
 Number     Number              X              Y              Z
 -------------------------------------------------------------------
      1        6          -0.000360512   -0.001632465    0.000000000
      2        7          -0.000078276    0.000182704    0.000000000
      3        7           0.001950645   -0.001633198    0.000000000
      4        7           0.000871079    0.003443952    0.000000000
      5        7          -0.002146583   -0.000476681    0.000000000
      6        1          -0.000262053   -0.000066959    0.000000000
      7        1           0.000025700    0.000182646    0.000000000
 -------------------------------------------------------------------
 Cartesian Forces:  Max     0.003443952 RMS     0.001131130

 GradGradGradGradGradGradGradGradGradGradGradGradGradGradGradGradGradGrad
 Berny optimization.
 Using GEDIIS/GDIIS optimizer.
 FormGI is forming the generalized inverse of G from B-inverse, IUseBI=4.
 Internal  Forces:  Max     0.002157893 RMS     0.000752942
 Search for a local minimum.
 Step number   3 out of a maximum of   36
 All quantities printed in internal units (Hartrees-Bohrs-Radians)
 Mixed Optimization -- En-DIIS/RFO-DIIS
 Update second derivatives using D2CorX and points    1    2    3
 DE= -5.95D-05 DEPred=-5.19D-05 R= 1.15D+00
 TightC=F SS=  1.41D+00  RLast= 1.64D-02 DXNew= 5.0454D-01 4.9214D-02
 Trust test= 1.15D+00 RLast= 1.64D-02 DXMaxT set to 3.00D-01
 ITU=  1  1  0
 Use linear search instead of GDIIS.
     Eigenvalues ---    0.02505   0.02638   0.02674   0.02834   0.15936
     Eigenvalues ---    0.16000   0.23518   0.30087   0.36728   0.38131
     Eigenvalues ---    0.49288   0.52385   0.60354   0.67941   0.71856
 RFO step:  Lambda=-3.35349538D-05 EMin= 2.50481971D-02
 Quartic linear search produced a step of  0.14759.
 Iteration  1 RMS(Cart)=  0.00177672 RMS(Int)=  0.00000083
 Iteration  2 RMS(Cart)=  0.00000063 RMS(Int)=  0.00000036
 ClnCor:  largest displacement from symmetrization is 4.15D-13 for atom     1.
 Variable       Old X    -DE/DX   Delta X   Delta X   Delta X     New X
                                 (Linear)    (Quad)   (Total)
    R1        2.53497  -0.00121  -0.00052  -0.00280  -0.00332   2.53165
    R2        2.47579   0.00095   0.00037   0.00218   0.00255   2.47834
    R3        2.04295  -0.00027  -0.00012  -0.00069  -0.00080   2.04215
    R4        2.53022  -0.00104   0.00008  -0.00161  -0.00153   2.52869
    R5        1.90546  -0.00016   0.00005  -0.00005   0.00000   1.90546
    R6        2.42212   0.00216   0.00137   0.00505   0.00643   2.42854
    R7        2.55928  -0.00214  -0.00005  -0.00401  -0.00407   2.55521
    A1        1.88770   0.00057  -0.00050   0.00167   0.00117   1.88887
    A2        2.18169  -0.00029   0.00024  -0.00091  -0.00067   2.18102
    A3        2.21379  -0.00028   0.00026  -0.00076  -0.00050   2.21329
    A4        1.89702  -0.00052   0.00116  -0.00183  -0.00067   1.89634
    A5        2.28368   0.00015  -0.00064   0.00007  -0.00057   2.28311
    A6        2.10249   0.00037  -0.00052   0.00176   0.00124   2.10373
    A7        1.85061   0.00060  -0.00103   0.00222   0.00119   1.85180
    A8        1.94553  -0.00080   0.00010  -0.00276  -0.00266   1.94287
    A9        1.84392   0.00016   0.00026   0.00070   0.00097   1.84489
    D1        0.00000   0.00000   0.00000   0.00000   0.00000   0.00000
    D2        3.14159   0.00000   0.00000   0.00000   0.00000   3.14159
    D3        3.14159   0.00000   0.00000   0.00000   0.00000   3.14159
    D4        0.00000   0.00000   0.00000   0.00000   0.00000   0.00000
    D5        0.00000   0.00000   0.00000   0.00000   0.00000   0.00000
    D6        3.14159   0.00000   0.00000   0.00000   0.00000   3.14159
    D7        0.00000   0.00000   0.00000   0.00000   0.00000   0.00000
    D8        3.14159   0.00000   0.00000   0.00000   0.00000   3.14159
    D9        0.00000   0.00000   0.00000   0.00000   0.00000   0.00000
   D10        0.00000   0.00000   0.00000   0.00000   0.00000   0.00000
         Item               Value     Threshold  Converged?
 Maximum Force            0.002158     0.000450     NO 
 RMS     Force            0.000753     0.000300     NO 
 Maximum Displacement     0.005599     0.001800     NO 
 RMS     Displacement     0.001777     0.001200     NO 
 Predicted change in Energy=-1.779169D-05
 GradGradGradGradGradGradGradGradGradGradGradGradGradGradGradGradGradGrad

                          Input orientation:                          
 ---------------------------------------------------------------------
 Center     Atomic      Atomic             Coordinates (Angstroms)
 Number     Number       Type             X           Y           Z
 ---------------------------------------------------------------------
      1          6           0        1.006743    0.001483    0.000000
      2          7           0        0.387231   -1.186366    0.000000
      3          7           0       -0.934814   -0.979544    0.000000
      4          7           0       -1.096088    0.295426    0.000000
      5          7           0        0.091902    0.941190    0.000000
      6          1           0        2.078352    0.141030    0.000000
      7          1           0        0.759131   -2.123601    0.000000
 ---------------------------------------------------------------------
                    Distance matrix (angstroms):
                    1          2          3          4          5
     1  C    0.000000
     2  N    1.339694   0.000000
     3  N    2.175329   1.338125   0.000000
     4  N    2.123276   2.096650   1.285129   0.000000
     5  N    1.311482   2.147955   2.177926   1.352158   0.000000
     6  H    1.080657   2.149853   3.214787   3.178192   2.141551
     7  H    2.139461   1.008325   2.044093   3.048529   3.136581
                    6          7
     6  H    0.000000
     7  H    2.620859   0.000000
 Stoichiometry    CH2N4
 Framework group  CS[SG(CH2N4)]
 Deg. of freedom    11
 Full point group                 CS      NOp   2
 Largest Abelian subgroup         CS      NOp   2
 Largest concise Abelian subgroup C1      NOp   1
                         Standard orientation:                         
 ---------------------------------------------------------------------
 Center     Atomic      Atomic             Coordinates (Angstroms)
 Number     Number       Type             X           Y           Z
 ---------------------------------------------------------------------
      1          6           0        1.062748    0.233019    0.000000
      2          7           0        0.000000    1.048706    0.000000
      3          7           0       -1.111438    0.303532    0.000000
      4          7           0       -0.719868   -0.920490    0.000000
      5          7           0        0.629653   -1.004888    0.000000
      6          1           0        2.093221    0.558508    0.000000
      7          1           0       -0.058139    2.055354    0.000000
 ---------------------------------------------------------------------
 Rotational constants (GHZ):     10.6267765     10.4663688      5.2729814
 Standard basis: Aug-CC-pVDZ (5D, 7F)
 There are   104 symmetry adapted cartesian basis functions of A'  symmetry.
 There are    39 symmetry adapted cartesian basis functions of A"  symmetry.
 There are    94 symmetry adapted basis functions of A'  symmetry.
 There are    39 symmetry adapted basis functions of A"  symmetry.
   133 basis functions,   237 primitive gaussians,   143 cartesian basis functions
    18 alpha electrons       18 beta electrons
       nuclear repulsion energy       167.5732872748 Hartrees.
 NAtoms=    7 NActive=    7 NUniq=    7 SFac= 1.00D+00 NAtFMM=   60 NAOKFM=F Big=F
 Integral buffers will be    131072 words long.
 Raffenetti 2 integral format.
 Two-electron integral symmetry is turned on.
 One-electron integrals computed using PRISM.
 NBasis=   133 RedAO= T EigKep=  1.30D-04  NBF=    94    39
 NBsUse=   133 1.00D-06 EigRej= -1.00D+00 NBFU=    94    39
 Initial guess from the checkpoint file:  "/tmp/rdj3/g09-18029/Gau-2486.chk"
 B after Tr=     0.000000    0.000000    0.000000
         Rot=    1.000000    0.000000    0.000000   -0.000245 Ang=  -0.03 deg.
 Initial guess orbital symmetries:
       Occupied  (A') (A') (A') (A') (A') (A') (A') (A') (A') (A')
                 (A') (A") (A') (A') (A") (A") (A') (A')
       Virtual   (A') (A') (A') (A') (A') (A') (A') (A') (A') (A')
                 (A') (A') (A') (A') (A') (A') (A') (A') (A') (A')
                 (A') (A') (A') (A') (A') (A') (A') (A') (A') (A')
                 (A') (A') (A') (A') (A') (A') (A') (A') (A') (A')
                 (A') (A') (A') (A') (A') (A') (A') (A') (A') (A')
                 (A') (A') (A') (A') (A') (A') (A') (A') (A') (A')
                 (A') (A') (A') (A') (A') (A') (A') (A') (A') (A')
                 (A') (A') (A') (A') (A') (A') (A') (A') (A') (A")
                 (A") (A") (A") (A") (A") (A") (A") (A") (A") (A")
                 (A") (A") (A") (A") (A") (A") (A") (A") (A") (A")
                 (A") (A") (A") (A") (A") (A") (A") (A") (A") (A")
                 (A") (A") (A") (A") (A")
 Keep R1 ints in memory in symmetry-blocked form, NReq=60288506.
 Requested convergence on RMS density matrix=1.00D-08 within 128 cycles.
 Requested convergence on MAX density matrix=1.00D-06.
 Requested convergence on             energy=1.00D-06.
 No special actions if energy rises.
 SCF Done:  E(RB1B95) =  -258.207882557     A.U. after   10 cycles
            NFock= 10  Conv=0.35D-08     -V/T= 2.0052
 Calling FoFJK, ICntrl=      2127 FMM=F ISym2X=1 I1Cent= 0 IOpClX= 0 NMat=1 NMatS=1 NMatT=0.
 ***** Axes restored to original set *****
 -------------------------------------------------------------------
 Center     Atomic                   Forces (Hartrees/Bohr)
 Number     Number              X              Y              Z
 -------------------------------------------------------------------
      1        6           0.000113318    0.000344465    0.000000000
      2        7          -0.001083300    0.000377485    0.000000000
      3        7           0.000051734    0.000066369    0.000000000
      4        7           0.001793552   -0.000384873    0.000000000
      5        7          -0.000792929   -0.000632774    0.000000000
      6        1           0.000040350    0.000089184    0.000000000
      7        1          -0.000122726    0.000140145    0.000000000
 -------------------------------------------------------------------
 Cartesian Forces:  Max     0.001793552 RMS     0.000529734

 GradGradGradGradGradGradGradGradGradGradGradGradGradGradGradGradGradGrad
 Berny optimization.
 Using GEDIIS/GDIIS optimizer.
 FormGI is forming the generalized inverse of G from B-inverse, IUseBI=4.
 Internal  Forces:  Max     0.001079478 RMS     0.000389973
 Search for a local minimum.
 Step number   4 out of a maximum of   36
 All quantities printed in internal units (Hartrees-Bohrs-Radians)
 Mixed Optimization -- En-DIIS/RFO-DIIS
 Swapping is turned off.
 Update second derivatives using D2CorX and points    1    2    3    4
 DE= -1.55D-05 DEPred=-1.78D-05 R= 8.71D-01
 TightC=F SS=  1.41D+00  RLast= 9.60D-03 DXNew= 5.0454D-01 2.8799D-02
 Trust test= 8.71D-01 RLast= 9.60D-03 DXMaxT set to 3.00D-01
 ITU=  1  1  1  0
     Eigenvalues ---    0.02505   0.02638   0.02675   0.02834   0.15809
     Eigenvalues ---    0.16061   0.22348   0.24569   0.37692   0.46713
     Eigenvalues ---    0.49308   0.53339   0.60527   0.69058   0.71477
 En-DIIS/RFO-DIIS IScMMF=        0 using points:     4    3
 RFO step:  Lambda=-5.26946210D-06.
 DidBck=F Rises=F RFO-DIIS coefs:    0.88067    0.11933
 Iteration  1 RMS(Cart)=  0.00076058 RMS(Int)=  0.00000047
 Iteration  2 RMS(Cart)=  0.00000034 RMS(Int)=  0.00000023
 ClnCor:  largest displacement from symmetrization is 1.00D-13 for atom     1.
 Variable       Old X    -DE/DX   Delta X   Delta X   Delta X     New X
                                 (Linear)    (Quad)   (Total)
    R1        2.53165   0.00022   0.00040  -0.00042  -0.00002   2.53163
    R2        2.47834  -0.00055  -0.00030   0.00008  -0.00022   2.47812
    R3        2.04215   0.00005   0.00010  -0.00006   0.00003   2.04218
    R4        2.52869  -0.00079   0.00018  -0.00156  -0.00138   2.52731
    R5        1.90546  -0.00017   0.00000  -0.00028  -0.00028   1.90518
    R6        2.42854  -0.00066  -0.00077   0.00093   0.00016   2.42871
    R7        2.55521  -0.00108   0.00049  -0.00291  -0.00243   2.55278
    A1        1.88887  -0.00034  -0.00014  -0.00051  -0.00065   1.88822
    A2        2.18102   0.00028   0.00008   0.00084   0.00092   2.18194
    A3        2.21329   0.00006   0.00006  -0.00033  -0.00027   2.21302
    A4        1.89634   0.00029   0.00008   0.00110   0.00118   1.89752
    A5        2.28311  -0.00011   0.00007  -0.00061  -0.00054   2.28257
    A6        2.10373  -0.00018  -0.00015  -0.00049  -0.00064   2.10309
    A7        1.85180  -0.00059  -0.00014  -0.00174  -0.00188   1.84993
    A8        1.94287   0.00081   0.00032   0.00156   0.00188   1.94475
    A9        1.84489  -0.00017  -0.00012  -0.00042  -0.00053   1.84436
    D1        0.00000   0.00000   0.00000   0.00000   0.00000   0.00000
    D2        3.14159   0.00000   0.00000   0.00000   0.00000   3.14159
    D3        3.14159   0.00000   0.00000   0.00000   0.00000   3.14159
    D4        0.00000   0.00000   0.00000   0.00000   0.00000   0.00000
    D5        0.00000   0.00000   0.00000   0.00000   0.00000   0.00000
    D6        3.14159   0.00000   0.00000   0.00000   0.00000   3.14159
    D7        0.00000   0.00000   0.00000   0.00000   0.00000   0.00000
    D8        3.14159   0.00000   0.00000   0.00000   0.00000   3.14159
    D9        0.00000   0.00000   0.00000   0.00000   0.00000   0.00000
   D10        0.00000   0.00000   0.00000   0.00000   0.00000   0.00000
         Item               Value     Threshold  Converged?
 Maximum Force            0.001079     0.000450     NO 
 RMS     Force            0.000390     0.000300     NO 
 Maximum Displacement     0.002801     0.001800     NO 
 RMS     Displacement     0.000761     0.001200     YES
 Predicted change in Energy=-3.723425D-06
 GradGradGradGradGradGradGradGradGradGradGradGradGradGradGradGradGradGrad

                          Input orientation:                          
 ---------------------------------------------------------------------
 Center     Atomic      Atomic             Coordinates (Angstroms)
 Number     Number       Type             X           Y           Z
 ---------------------------------------------------------------------
      1          6           0        1.006716    0.001491    0.000000
      2          7           0        0.386610   -1.186036    0.000000
      3          7           0       -0.934855   -0.980217    0.000000
      4          7           0       -1.094606    0.295031    0.000000
      5          7           0        0.091820    0.940983    0.000000
      6          1           0        2.078283    0.141486    0.000000
      7          1           0        0.758489   -2.123119    0.000000
 ---------------------------------------------------------------------
                    Distance matrix (angstroms):
                    1          2          3          4          5
     1  C    0.000000
     2  N    1.339683   0.000000
     3  N    2.175649   1.337397   0.000000
     4  N    2.121725   2.094650   1.285216   0.000000
     5  N    1.311365   2.147349   2.178319   1.350874   0.000000
     6  H    1.080674   2.150366   3.215155   3.176602   2.141315
     7  H    2.139061   1.008176   2.042948   3.046541   3.135788
                    6          7
     6  H    0.000000
     7  H    2.621124   0.000000
 Stoichiometry    CH2N4
 Framework group  CS[SG(CH2N4)]
 Deg. of freedom    11
 Full point group                 CS      NOp   2
 Largest Abelian subgroup         CS      NOp   2
 Largest concise Abelian subgroup C1      NOp   1
                         Standard orientation:                         
 ---------------------------------------------------------------------
 Center     Atomic      Atomic             Coordinates (Angstroms)
 Number     Number       Type             X           Y           Z
 ---------------------------------------------------------------------
      1          6           0        1.062788    0.232335    0.000000
      2          7           0        0.000000    1.047953    0.000000
      3          7           0       -1.111666    0.304428    0.000000
      4          7           0       -0.719142   -0.919379    0.000000
      5          7           0        0.629003   -1.005207    0.000000
      6          1           0        2.093557    0.556942    0.000000
      7          1           0       -0.057646    2.054480    0.000000
 ---------------------------------------------------------------------
 Rotational constants (GHZ):     10.6428374     10.4637827      5.2762753
 Standard basis: Aug-CC-pVDZ (5D, 7F)
 There are   104 symmetry adapted cartesian basis functions of A'  symmetry.
 There are    39 symmetry adapted cartesian basis functions of A"  symmetry.
 There are    94 symmetry adapted basis functions of A'  symmetry.
 There are    39 symmetry adapted basis functions of A"  symmetry.
   133 basis functions,   237 primitive gaussians,   143 cartesian basis functions
    18 alpha electrons       18 beta electrons
       nuclear repulsion energy       167.6246638818 Hartrees.
 NAtoms=    7 NActive=    7 NUniq=    7 SFac= 1.00D+00 NAtFMM=   60 NAOKFM=F Big=F
 Integral buffers will be    131072 words long.
 Raffenetti 2 integral format.
 Two-electron integral symmetry is turned on.
 One-electron integrals computed using PRISM.
 NBasis=   133 RedAO= T EigKep=  1.30D-04  NBF=    94    39
 NBsUse=   133 1.00D-06 EigRej= -1.00D+00 NBFU=    94    39
 Initial guess from the checkpoint file:  "/tmp/rdj3/g09-18029/Gau-2486.chk"
 B after Tr=     0.000000    0.000000    0.000000
         Rot=    1.000000    0.000000    0.000000    0.000212 Ang=   0.02 deg.
 Initial guess orbital symmetries:
       Occupied  (A') (A') (A') (A') (A') (A') (A') (A') (A') (A')
                 (A') (A") (A') (A') (A") (A") (A') (A')
       Virtual   (A') (A') (A') (A') (A') (A') (A') (A') (A') (A')
                 (A') (A') (A') (A') (A') (A') (A') (A') (A') (A')
                 (A') (A') (A') (A') (A') (A') (A') (A') (A') (A')
                 (A') (A') (A') (A') (A') (A') (A') (A') (A') (A')
                 (A') (A') (A') (A') (A') (A') (A') (A') (A') (A')
                 (A') (A') (A') (A') (A') (A') (A') (A') (A') (A')
                 (A') (A') (A') (A') (A') (A') (A') (A') (A') (A')
                 (A') (A') (A') (A') (A') (A') (A') (A') (A') (A")
                 (A") (A") (A") (A") (A") (A") (A") (A") (A") (A")
                 (A") (A") (A") (A") (A") (A") (A") (A") (A") (A")
                 (A") (A") (A") (A") (A") (A") (A") (A") (A") (A")
                 (A") (A") (A") (A") (A")
 Keep R1 ints in memory in symmetry-blocked form, NReq=60288506.
 Requested convergence on RMS density matrix=1.00D-08 within 128 cycles.
 Requested convergence on MAX density matrix=1.00D-06.
 Requested convergence on             energy=1.00D-06.
 No special actions if energy rises.
 SCF Done:  E(RB1B95) =  -258.207886021     A.U. after    9 cycles
            NFock=  9  Conv=0.75D-08     -V/T= 2.0051
 Calling FoFJK, ICntrl=      2127 FMM=F ISym2X=1 I1Cent= 0 IOpClX= 0 NMat=1 NMatS=1 NMatT=0.
 ***** Axes restored to original set *****
 -------------------------------------------------------------------
 Center     Atomic                   Forces (Hartrees/Bohr)
 Number     Number              X              Y              Z
 -------------------------------------------------------------------
      1        6           0.000357554    0.000144220    0.000000000
      2        7          -0.000254247   -0.000194237    0.000000000
      3        7           0.000237992    0.000616863    0.000000000
      4        7           0.000060402   -0.000026181    0.000000000
      5        7          -0.000439636   -0.000543605    0.000000000
      6        1           0.000031654   -0.000015231    0.000000000
      7        1           0.000006281    0.000018171    0.000000000
 -------------------------------------------------------------------
 Cartesian Forces:  Max     0.000616863 RMS     0.000237336

 GradGradGradGradGradGradGradGradGradGradGradGradGradGradGradGradGradGrad
 Berny optimization.
 Using GEDIIS/GDIIS optimizer.
 FormGI is forming the generalized inverse of G from B-inverse, IUseBI=4.
 Internal  Forces:  Max     0.000387355 RMS     0.000161717
 Search for a local minimum.
 Step number   5 out of a maximum of   36
 All quantities printed in internal units (Hartrees-Bohrs-Radians)
 Mixed Optimization -- En-DIIS/RFO-DIIS
 Swapping is turned off.
 Update second derivatives using D2CorX and points    1    2    3    4    5
 DE= -3.46D-06 DEPred=-3.72D-06 R= 9.30D-01
 TightC=F SS=  1.41D+00  RLast= 4.32D-03 DXNew= 5.0454D-01 1.2974D-02
 Trust test= 9.30D-01 RLast= 4.32D-03 DXMaxT set to 3.00D-01
 ITU=  1  1  1  1  0
     Eigenvalues ---    0.02505   0.02639   0.02675   0.02834   0.14908
     Eigenvalues ---    0.16061   0.18046   0.38044   0.39264   0.45798
     Eigenvalues ---    0.49987   0.53427   0.58621   0.65232   0.75058
 En-DIIS/RFO-DIIS IScMMF=        0 using points:     5    4    3
 RFO step:  Lambda=-1.05534300D-06.
 DidBck=F Rises=F RFO-DIIS coefs:    0.98179    0.02691   -0.00870
 Iteration  1 RMS(Cart)=  0.00041369 RMS(Int)=  0.00000017
 Iteration  2 RMS(Cart)=  0.00000016 RMS(Int)=  0.00000007
 ClnCor:  largest displacement from symmetrization is 2.57D-13 for atom     1.
 Variable       Old X    -DE/DX   Delta X   Delta X   Delta X     New X
                                 (Linear)    (Quad)   (Total)
    R1        2.53163   0.00004  -0.00003   0.00012   0.00009   2.53172
    R2        2.47812   0.00004   0.00003   0.00001   0.00004   2.47816
    R3        2.04218   0.00002  -0.00001   0.00005   0.00005   2.04222
    R4        2.52731  -0.00006   0.00001  -0.00040  -0.00039   2.52693
    R5        1.90518  -0.00001   0.00001  -0.00010  -0.00010   1.90508
    R6        2.42871  -0.00039   0.00005  -0.00043  -0.00037   2.42833
    R7        2.55278  -0.00036   0.00001  -0.00120  -0.00120   2.55159
    A1        1.88822  -0.00029   0.00002  -0.00114  -0.00111   1.88711
    A2        2.18194   0.00015  -0.00002   0.00076   0.00074   2.18268
    A3        2.21302   0.00014   0.00000   0.00037   0.00037   2.21339
    A4        1.89752  -0.00012  -0.00003   0.00021   0.00018   1.89770
    A5        2.28257   0.00002   0.00000  -0.00030  -0.00029   2.28228
    A6        2.10309   0.00010   0.00002   0.00009   0.00011   2.10320
    A7        1.84993   0.00029   0.00004   0.00035   0.00039   1.85032
    A8        1.94475  -0.00022  -0.00006  -0.00060  -0.00066   1.94409
    A9        1.84436   0.00034   0.00002   0.00118   0.00120   1.84556
    D1        0.00000   0.00000   0.00000   0.00000   0.00000   0.00000
    D2        3.14159   0.00000   0.00000   0.00000   0.00000   3.14159
    D3        3.14159   0.00000   0.00000   0.00000   0.00000   3.14159
    D4        0.00000   0.00000   0.00000   0.00000   0.00000   0.00000
    D5        0.00000   0.00000   0.00000   0.00000   0.00000   0.00000
    D6        3.14159   0.00000   0.00000   0.00000   0.00000   3.14159
    D7        0.00000   0.00000   0.00000   0.00000   0.00000   0.00000
    D8        3.14159   0.00000   0.00000   0.00000   0.00000   3.14159
    D9        0.00000   0.00000   0.00000   0.00000   0.00000   0.00000
   D10        0.00000   0.00000   0.00000   0.00000   0.00000   0.00000
         Item               Value     Threshold  Converged?
 Maximum Force            0.000387     0.000450     YES
 RMS     Force            0.000162     0.000300     YES
 Maximum Displacement     0.001449     0.001800     YES
 RMS     Displacement     0.000414     0.001200     YES
 Predicted change in Energy=-8.698945D-07
 Optimization completed.
    -- Stationary point found.
                           ----------------------------
                           !   Optimized Parameters   !
                           ! (Angstroms and Degrees)  !
 --------------------------                            --------------------------
 ! Name  Definition              Value          Derivative Info.                !
 --------------------------------------------------------------------------------
 ! R1    R(1,2)                  1.3397         -DE/DX =    0.0                 !
 ! R2    R(1,5)                  1.3114         -DE/DX =    0.0                 !
 ! R3    R(1,6)                  1.0807         -DE/DX =    0.0                 !
 ! R4    R(2,3)                  1.3374         -DE/DX =   -0.0001              !
 ! R5    R(2,7)                  1.0082         -DE/DX =    0.0                 !
 ! R6    R(3,4)                  1.2852         -DE/DX =   -0.0004              !
 ! R7    R(4,5)                  1.3509         -DE/DX =   -0.0004              !
 ! A1    A(2,1,5)              108.1872         -DE/DX =   -0.0003              !
 ! A2    A(2,1,6)              125.0161         -DE/DX =    0.0002              !
 ! A3    A(5,1,6)              126.7968         -DE/DX =    0.0001              !
 ! A4    A(1,2,3)              108.7201         -DE/DX =   -0.0001              !
 ! A5    A(1,2,7)              130.7817         -DE/DX =    0.0                 !
 ! A6    A(3,2,7)              120.4982         -DE/DX =    0.0001              !
 ! A7    A(2,3,4)              105.9929         -DE/DX =    0.0003              !
 ! A8    A(3,4,5)              111.4259         -DE/DX =   -0.0002              !
 ! A9    A(1,5,4)              105.6739         -DE/DX =    0.0003              !
 ! D1    D(5,1,2,3)              0.0            -DE/DX =    0.0                 !
 ! D2    D(5,1,2,7)            180.0            -DE/DX =    0.0                 !
 ! D3    D(6,1,2,3)            180.0            -DE/DX =    0.0                 !
 ! D4    D(6,1,2,7)              0.0            -DE/DX =    0.0                 !
 ! D5    D(2,1,5,4)              0.0            -DE/DX =    0.0                 !
 ! D6    D(6,1,5,4)            180.0            -DE/DX =    0.0                 !
 ! D7    D(1,2,3,4)              0.0            -DE/DX =    0.0                 !
 ! D8    D(7,2,3,4)            180.0            -DE/DX =    0.0                 !
 ! D9    D(2,3,4,5)              0.0            -DE/DX =    0.0                 !
 ! D10   D(3,4,5,1)              0.0            -DE/DX =    0.0                 !
 --------------------------------------------------------------------------------
 GradGradGradGradGradGradGradGradGradGradGradGradGradGradGradGradGradGrad

                          Input orientation:                          
 ---------------------------------------------------------------------
 Center     Atomic      Atomic             Coordinates (Angstroms)
 Number     Number       Type             X           Y           Z
 ---------------------------------------------------------------------
      1          6           0        1.006716    0.001491    0.000000
      2          7           0        0.386610   -1.186036    0.000000
      3          7           0       -0.934855   -0.980217    0.000000
      4          7           0       -1.094606    0.295031    0.000000
      5          7           0        0.091820    0.940983    0.000000
      6          1           0        2.078283    0.141486    0.000000
      7          1           0        0.758489   -2.123119    0.000000
 ---------------------------------------------------------------------
                    Distance matrix (angstroms):
                    1          2          3          4          5
     1  C    0.000000
     2  N    1.339683   0.000000
     3  N    2.175649   1.337397   0.000000
     4  N    2.121725   2.094650   1.285216   0.000000
     5  N    1.311365   2.147349   2.178319   1.350874   0.000000
     6  H    1.080674   2.150366   3.215155   3.176602   2.141315
     7  H    2.139061   1.008176   2.042948   3.046541   3.135788
                    6          7
     6  H    0.000000
     7  H    2.621124   0.000000
 Stoichiometry    CH2N4
 Framework group  CS[SG(CH2N4)]
 Deg. of freedom    11
 Full point group                 CS      NOp   2
 Largest Abelian subgroup         CS      NOp   2
 Largest concise Abelian subgroup C1      NOp   1
                         Standard orientation:                         
 ---------------------------------------------------------------------
 Center     Atomic      Atomic             Coordinates (Angstroms)
 Number     Number       Type             X           Y           Z
 ---------------------------------------------------------------------
      1          6           0        1.062788    0.232335    0.000000
      2          7           0        0.000000    1.047953    0.000000
      3          7           0       -1.111666    0.304428    0.000000
      4          7           0       -0.719142   -0.919379    0.000000
      5          7           0        0.629003   -1.005207    0.000000
      6          1           0        2.093557    0.556942    0.000000
      7          1           0       -0.057646    2.054480    0.000000
 ---------------------------------------------------------------------
 Rotational constants (GHZ):     10.6428374     10.4637827      5.2762753

 **********************************************************************

            Population analysis using the SCF density.

 **********************************************************************

 Orbital symmetries:
       Occupied  (A') (A') (A') (A') (A') (A') (A') (A') (A') (A')
                 (A') (A") (A') (A') (A") (A") (A') (A')
       Virtual   (A") (A') (A") (A') (A') (A") (A') (A') (A') (A')
                 (A') (A") (A") (A') (A') (A') (A') (A") (A") (A')
                 (A') (A') (A') (A') (A') (A") (A') (A') (A') (A")
                 (A') (A') (A') (A') (A") (A') (A') (A") (A') (A')
                 (A') (A') (A") (A') (A") (A') (A') (A") (A') (A")
                 (A') (A") (A') (A") (A') (A") (A') (A') (A') (A")
                 (A') (A') (A') (A") (A') (A") (A") (A') (A') (A")
                 (A') (A") (A') (A") (A') (A') (A') (A") (A') (A')
                 (A') (A") (A") (A') (A') (A') (A") (A') (A") (A')
                 (A') (A") (A') (A') (A') (A') (A') (A") (A') (A")
                 (A') (A") (A') (A") (A') (A') (A') (A") (A') (A')
                 (A') (A') (A') (A') (A')
 The electronic state is 1-A'.
 Alpha  occ. eigenvalues --  -14.57024 -14.53673 -14.52020 -14.49108 -10.37942
 Alpha  occ. eigenvalues --   -1.18942  -0.98658  -0.92984  -0.71018  -0.69616
 Alpha  occ. eigenvalues --   -0.62365  -0.52852  -0.52164  -0.40708  -0.35595
 Alpha  occ. eigenvalues --   -0.33123  -0.33008  -0.31529
 Alpha virt. eigenvalues --   -0.01804  -0.01488   0.01476   0.01490   0.04952
 Alpha virt. eigenvalues --    0.05817   0.07044   0.08371   0.09540   0.10568
 Alpha virt. eigenvalues --    0.11326   0.12652   0.14118   0.15086   0.16283
 Alpha virt. eigenvalues --    0.18359   0.18675   0.19638   0.21051   0.21203
 Alpha virt. eigenvalues --    0.21611   0.23544   0.25423   0.26192   0.27622
 Alpha virt. eigenvalues --    0.29176   0.30600   0.31816   0.32599   0.35310
 Alpha virt. eigenvalues --    0.38425   0.40373   0.43246   0.44632   0.46479
 Alpha virt. eigenvalues --    0.47245   0.48759   0.49734   0.51961   0.54632
 Alpha virt. eigenvalues --    0.57452   0.59462   0.61527   0.62890   0.65109
 Alpha virt. eigenvalues --    0.65441   0.67718   0.68601   0.72962   0.73050
 Alpha virt. eigenvalues --    0.79038   0.82668   0.82903   0.83385   0.84999
 Alpha virt. eigenvalues --    0.87009   0.88229   0.90437   0.92758   0.95689
 Alpha virt. eigenvalues --    0.97252   1.00285   1.04020   1.04051   1.12506
 Alpha virt. eigenvalues --    1.12727   1.14207   1.17523   1.21907   1.30080
 Alpha virt. eigenvalues --    1.33131   1.37331   1.40051   1.43103   1.48580
 Alpha virt. eigenvalues --    1.53176   1.57531   1.61365   1.63949   1.70249
 Alpha virt. eigenvalues --    1.78474   1.79071   1.85090   1.85571   1.89244
 Alpha virt. eigenvalues --    1.92447   1.96630   2.02115   2.04760   2.09568
 Alpha virt. eigenvalues --    2.12263   2.12300   2.15796   2.24149   2.26743
 Alpha virt. eigenvalues --    2.28308   2.35783   2.35970   2.40276   2.49988
 Alpha virt. eigenvalues --    2.52590   2.55512   2.58381   2.60777   2.61260
 Alpha virt. eigenvalues --    2.70710   2.73053   2.84081   2.92601   2.96753
 Alpha virt. eigenvalues --    3.07877   3.17817   3.21595   3.54220   3.83240
          Condensed to atoms (all electrons):
               1          2          3          4          5          6
     1  C    4.899682   0.314545  -0.299187  -0.020275   0.269042   0.077865
     2  N    0.314545   6.957294  -0.666103   0.278364  -0.326073  -0.090170
     3  N   -0.299187  -0.666103   8.733462  -0.948473   0.479837   0.016406
     4  N   -0.020275   0.278364  -0.948473   8.757392  -0.838825   0.002745
     5  N    0.269042  -0.326073   0.479837  -0.838825   7.761190  -0.044525
     6  H    0.077865  -0.090170   0.016406   0.002745  -0.044525   1.237713
     7  H   -0.148822   0.509490  -0.220330   0.034158  -0.015115   0.010971
               7
     1  C   -0.148822
     2  N    0.509490
     3  N   -0.220330
     4  N    0.034158
     5  N   -0.015115
     6  H    0.010971
     7  H    0.902217
 Mulliken charges:
               1
     1  C    0.907149
     2  N    0.022652
     3  N   -0.095611
     4  N   -0.265085
     5  N   -0.285530
     6  H   -0.211006
     7  H   -0.072570
 Sum of Mulliken charges =   0.00000
 Mulliken charges with hydrogens summed into heavy atoms:
               1
     1  C    0.696144
     2  N   -0.049917
     3  N   -0.095611
     4  N   -0.265085
     5  N   -0.285530
 Electronic spatial extent (au):  <R**2>=            249.6397
 Charge=              0.0000 electrons
 Dipole moment (field-independent basis, Debye):
    X=              2.5190    Y=              4.7405    Z=              0.0000  Tot=              5.3682
 Quadrupole moment (field-independent basis, Debye-Ang):
   XX=            -28.9964   YY=            -26.4833   ZZ=            -28.6798
   XY=              1.8477   XZ=              0.0000   YZ=              0.0000
 Traceless Quadrupole moment (field-independent basis, Debye-Ang):
   XX=             -0.9432   YY=              1.5699   ZZ=             -0.6266
   XY=              1.8477   XZ=              0.0000   YZ=              0.0000
 Octapole moment (field-independent basis, Debye-Ang**2):
  XXX=             12.2436  YYY=             22.7131  ZZZ=              0.0000  XYY=             -0.6068
  XXY=              4.7026  XXZ=              0.0000  XZZ=             -0.4678  YZZ=              0.7701
  YYZ=              0.0000  XYZ=              0.0000
 Hexadecapole moment (field-independent basis, Debye-Ang**3):
 XXXX=           -145.2819 YYYY=           -123.8237 ZZZZ=            -27.6042 XXXY=              7.2641
 XXXZ=              0.0000 YYYX=             -0.0640 YYYZ=              0.0000 ZZZX=              0.0000
 ZZZY=              0.0000 XXYY=            -55.1789 XXZZ=            -31.5426 YYZZ=            -30.0016
 XXYZ=              0.0000 YYXZ=              0.0000 ZZXY=              0.0562
 N-N= 1.676246638818D+02 E-N=-9.378311312538D+02  KE= 2.568883907728D+02
 Symmetry A'   KE= 2.474944439178D+02
 Symmetry A"   KE= 9.393946855058D+00
 B after Tr=     0.009708   -0.005032    0.000000
         Rot=    1.000000    0.000000    0.000000    0.000134 Ang=   0.02 deg.
 Determination of dummy atom variables in z-matrix conversion failed.
 NNew=      6.12345080D+00 NOld=      6.12201565D+00 Diff= 1.44D-03
 1\1\GINC-N963\FOpt\RB1B95\Aug-CC-pVDZ\C1H2N4\RDJ3\16-Dec-2013\0\\#B1B9
 5/aug-cc-pVDZ opt freq\\1H-tetrazole CH2N4 casno=288948 state=1 config
 =1 method=55 basis=17\\0,1\C,1.0066526301,0.0015054132,0.\N,0.38654671
 2,-1.1860208831,0.\N,-0.934918117,-0.9802027329,0.\N,-1.0946685921,0.2
 950457458,0.\N,0.0917574781,0.9409977581,0.\H,2.078219967,0.141500753,
 0.\H,0.758425801,-2.1231044432,0.\\Version=EM64L-G09RevD.01\State=1-A'
 \HF=-258.207886\RMSD=7.466e-09\RMSF=2.373e-04\Dipole=1.6847112,-1.2737
 44,0.\Quadrupole=0.6805103,-0.2146141,-0.4658961,-1.5998514,0.,0.\PG=C
 S [SG(C1H2N4)]\\@


 If your ship doesn't come in, swim out to it!
                          -- Jonathan Winters
 Job cpu time:       0 days  0 hours  3 minutes 52.6 seconds.
 File lengths (MBytes):  RWF=     10 Int=      0 D2E=      0 Chk=      2 Scr=      1
 Normal termination of Gaussian 09 at Mon Dec 16 15:21:41 2013.
 Link1:  Proceeding to internal job step number  2.
 ----------------------------------------------------------------------
 #N Geom=AllCheck Guess=TCheck SCRF=Check GenChk RB1B95/Aug-CC-pVDZ Fre
 q
 ----------------------------------------------------------------------
 1/10=4,29=7,30=1,38=1,40=1/1,3;
 2/12=2,40=1/2;
 3/5=16,7=10,11=2,14=-4,16=1,25=1,30=1,70=2,71=2,74=-17,116=1,140=1/1,2,3;
 4/5=101/1;
 5/5=2,98=1/2;
 8/6=4,10=90,11=11/1;
 11/6=1,8=1,9=11,15=111,16=1/1,2,10;
 10/6=1/2;
 6/7=2,8=2,9=2,10=2,18=1,28=1/1;
 7/8=1,10=1,25=1/1,2,3,16;
 1/10=4,30=1/3;
 99//99;
 Structure from the checkpoint file:  "/tmp/rdj3/g09-18029/Gau-2486.chk"
 -------------------------------------------------------------------
 1H-tetrazole CH2N4 casno=288948 state=1 config=1 method=55 basis=17
 -------------------------------------------------------------------
 Charge =  0 Multiplicity = 1
 Redundant internal coordinates found in file.
 C,0,1.0067156171,0.0014907039,0.
 N,0,0.386609699,-1.1860355923,0.
 N,0,-0.9348551301,-0.9802174422,0.
 N,0,-1.0946056051,0.2950310365,0.
 N,0,0.091820465,0.9409830489,0.
 H,0,2.078282954,0.1414860437,0.
 H,0,0.758488788,-2.1231191525,0.
 Recover connectivity data from disk.

 GradGradGradGradGradGradGradGradGradGradGradGradGradGradGradGradGradGrad
 Berny optimization.
 Initialization pass.
                           ----------------------------
                           !    Initial Parameters    !
                           ! (Angstroms and Degrees)  !
 --------------------------                            --------------------------
 ! Name  Definition              Value          Derivative Info.                !
 --------------------------------------------------------------------------------
 ! R1    R(1,2)                  1.3397         calculate D2E/DX2 analytically  !
 ! R2    R(1,5)                  1.3114         calculate D2E/DX2 analytically  !
 ! R3    R(1,6)                  1.0807         calculate D2E/DX2 analytically  !
 ! R4    R(2,3)                  1.3374         calculate D2E/DX2 analytically  !
 ! R5    R(2,7)                  1.0082         calculate D2E/DX2 analytically  !
 ! R6    R(3,4)                  1.2852         calculate D2E/DX2 analytically  !
 ! R7    R(4,5)                  1.3509         calculate D2E/DX2 analytically  !
[...]
 Calling FoFJK, ICntrl=    100127 FMM=F ISym2X=1 I1Cent= 0 IOpClX= 0 NMat=1 NMatS=1 NMatT=0.
 Full mass-weighted force constant matrix:
 Low frequencies ---   -6.5865    0.0004    0.0005    0.0010   14.1918   18.9486
 Low frequencies ---  616.5915  699.8747  749.6038
 Diagonal vibrational polarizability:
        1.0993448       1.0164090       6.9418983
 Harmonic frequencies (cm**-1), IR intensities (KM/Mole), Raman scattering
 activities (A**4/AMU), depolarization ratios for plane and unpolarized
 incident light, reduced masses (AMU), force constants (mDyne/A),
 and normal coordinates:
                      1                      2                      3
                     A"                     A"                     A"
 Frequencies --    616.5905               699.8744               749.6038
 Red. masses --      1.8545                 1.8364                 8.2310
 Frc consts  --      0.4154                 0.5300                 2.7250
 IR Inten    --     75.2680                10.6973                 7.9500
  Atom  AN      X      Y      Z        X      Y      Z        X      Y      Z
     1   6     0.00   0.00  -0.09     0.00   0.00   0.16     0.00   0.00  -0.09
     2   7     0.00   0.00   0.22     0.00   0.00  -0.08     0.00   0.00  -0.13
     3   7     0.00   0.00  -0.09     0.00   0.00   0.09     0.00   0.00   0.42
     4   7     0.00   0.00   0.00     0.00   0.00   0.04     0.00   0.00  -0.50
     5   7     0.00   0.00   0.04     0.00   0.00  -0.16     0.00   0.00   0.33
     6   1     0.00   0.00  -0.28     0.00   0.00   0.50     0.00   0.00  -0.13
     7   1     0.00   0.00  -0.93     0.00   0.00  -0.82     0.00   0.00  -0.65
                      4                      5                      6
                     A"                     A'                     A'
 Frequencies --    864.9446               985.0068              1019.7317
 Red. masses --      1.3844                 4.0214                 5.4882
 Frc consts  --      0.6102                 2.2988                 3.3624
 IR Inten    --     17.9479                 2.3867                 1.9811
  Atom  AN      X      Y      Z        X      Y      Z        X      Y      Z
     1   6     0.00   0.00   0.18     0.15   0.11   0.00    -0.31  -0.05   0.00
     2   7     0.00   0.00  -0.03     0.08   0.01   0.00     0.01   0.40   0.00
     3   7     0.00   0.00   0.00     0.12  -0.13   0.00     0.17  -0.07   0.00
     4   7     0.00   0.00  -0.01    -0.05  -0.17   0.00     0.15  -0.10   0.00
     5   7     0.00   0.00  -0.03    -0.28   0.24   0.00    -0.05  -0.17   0.00
     6   1     0.00   0.00  -0.98     0.38  -0.62   0.00    -0.14  -0.67   0.00
     7   1     0.00   0.00  -0.05    -0.49  -0.03   0.00    -0.07   0.41   0.00
                      7                      8                      9
                     A'                     A'                     A'
 Frequencies --   1094.4785              1106.1402              1157.3836
 Red. masses --      2.6517                 4.7693                 2.0892
 Frc consts  --      1.8715                 3.4382                 1.6489
 IR Inten    --     30.5783                19.1652                 8.8835
  Atom  AN      X      Y      Z        X      Y      Z        X      Y      Z
     1   6    -0.01  -0.02   0.00    -0.14   0.06   0.00     0.06  -0.10   0.00
     2   7    -0.13  -0.06   0.00     0.00  -0.18   0.00    -0.14  -0.05   0.00
     3   7     0.29   0.12   0.00     0.04   0.11   0.00    -0.05   0.06   0.00
     4   7    -0.08  -0.01   0.00     0.36  -0.02   0.00     0.16   0.13   0.00
     5   7     0.00  -0.06   0.00    -0.30   0.02   0.00     0.00   0.00   0.00
     6   1    -0.18   0.49   0.00    -0.30   0.51   0.00     0.27  -0.76   0.00
     7   1    -0.77  -0.10   0.00     0.57  -0.17   0.00    -0.51  -0.07   0.00
                     10                     11                     12
                     A'                     A'                     A'
 Frequencies --   1290.0934              1336.3465              1491.7390
 Red. masses --      2.6376                10.6563                 3.5172
 Frc consts  --      2.5864                11.2123                 4.6114
 IR Inten    --      1.1908                13.1025                 9.0879
  Atom  AN      X      Y      Z        X      Y      Z        X      Y      Z
     1   6     0.18   0.03   0.00     0.26   0.08   0.00    -0.19   0.26   0.00
     2   7     0.08   0.12   0.00    -0.15   0.13   0.00     0.23  -0.14   0.00
     3   7    -0.12  -0.08   0.00    -0.19   0.50   0.00    -0.07   0.10   0.00
     4   7     0.07   0.06   0.00     0.04  -0.58   0.00    -0.01  -0.02   0.00
     5   7    -0.13  -0.18   0.00     0.03  -0.13   0.00     0.07  -0.11   0.00
     6   1     0.01   0.65   0.00     0.37  -0.11   0.00     0.00  -0.45   0.00
     7   1    -0.67   0.09   0.00     0.24   0.20   0.00    -0.73  -0.22   0.00
                     13                     14                     15
                     A'                     A'                     A'
 Frequencies --   1535.6361              3316.0345              3686.0208
 Red. masses --      3.8261                 1.1023                 1.0846
 Frc consts  --      5.3159                 7.1413                 8.6819
 IR Inten    --     16.2470                 1.7933                98.4135
  Atom  AN      X      Y      Z        X      Y      Z        X      Y      Z
     1   6     0.11   0.32   0.00     0.09   0.03   0.00     0.00   0.00   0.00
     2   7    -0.17  -0.04   0.00     0.00   0.00   0.00    -0.01   0.08   0.00
     3   7     0.11  -0.08   0.00     0.00   0.00   0.00     0.00   0.00   0.00
     4   7    -0.06   0.10   0.00     0.00   0.00   0.00     0.00   0.00   0.00
     5   7    -0.05  -0.23   0.00     0.00   0.00   0.00     0.00   0.00   0.00
     6   1     0.38  -0.38   0.00    -0.95  -0.30   0.00    -0.02   0.00   0.00
     7   1     0.69   0.01   0.00     0.01   0.02   0.00     0.06  -1.00   0.00

 -------------------
 - Thermochemistry -
 -------------------
 Temperature   298.150 Kelvin.  Pressure   1.00000 Atm.
 Atom     1 has atomic number  6 and mass  12.00000
 Atom     2 has atomic number  7 and mass  14.00307
 Atom     3 has atomic number  7 and mass  14.00307
 Atom     4 has atomic number  7 and mass  14.00307
 Atom     5 has atomic number  7 and mass  14.00307
 Atom     6 has atomic number  1 and mass   1.00783
 Atom     7 has atomic number  1 and mass   1.00783
 Molecular mass:    70.02795 amu.
 Principal axes and moments of inertia in atomic units:
                           1         2         3
     Eigenvalues --   169.57331 172.47503 342.04834
           X            0.79856   0.60192   0.00000
           Y           -0.60192   0.79856   0.00000
           Z            0.00000   0.00000   1.00000
 This molecule is an asymmetric top.
 Rotational symmetry number  1.
 Rotational temperatures (Kelvin)      0.51078     0.50218     0.25322
 Rotational constants (GHZ):          10.64284    10.46378     5.27628
 Zero-point vibrational energy     125306.6 (Joules/Mol)
                                   29.94899 (Kcal/Mol)
 Warning -- explicit consideration of   1 degrees of freedom as
           vibrations may cause significant error
 Vibrational temperatures:    887.14  1006.96  1078.51  1244.46  1417.20
          (Kelvin)           1467.16  1574.71  1591.49  1665.21  1856.15
                             1922.70  2146.28  2209.44  4771.03  5303.36
 
 Zero-point correction=                           0.047727 (Hartree/Particle)
 Thermal correction to Energy=                    0.051152
 Thermal correction to Enthalpy=                  0.052097
 Thermal correction to Gibbs Free Energy=         0.021665
 Sum of electronic and zero-point Energies=           -258.160159
 Sum of electronic and thermal Energies=              -258.156734
 Sum of electronic and thermal Enthalpies=            -258.155789
 Sum of electronic and thermal Free Energies=         -258.186221
 
                     E (Thermal)             CV                S
                      KCal/Mol        Cal/Mol-Kelvin    Cal/Mol-Kelvin
 Total                   32.099             11.046             64.049
 Electronic               0.000              0.000              0.000
 Translational            0.889              2.981             38.656
 Rotational               0.889              2.981             23.818
 Vibrational             30.321              5.085              1.575
 Vibration     1          0.976              0.997              0.422
                       Q            Log10(Q)             Ln(Q)
 Total Bot       0.108383D-09         -9.965041        -22.945354
 Total V=0       0.972067D+12         11.987696         27.602691
 Vib (Bot)       0.131421D-21        -21.881335        -50.383636
 Vib (Bot)    1  0.238029D+00         -0.623370         -1.435361
 Vib (V=0)       0.117870D+01          0.071402          0.164409
 Vib (V=0)    1  0.105377D+01          0.022745          0.052371
 Electronic      0.100000D+01          0.000000          0.000000
 Translational   0.230336D+08          7.362362         16.952466
 Rotational      0.358040D+05          4.553932         10.485816
 ***** Axes restored to original set *****
 -------------------------------------------------------------------
 Center     Atomic                   Forces (Hartrees/Bohr)
 Number     Number              X              Y              Z
 -------------------------------------------------------------------
      1        6           0.000357558    0.000144216    0.000000000
      2        7          -0.000254274   -0.000194248    0.000000000
      3        7           0.000238007    0.000616852    0.000000000
      4        7           0.000060420   -0.000026166    0.000000000
      5        7          -0.000439664   -0.000543590    0.000000000
      6        1           0.000031672   -0.000015228    0.000000000
      7        1           0.000006282    0.000018165    0.000000000
 -------------------------------------------------------------------
 Cartesian Forces:  Max     0.000616852 RMS     0.000237339
 FormGI is forming the generalized inverse of G from B-inverse, IUseBI=4.

 GradGradGradGradGradGradGradGradGradGradGradGradGradGradGradGradGradGrad
 Berny optimization.
 Internal  Forces:  Max     0.000387343 RMS     0.000161718
 Search for a local minimum.
 Step number   1 out of a maximum of    2
 All quantities printed in internal units (Hartrees-Bohrs-Radians)
 Second derivative matrix not updated -- analytic derivatives used.
 ITU=  0
     Eigenvalues ---    0.00907   0.02561   0.07344   0.07949   0.10039
     Eigenvalues ---    0.10496   0.21346   0.26903   0.36484   0.38411
     Eigenvalues ---    0.44966   0.48083   0.49478   0.59297   0.64862
 Angle between quadratic step and forces=  20.64 degrees.
 Linear search not attempted -- first point.
 Iteration  1 RMS(Cart)=  0.00036922 RMS(Int)=  0.00000012
 Iteration  2 RMS(Cart)=  0.00000013 RMS(Int)=  0.00000004
 ClnCor:  largest displacement from symmetrization is 1.33D-12 for atom     7.
 Variable       Old X    -DE/DX   Delta X   Delta X   Delta X     New X
                                 (Linear)    (Quad)   (Total)
    R1        2.53163   0.00004   0.00000   0.00045   0.00045   2.53208
    R2        2.47812   0.00004   0.00000   0.00009   0.00009   2.47822
    R3        2.04218   0.00002   0.00000   0.00001   0.00001   2.04219
    R4        2.52731  -0.00006   0.00000  -0.00038  -0.00038   2.52693
    R5        1.90518  -0.00001   0.00000  -0.00003  -0.00003   1.90515
    R6        2.42871  -0.00039   0.00000  -0.00056  -0.00056   2.42815
    R7        2.55278  -0.00036   0.00000  -0.00112  -0.00112   2.55167
    A1        1.88822  -0.00029   0.00000  -0.00088  -0.00088   1.88734
    A2        2.18194   0.00015   0.00000   0.00060   0.00060   2.18254
    A3        2.21302   0.00014   0.00000   0.00028   0.00028   2.21331
    A4        1.89752  -0.00012   0.00000  -0.00013  -0.00013   1.89739
    A5        2.28257   0.00002   0.00000  -0.00011  -0.00011   2.28246
    A6        2.10309   0.00010   0.00000   0.00024   0.00024   2.10333
    A7        1.84993   0.00029   0.00000   0.00055   0.00055   1.85047
    A8        1.94475  -0.00022   0.00000  -0.00047  -0.00047   1.94428
    A9        1.84436   0.00034   0.00000   0.00094   0.00094   1.84529
    D1        0.00000   0.00000   0.00000   0.00000   0.00000   0.00000
    D2        3.14159   0.00000   0.00000   0.00000   0.00000   3.14159
    D3        3.14159   0.00000   0.00000   0.00000   0.00000   3.14159
    D4        0.00000   0.00000   0.00000   0.00000   0.00000   0.00000
    D5        0.00000   0.00000   0.00000   0.00000   0.00000   0.00000
    D6        3.14159   0.00000   0.00000   0.00000   0.00000   3.14159
    D7        0.00000   0.00000   0.00000   0.00000   0.00000   0.00000
    D8        3.14159   0.00000   0.00000   0.00000   0.00000   3.14159
    D9        0.00000   0.00000   0.00000   0.00000   0.00000   0.00000
   D10        0.00000   0.00000   0.00000   0.00000   0.00000   0.00000
         Item               Value     Threshold  Converged?
 Maximum Force            0.000387     0.000450     YES
 RMS     Force            0.000162     0.000300     YES
 Maximum Displacement     0.001086     0.001800     YES
 RMS     Displacement     0.000369     0.001200     YES
 Predicted change in Energy=-8.294602D-07
 Optimization completed.
    -- Stationary point found.
                           ----------------------------
                           !   Optimized Parameters   !
                           ! (Angstroms and Degrees)  !
 --------------------------                            --------------------------
 ! Name  Definition              Value          Derivative Info.                !
 --------------------------------------------------------------------------------
 ! R1    R(1,2)                  1.3397         -DE/DX =    0.0                 !
 ! R2    R(1,5)                  1.3114         -DE/DX =    0.0                 !
 ! R3    R(1,6)                  1.0807         -DE/DX =    0.0                 !
 ! R4    R(2,3)                  1.3374         -DE/DX =   -0.0001              !
 ! R5    R(2,7)                  1.0082         -DE/DX =    0.0                 !
 ! R6    R(3,4)                  1.2852         -DE/DX =   -0.0004              !
 ! R7    R(4,5)                  1.3509         -DE/DX =   -0.0004              !
 ! A1    A(2,1,5)              108.1872         -DE/DX =   -0.0003              !
 ! A2    A(2,1,6)              125.0161         -DE/DX =    0.0002              !
 ! A3    A(5,1,6)              126.7968         -DE/DX =    0.0001              !
 ! A4    A(1,2,3)              108.7201         -DE/DX =   -0.0001              !
 ! A5    A(1,2,7)              130.7817         -DE/DX =    0.0                 !
 ! A6    A(3,2,7)              120.4982         -DE/DX =    0.0001              !
 ! A7    A(2,3,4)              105.9929         -DE/DX =    0.0003              !
 ! A8    A(3,4,5)              111.4259         -DE/DX =   -0.0002              !
 ! A9    A(1,5,4)              105.6739         -DE/DX =    0.0003              !
 ! D1    D(5,1,2,3)              0.0            -DE/DX =    0.0                 !
 ! D2    D(5,1,2,7)            180.0            -DE/DX =    0.0                 !
 ! D3    D(6,1,2,3)            180.0            -DE/DX =    0.0                 !
 ! D4    D(6,1,2,7)              0.0            -DE/DX =    0.0                 !
 ! D5    D(2,1,5,4)              0.0            -DE/DX =    0.0                 !
 ! D6    D(6,1,5,4)            180.0            -DE/DX =    0.0                 !
 ! D7    D(1,2,3,4)              0.0            -DE/DX =    0.0                 !
 ! D8    D(7,2,3,4)            180.0            -DE/DX =    0.0                 !
 ! D9    D(2,3,4,5)              0.0            -DE/DX =    0.0                 !
 ! D10   D(3,4,5,1)              0.0            -DE/DX =    0.0                 !
 --------------------------------------------------------------------------------
 GradGradGradGradGradGradGradGradGradGradGradGradGradGradGradGradGradGrad

 1\1\GINC-N963\Freq\RB1B95\Aug-CC-pVDZ\C1H2N4\RDJ3\16-Dec-2013\0\\#N Ge
 om=AllCheck Guess=TCheck SCRF=Check GenChk RB1B95/Aug-CC-pVDZ Freq\\1H
 -tetrazole CH2N4 casno=288948 state=1 config=1 method=55 basis=17\\0,1
 \C,1.0067156171,0.0014907039,0.\N,0.386609699,-1.1860355923,0.\N,-0.93
 48551301,-0.9802174422,0.\N,-1.0946056051,0.2950310365,0.\N,0.09182046
 5,0.9409830489,0.\H,2.078282954,0.1414860437,0.\H,0.758488788,-2.12311
 91525,0.\\Version=EM64L-G09RevD.01\State=1-A'\HF=-258.207886\RMSD=9.69
 2e-10\RMSF=2.373e-04\ZeroPoint=0.0477268\Thermal=0.0511524\Dipole=1.68
 47109,-1.2737438,0.\DipoleDeriv=0.1845901,0.0584338,0.,-0.0951759,0.44
 2878,0.,0.,0.,0.0792073,-0.2100755,0.2869836,0.,0.2218219,-0.3577349,0
 .,0.,0.,-0.110395,0.1094658,-0.3596819,0.,-0.2907752,-0.2004847,0.,0.,
 0.,-0.1017211,0.0499465,0.155643,0.,0.193153,0.0130791,0.,0.,0.,-0.159
 4755,-0.3901945,-0.1223524,0.,-0.0189237,-0.2948014,0.,0.,0.,-0.204653
 2,0.0581994,0.0134055,0.,0.0081829,0.1109341,0.,0.,0.,0.172174,0.19806
 81,-0.0324317,0.,-0.0182831,0.2861299,0.,0.,0.,0.3248635\Polar=45.2846
 872,-0.1215084,44.103036,0.,0.,25.9061026\PG=CS [SG(C1H2N4)]\NImag=0\\
 0.98053867,0.01807461,0.64327686,0.,0.,0.14312012,-0.17412339,-0.08601
 888,0.,0.61842367,-0.11776248,-0.29993656,0.,-0.11239147,1.02965814,0.
 ,0.,-0.06492759,0.,0.,0.09919568,-0.09230763,-0.09048069,0.,-0.2600297
 6,-0.02747239,0.,0.48715285,0.00265612,-0.02793702,0.,0.00760553,-0.10
 622417,0.,0.06408579,0.60846064,0.,0.,0.02165830,0.,0.,-0.07195272,0.,
 0.,0.11860226,-0.12002398,0.07264657,0.,-0.07820837,0.03561849,0.,-0.1
 1150771,0.00536933,0.,0.52921543,-0.03008280,0.03105203,0.,0.11501896,
 -0.10027865,0.,0.06194514,-0.37066692,0.,-0.09500395,0.55578849,0.,0.,
 0.01997309,0.,0.,0.02766633,0.,0.,-0.09970033,0.,0.,0.12790520,-0.2461
 5885,0.14172180,0.,0.01623699,0.09100300,0.,-0.02566088,-0.11657334,0.
 ,-0.20651573,-0.05654048,0.,0.47506428,0.15266174,-0.28084139,0.,-0.02
 747624,-0.10374654,0.,-0.00731541,-0.10043357,0.,-0.02096603,-0.115908
 24,0.,-0.08192527,0.59298224,0.,0.,-0.08080568,0.,0.,0.02155918,0.,0.,
 0.03668224,0.,0.,-0.09262308,0.,0.,0.11241547,-0.36512677,-0.04442160,
 0.,-0.00196110,0.00380729,0.,0.00075718,0.00191145,0.,-0.00130896,0.00
 053205,0.,-0.01090149,-0.00528973,0.,0.37905015,-0.04050577,-0.0605929
 1,0.,-0.03182669,0.00271880,0.,-0.00135040,-0.00695902,0.,0.00671742,-
 0.00293413,0.,0.02263957,0.01157195,0.,0.04400194,0.05627506,0.,0.,-0.
 03033786,0.,0.,-0.00241585,0.,0.,0.00632430,0.,0.,0.00892113,0.,0.,-0.
 00480002,0.,0.,0.02323949,0.01720195,-0.01152180,0.,-0.12033804,0.1271
 9756,0.,0.00159596,0.03494511,0.,-0.01165067,0.00413108,0.,-0.00206433
 ,-0.00968906,0.,-0.00050901,0.00032392,0.,0.11576414,0.01495858,-0.005
 02101,0.,0.13508880,-0.42219103,0.,0.00058795,0.00376006,0.,-0.0043818
 3,0.00294741,0.,-0.00032529,-0.00362445,0.,-0.00054140,-0.00007975,0.,
 -0.14538681,0.42420877,0.,0.,-0.00868038,0.,0.,-0.00912503,0.,0.,-0.01
 161404,0.,0.,0.00785766,0.,0.,0.00757189,0.,0.,-0.00093118,0.,0.,0.014
 92108\\-0.00035756,-0.00014422,0.,0.00025427,0.00019425,0.,-0.00023801
 ,-0.00061685,0.,-0.00006042,0.00002617,0.,0.00043966,0.00054359,0.,-0.
 00003167,0.00001523,0.,-0.00000628,-0.00001816,0.\\\@


 I DO NOT KNOW WHAT I MAY APPEAR TO THE WORLD; BUT TO MYSELF
 I SEEM TO HAVE BEEN ONLY LIKE A BOY PLAYING ON THE SEASHORE,
 AND DIVERTING MYSELF IN NOW AND THEN FINDING A SMOOTHER PEBBLE
 OR A PRETTIER SHELL THAN ORDINARY, WHILST THE GREAT OCEAN OF
 TRUTH LAY ALL UNDISCOVERED BEFORE ME.
                                          -- NEWTON (1642-1726)
 Job cpu time:       0 days  0 hours  3 minutes 33.5 seconds.
 File lengths (MBytes):  RWF=     18 Int=      0 D2E=      0 Chk=      2 Scr=      1
 Normal termination of Gaussian 09 at Mon Dec 16 15:22:08 2013.
