 Entering Gaussian System, Link 0=g09
 Initial command:
 /usr/local/gaussian/g09.d01.em64t.legacy.linda/g09/l1.exe "/tmp/rdj3/g09-23219/Gau-15989.inp" -scrdir="/tmp/rdj3/g09-23219/"
 Entering Link 1 = /usr/local/gaussian/g09.d01.em64t.legacy.linda/g09/l1.exe PID=     15990.
  
 Copyright (c) 1988,1990,1992,1993,1995,1998,2003,2009,2013,
            Gaussian, Inc.  All Rights Reserved.
  
 This is part of the Gaussian(R) 09 program.  It is based on
 the Gaussian(R) 03 system (copyright 2003, Gaussian, Inc.),
 the Gaussian(R) 98 system (copyright 1998, Gaussian, Inc.),
 the Gaussian(R) 94 system (copyright 1995, Gaussian, Inc.),
 the Gaussian 92(TM) system (copyright 1992, Gaussian, Inc.),
 the Gaussian 90(TM) system (copyright 1990, Gaussian, Inc.),
 the Gaussian 88(TM) system (copyright 1988, Gaussian, Inc.),
 the Gaussian 86(TM) system (copyright 1986, Carnegie Mellon
 University), and the Gaussian 82(TM) system (copyright 1983,
 Carnegie Mellon University). Gaussian is a federally registered
 trademark of Gaussian, Inc.
  
 This software contains proprietary and confidential information,
 including trade secrets, belonging to Gaussian, Inc.
  
 This software is provided under written license and may be
 used, copied, transmitted, or stored only in accord with that
 written license.
  
 The following legend is applicable only to US Government
 contracts under FAR:
  
                    RESTRICTED RIGHTS LEGEND
  
 Use, reproduction and disclosure by the US Government is
 subject to restrictions as set forth in subparagraphs (a)
 and (c) of the Commercial Computer Software - Restricted
 Rights clause in FAR 52.227-19.
  
 Gaussian, Inc.
 340 Quinnipiac St., Bldg. 40, Wallingford CT 06492
  
  
 ---------------------------------------------------------------
 Warning -- This program may not be used in any manner that
 competes with the business of Gaussian, Inc. or will provide
 assistance to any competitor of Gaussian, Inc.  The licensee
 of this program is prohibited from giving any competitor of
 Gaussian, Inc. access to this program.  By using this program,
 the user acknowledges that Gaussian, Inc. is engaged in the
 business of creating and licensing software in the field of
 computational chemistry and represents and warrants to the
 licensee that it is not a competitor of Gaussian, Inc. and that
 it will not use this program in any manner prohibited above.
 ---------------------------------------------------------------
  

 Cite this work as:
 Gaussian 09, Revision D.01,
 M. J. Frisch, G. W. Trucks, H. B. Schlegel, G. E. Scuseria, 
 M. A. Robb, J. R. Cheeseman, G. Scalmani, V. Barone, B. Mennucci, 
 G. A. Petersson, H. Nakatsuji, M. Caricato, X. Li, H. P. Hratchian, 
 A. F. Izmaylov, J. Bloino, G. Zheng, J. L. Sonnenberg, M. Hada, 
 M. Ehara, K. Toyota, R. Fukuda, J. Hasegawa, M. Ishida, T. Nakajima, 
 Y. Honda, O. Kitao, H. Nakai, T. Vreven, J. A. Montgomery, Jr., 
 J. E. Peralta, F. Ogliaro, M. Bearpark, J. J. Heyd, E. Brothers, 
 K. N. Kudin, V. N. Staroverov, T. Keith, R. Kobayashi, J. Normand, 
 K. Raghavachari, A. Rendell, J. C. Burant, S. S. Iyengar, J. Tomasi, 
 M. Cossi, N. Rega, J. M. Millam, M. Klene, J. E. Knox, J. B. Cross, 
 V. Bakken, C. Adamo, J. Jaramillo, R. Gomperts, R. E. Stratmann, 
 O. Yazyev, A. J. Austin, R. Cammi, C. Pomelli, J. W. Ochterski, 
 R. L. Martin, K. Morokuma, V. G. Zakrzewski, G. A. Voth, 
 P. Salvador, J. J. Dannenberg, S. Dapprich, A. D. Daniels, 
 O. Farkas, J. B. Foresman, J. V. Ortiz, J. Cioslowski, 
 and D. J. Fox, Gaussian, Inc., Wallingford CT, 2013.
 
 ******************************************
 Gaussian 09:  EM64L-G09RevD.01 24-Apr-2013
                26-Nov-2013 
 ******************************************
 %Nproc=8
 Will use up to    8 processors via shared memory.
 %mem=436000000
 ----------------------------------------
 #B2PLYP/3-21G* opt=z-matrix freq density
 ----------------------------------------
 1/10=7,18=40,38=1/1,3;
 2/12=2,17=6,18=5,29=3,40=1/2;
 3/5=5,7=1,11=9,16=1,25=1,30=1,71=1,74=-47/1,2,3;
 4//1;
 5/5=2,38=5/2;
 8/6=4,10=1/1;
 9/15=2,16=-3/6;
 10/5=1/2;
 6/7=2,8=2,9=2,10=2,22=-1/1;
 7/12=2,29=1/1,2,3,16;
 1/10=7,18=40/3(2);
 2/29=3/2;
 99//99;
 2/29=3/2;
 3/5=5,7=1,11=9,16=1,25=1,30=1,71=1,74=-47/1,2,3;
 4/5=5,16=3,69=1/1;
 5/5=2,38=5/2;
 8/6=4,10=1/1;
 9/15=2,16=-3/6;
 10/5=1/2;
 7/12=2/1,2,3,16;
 1/18=40/3(-8);
 2/29=3/2;
 6/7=2,8=2,9=2,10=2,22=-1/1;
 99//99;
 ------------------------------------------------------------------
 1H-tetrazole CH2N4 casno=288948 state=1 config=1 method=56 basis=8
 ------------------------------------------------------------------
 Symbolic Z-matrix:
 Charge =  0 Multiplicity = 1
 X
 X                    1     1. 
 C                    1     1.       2     90. 
 N                    1    rn1      2     90.      3    an1      0
 N                    1    rn2      2     90.      3    an2      0
 N                    1    rn3      2     90.      3    an3      0
 N                    1    rn4      2     90.      3    an4      0
 H                    3    rch      4    ach      5     180.     0
 H                    4    rnh      5    anh      6     180.     0
       Variables:
  rn1                   1.2426                   
  rn2                   1.333                    
  rn3                   1.1146                   
  rn4                   0.9264                   
  rch                   1.0678                   
  rnh                   0.9941                   
  an1                  71.8427                   
  an2                 133.7028                   
  an3                 194.4597                   
  an4                 276.0768                   
  ach                 125.0248                   
  anh                 120.7626                   
 

 GradGradGradGradGradGradGradGradGradGradGradGradGradGradGradGradGradGrad
 Berny optimization.
 Initialization pass.
                       ----------------------------
                       !    Initial Parameters    !
                       ! (Angstroms and Degrees)  !
 ----------------------                            ----------------------
 !      Name          Value   Derivative information (Atomic Units)     !
 ------------------------------------------------------------------------
 !       rn1         1.2426   estimate D2E/DX2                          !
 !       rn2         1.333    estimate D2E/DX2                          !
 !       rn3         1.1146   estimate D2E/DX2                          !
 !       rn4         0.9264   estimate D2E/DX2                          !
 !       rch         1.0678   estimate D2E/DX2                          !
 !       rnh         0.9941   estimate D2E/DX2                          !
 !       an1        71.8427   estimate D2E/DX2                          !
 !       an2       133.7028   estimate D2E/DX2                          !
 !       an3       194.4597   estimate D2E/DX2                          !
 !       an4       276.0768   estimate D2E/DX2                          !
 !       ach       125.0248   estimate D2E/DX2                          !
 !       anh       120.7626   estimate D2E/DX2                          !
 ------------------------------------------------------------------------
 Trust Radius=3.00D-01 FncErr=1.00D-07 GrdErr=1.00D-07
 Number of steps in this run=     22 maximum allowed number of steps=    100.
 GradGradGradGradGradGradGradGradGradGradGradGradGradGradGradGradGradGrad

 ---------------------------------------------------------------------------------------------------
                            Z-MATRIX (ANGSTROMS AND DEGREES)
   CD    Cent   Atom    N1       Length/X        N2       Alpha/Y        N3        Beta/Z          J
 ---------------------------------------------------------------------------------------------------
      1         X 
      2         X        1   1.000000(     1)
      3      1  C        1   1.000000(     2)      2   90.000(     9)
      4      2  N        1   1.242600(     3)      2   90.000(    10)      3   71.843(    16)      0
      5      3  N        1   1.333000(     4)      2   90.000(    11)      3  133.703(    17)      0
      6      4  N        1   1.114600(     5)      2   90.000(    12)      3  194.460(    18)      0
      7      5  N        1   0.926400(     6)      2   90.000(    13)      3  276.077(    19)      0
      8      6  H        3   1.067800(     7)      4  125.025(    14)      5  180.000(    20)      0
      9      7  H        4   0.994100(     8)      5  120.763(    15)      6  180.000(    21)      0
 ---------------------------------------------------------------------------------------------------
                         Z-Matrix orientation:                         
 ---------------------------------------------------------------------
 Center     Atomic      Atomic             Coordinates (Angstroms)
 Number     Number       Type             X           Y           Z
 ---------------------------------------------------------------------
      1         -1           0        0.000000    0.000000    0.000000
      2         -1           0        0.000000    0.000000    1.000000
      3          6           0        1.000000    0.000000    0.000000
      4          7           0        0.387228   -1.180724    0.000000
      5          7           0       -0.920993   -0.963670    0.000000
      6          7           0       -1.079293    0.278314    0.000000
      7          7           0        0.098070    0.921194    0.000000
      8          1           0        2.058429    0.141157    0.000000
      9          1           0        0.749017   -2.106652    0.000000
 ---------------------------------------------------------------------
                    Distance matrix (angstroms):
                    1          2          3          4          5
     1  X    0.000000
     2  X    1.000000   0.000000
     3  C    1.000000   1.414214   0.000000
     4  N    1.242600   1.595009   1.330263   0.000000
     5  N    1.333000   1.666400   2.149157   1.326105   0.000000
     6  N    1.114600   1.497442   2.097837   2.068690   1.252032
     7  N    0.926400   1.363164   1.289216   2.121715   2.142710
     8  H    2.063263   2.292827   1.067800   2.130794   3.177672
     9  H    2.235847   2.449288   2.121551   0.994100   2.023695
                    6          7          8          9
     6  N    0.000000
     7  N    1.341447   0.000000
     8  H    3.140719   2.109850   0.000000
     9  H    3.005127   3.097029   2.601385   0.000000
 Stoichiometry    CH2N4
 Framework group  CS[SG(CH2N4)]
 Deg. of freedom    11
 Full point group                 CS      NOp   2
 Largest Abelian subgroup         CS      NOp   2
 Largest concise Abelian subgroup C1      NOp   1
                         Standard orientation:                         
 ---------------------------------------------------------------------
 Center     Atomic      Atomic             Coordinates (Angstroms)
 Number     Number       Type             X           Y           Z
 ---------------------------------------------------------------------
      1          6           0        1.052733    0.225621    0.000000
      2          7           0        0.000000    1.038857    0.000000
      3          7           0       -1.095416    0.291448    0.000000
      4          7           0       -0.716382   -0.901832    0.000000
      5          7           0        0.622191   -0.989579    0.000000
      6          1           0        2.072287    0.542964    0.000000
      7          1           0       -0.061439    2.031056    0.000000
 ---------------------------------------------------------------------
 Rotational constants (GHZ):     10.9201517     10.7345054      5.4132664
 Standard basis: 3-21G* (6D, 7F)
 There are    39 symmetry adapted cartesian basis functions of A'  symmetry.
 There are    10 symmetry adapted cartesian basis functions of A"  symmetry.
 There are    39 symmetry adapted basis functions of A'  symmetry.
 There are    10 symmetry adapted basis functions of A"  symmetry.
    49 basis functions,    81 primitive gaussians,    49 cartesian basis functions
    18 alpha electrons       18 beta electrons
       nuclear repulsion energy       169.8308489506 Hartrees.
 NAtoms=    7 NActive=    7 NUniq=    7 SFac= 1.00D+00 NAtFMM=   60 NAOKFM=F Big=F
 Integral buffers will be    131072 words long.
 Regular integral format.
 Two-electron integral symmetry is turned on.
 One-electron integrals computed using PRISM.
 NBasis=    49 RedAO= T EigKep=  1.68D-02  NBF=    39    10
 NBsUse=    49 1.00D-06 EigRej= -1.00D+00 NBFU=    39    10
 ExpMin= 1.83D-01 ExpMax= 2.43D+02 ExpMxC= 2.43D+02 IAcc=1 IRadAn=         1 AccDes= 0.00D+00
 Harris functional with IExCor=  419 and IRadAn=       1 diagonalized for initial guess.
 HarFok:  IExCor=  419 AccDes= 0.00D+00 IRadAn=         1 IDoV= 1 UseB2=F ITyADJ=14
 ICtDFT=  3500011 ScaDFX=  1.000000  1.000000  1.000000  1.000000
 FoFCou: FMM=F IPFlag=           0 FMFlag=      100000 FMFlg1=           0
         NFxFlg=           0 DoJE=T BraDBF=F KetDBF=T FulRan=T
         wScrn=  0.000000 ICntrl=     500 IOpCl=  0 I1Cent=   200000004 NGrid=           0
         NMat0=    1 NMatS0=      1 NMatT0=    0 NMatD0=    1 NMtDS0=    0 NMtDT0=    0
 Petite list used in FoFCou.
 Initial guess orbital symmetries:
       Occupied  (A') (A') (A') (A') (A') (A') (A') (A') (A') (A')
                 (A') (A') (A") (A') (A") (A') (A") (A')
       Virtual   (A") (A") (A') (A') (A') (A') (A') (A') (A') (A')
                 (A") (A') (A') (A') (A') (A") (A') (A") (A') (A")
                 (A') (A") (A') (A') (A') (A') (A') (A') (A') (A')
                 (A')
 The electronic state of the initial guess is 1-A'.
 Keep R1 ints in memory in symmetry-blocked form, NReq=1649580.
 Requested convergence on RMS density matrix=1.00D-08 within 128 cycles.
 Requested convergence on MAX density matrix=1.00D-06.
 Requested convergence on             energy=1.00D-06.
 No special actions if energy rises.
 Integral accuracy reduced to 1.0D-05 until final iterations.
 Initial convergence to 1.0D-05 achieved.  Increase integral accuracy.
 SCF Done:  E(RB2PLYP) =  -256.260695009     A.U. after   14 cycles
            NFock= 14  Conv=0.43D-08     -V/T= 2.0031
 DoSCS=T DFT=T ScalE2(SS,OS)=  0.270000  0.270000
 ExpMin= 1.83D-01 ExpMax= 2.43D+02 ExpMxC= 2.43D+02 IAcc=3 IRadAn=         5 AccDes= 0.00D+00
 HarFok:  IExCor=  205 AccDes= 0.00D+00 IRadAn=         5 IDoV=-2 UseB2=F ITyADJ=14
 ICtDFT= 12500011 ScaDFX=  1.000000  1.000000  1.000000  1.000000
 Range of M.O.s used for correlation:     6    49
 NBasis=    49 NAE=    18 NBE=    18 NFC=     5 NFV=     0
 NROrb=     44 NOA=    13 NOB=    13 NVA=    31 NVB=    31
 DoSCS=T DFT=T ScalE2(SS,OS)=  0.270000  0.270000
 Fully direct method using O(ONN) memory.
 JobTyp=1 Pass  1:  I=   6 to  18 NPSUse=  8 ParTrn=T ParDer=T DoDerP=T.
 Spin components of T(2) and E(2):
     alpha-alpha T2 =       0.4230433205D-01 E2=     -0.2414526236D-01
     alpha-beta  T2 =       0.2303700171D+00 E2=     -0.1311325973D+00
     beta-beta   T2 =       0.4230433205D-01 E2=     -0.2414526236D-01
 E2(B2PLYP) =    -0.1794231221D+00 E(B2PLYP) =    -0.25644011813057D+03
          IDoAtm=1111111
          Differentiating once with respect to electric field.
                with respect to dipole field.
          Differentiating once with respect to nuclear coordinates.
 Keep R1 ints in memory in symmetry-blocked form, NReq=1624022.
          There are     1 degrees of freedom in the 1st order CPHF.  IDoFFX=0 NUNeed=     1.
 LinEq1:  Iter=  0 NonCon=     1 RMS=4.18D-03 Max=3.16D-02 NDo=     1
 AX will form     1 AO Fock derivatives at one time.
 LinEq1:  Iter=  1 NonCon=     1 RMS=1.03D-03 Max=6.25D-03 NDo=     1
 LinEq1:  Iter=  2 NonCon=     1 RMS=4.15D-04 Max=6.79D-03 NDo=     1
 LinEq1:  Iter=  3 NonCon=     1 RMS=2.06D-04 Max=1.17D-03 NDo=     1
 LinEq1:  Iter=  4 NonCon=     1 RMS=7.92D-05 Max=8.35D-04 NDo=     1
 LinEq1:  Iter=  5 NonCon=     1 RMS=5.67D-05 Max=8.86D-04 NDo=     1
 LinEq1:  Iter=  6 NonCon=     1 RMS=1.67D-05 Max=1.91D-04 NDo=     1
 LinEq1:  Iter=  7 NonCon=     1 RMS=9.48D-06 Max=6.91D-05 NDo=     1
 LinEq1:  Iter=  8 NonCon=     1 RMS=1.41D-06 Max=9.20D-06 NDo=     1
 LinEq1:  Iter=  9 NonCon=     1 RMS=6.82D-07 Max=6.68D-06 NDo=     1
 LinEq1:  Iter= 10 NonCon=     1 RMS=1.75D-07 Max=1.09D-06 NDo=     1
 LinEq1:  Iter= 11 NonCon=     1 RMS=2.42D-08 Max=1.87D-07 NDo=     1
 LinEq1:  Iter= 12 NonCon=     1 RMS=3.30D-09 Max=2.23D-08 NDo=     1
 LinEq1:  Iter= 13 NonCon=     1 RMS=5.30D-10 Max=5.21D-09 NDo=     1
 LinEq1:  Iter= 14 NonCon=     0 RMS=6.95D-11 Max=3.99D-10 NDo=     1
 Linear equations converged to 1.000D-10 1.000D-09 after    14 iterations.
 End of Minotr F.D. properties file   721 does not exist.
 End of Minotr F.D. properties file   722 does not exist.
 End of Minotr F.D. properties file   788 does not exist.

 **********************************************************************

            Population analysis using the MP2 density.

 **********************************************************************

 Orbital symmetries:
       Occupied  (A') (A') (A') (A') (A') (A') (A') (A') (A') (A')
                 (A') (A") (A') (A') (A") (A") (A') (A')
       Virtual   (A") (A") (A') (A') (A') (A') (A') (A') (A') (A")
                 (A') (A') (A') (A') (A") (A') (A') (A") (A') (A")
                 (A') (A") (A') (A') (A') (A') (A') (A') (A') (A')
                 (A')
 The electronic state is 1-A'.
 Alpha  occ. eigenvalues --  -14.89561 -14.86167 -14.83919 -14.80875 -10.67077
 Alpha  occ. eigenvalues --   -1.36192  -1.10988  -1.06212  -0.79275  -0.78165
 Alpha  occ. eigenvalues --   -0.70461  -0.60062  -0.58826  -0.45637  -0.39717
 Alpha  occ. eigenvalues --   -0.37202  -0.36505  -0.34671
 Alpha virt. eigenvalues --    0.05288   0.10206   0.14128   0.18862   0.29172
 Alpha virt. eigenvalues --    0.30813   0.42459   0.45989   0.56699   0.78313
 Alpha virt. eigenvalues --    0.79227   0.91250   0.94191   1.04177   1.13632
 Alpha virt. eigenvalues --    1.16126   1.19797   1.19897   1.23941   1.27564
 Alpha virt. eigenvalues --    1.29809   1.32688   1.36055   1.47934   1.50829
 Alpha virt. eigenvalues --    1.57867   1.78802   2.23346   2.51904   2.80596
 Alpha virt. eigenvalues --    2.87667
          Condensed to atoms (all electrons):
               1          2          3          4          5          6
     1  C    5.030457   0.151922  -0.127245  -0.128904   0.350210   0.358689
     2  N    0.151922   7.263020   0.103320  -0.141506  -0.086649  -0.042994
     3  N   -0.127245   0.103320   6.992423   0.201312  -0.132510   0.001819
     4  N   -0.128904  -0.141506   0.201312   6.919652   0.228772   0.004196
     5  N    0.350210  -0.086649  -0.132510   0.228772   7.024872  -0.029482
     6  H    0.358689  -0.042994   0.001819   0.004196  -0.029482   0.432505
     7  H   -0.013049   0.313981  -0.018731   0.004452   0.003462   0.001157
               7
     1  C   -0.013049
     2  N    0.313981
     3  N   -0.018731
     4  N    0.004452
     5  N    0.003462
     6  H    0.001157
     7  H    0.332631
 Mulliken charges:
               1
     1  C    0.377922
     2  N   -0.561094
     3  N   -0.020388
     4  N   -0.087974
     5  N   -0.358674
     6  H    0.274110
     7  H    0.376098
 Sum of Mulliken charges =   0.00000
 Mulliken charges with hydrogens summed into heavy atoms:
               1
     1  C    0.652031
     2  N   -0.184995
     3  N   -0.020388
     4  N   -0.087974
     5  N   -0.358674
 Electronic spatial extent (au):  <R**2>=            245.0380
 Charge=              0.0000 electrons
 Dipole moment (field-independent basis, Debye):
    X=              2.5587    Y=              4.9667    Z=              0.0000  Tot=              5.5870
 Quadrupole moment (field-independent basis, Debye-Ang):
   XX=            -29.3920   YY=            -26.7998   ZZ=            -28.0832
   XY=              1.7327   XZ=              0.0000   YZ=              0.0000
 Traceless Quadrupole moment (field-independent basis, Debye-Ang):
   XX=             -1.3003   YY=              1.2919   ZZ=              0.0085
   XY=              1.7327   XZ=              0.0000   YZ=              0.0000
 Octapole moment (field-independent basis, Debye-Ang**2):
  XXX=             11.3602  YYY=             22.3454  ZZZ=              0.0000  XYY=             -0.6726
  XXY=              4.5254  XXZ=              0.0000  XZZ=             -1.0257  YZZ=              0.2612
  YYZ=              0.0000  XYZ=              0.0000
 Hexadecapole moment (field-independent basis, Debye-Ang**3):
 XXXX=           -135.1665 YYYY=           -112.1885 ZZZZ=            -22.7113 XXXY=              5.9221
 XXXZ=              0.0000 YYYX=             -0.8212 YYYZ=              0.0000 ZZZX=              0.0000
 ZZZY=              0.0000 XXYY=            -50.7259 XXZZ=            -28.4655 YYZZ=            -26.4999
 XXYZ=              0.0000 YYXZ=              0.0000 ZZXY=             -0.3198
 N-N= 1.698308489506D+02 E-N=-9.384551843224D+02  KE= 2.558708213582D+02
 Symmetry A'   KE= 2.464306381702D+02
 Symmetry A"   KE= 9.440183188081D+00
 Calling FoFJK, ICntrl=  10002127 FMM=F ISym2X=1 I1Cent= 0 IOpClX= 0 NMat=1 NMatS=1 NMatT=0.
 ***** Axes restored to original set *****
 -------------------------------------------------------------------
 Center     Atomic                   Forces (Hartrees/Bohr)
 Number     Number              X              Y              Z
 -------------------------------------------------------------------
      1        6           0.060591177   -0.002789437    0.000000000
      2        7           0.050214041   -0.039244521    0.000000000
      3        7          -0.061656849   -0.086450922    0.000000000
      4        7          -0.084007252    0.065465428    0.000000000
      5        7           0.026842150    0.075365876    0.000000000
      6        1           0.002339526    0.000563269    0.000000000
      7        1           0.005677207   -0.012909693    0.000000000
 -------------------------------------------------------------------
 Cartesian Forces:  Max     0.086450922 RMS     0.041954693
 -----------------------------------------------------------------------------------------------
                       Internal Coordinate Forces (Hartree/Bohr or radian)
  Cent   Atom   N1       Length/X         N2         Alpha/Y        N3         Beta/Z          J
 -----------------------------------------------------------------------------------------------
         X 
         X        1   0.000000(     1)
      1  C        1   0.062753(     2)      2   0.000000(     9)
      2  N        1   0.066725(     3)      2   0.000000(    10)      3  -0.087352(    16)     0
      3  N        1   0.105463(     4)      2   0.000000(    11)      3  -0.038807(    17)     0
      4  N        1   0.097693(     5)      2   0.000000(    12)      3   0.089339(    18)     0
      5  N        1   0.077784(     6)      2   0.000000(    13)      3   0.032760(    19)     0
      6  H        3   0.002393(     7)      4   0.000503(    14)      5   0.000000(    20)     0
      7  H        4   0.014091(     8)      5   0.001108(    15)      6   0.000000(    21)     0
 -----------------------------------------------------------------------------------------------
 Internal  Forces:  Max     0.105463253 RMS     0.050475679

 GradGradGradGradGradGradGradGradGradGradGradGradGradGradGradGradGradGrad
 Berny optimization.
 Search for a local minimum.
 Step number   1 out of a maximum of   22
 All quantities printed in internal units (Hartrees-Bohrs-Radians)
 Second derivative matrix not updated -- first step.
 The second derivative matrix:
                          rn1       rn2       rn3       rn4       rch
           rn1          0.65186
           rn2          0.01318   0.69869
           rn3          0.03472   0.07334   0.58262
           rn4          0.03688   0.02662   0.13967   0.63921
           rch          0.00000   0.00000   0.00000   0.00000   0.37510
           rnh          0.00000   0.00000   0.00000   0.00000   0.00000
           an1          0.02012  -0.75016   0.04258  -0.08486   0.00000
           an2          0.72119  -0.31234  -0.71865   0.05436   0.00000
           an3         -0.02914   1.04797   0.05412  -0.58583   0.00000
           an4          0.05328  -0.03228   0.65851  -0.10009   0.00000
           ach          0.04546   0.00000   0.00000   0.05066   0.00000
           anh         -0.10206   0.05276   0.00000   0.00000   0.00000
                          rnh       an1       an2       an3       an4
           rnh          0.48741
           an1          0.00000   4.53257
           an2          0.00000  -2.68051   6.02300
           an3          0.00000  -0.03573  -3.19618   4.47465
           an4          0.00000  -0.12258  -0.06592  -1.16042   2.58479
           ach          0.00000  -0.10460   0.00000   0.00000   0.07318
           anh          0.00000   0.03519  -0.09059   0.00000   0.00000
                          ach       anh
           ach          0.32000
           anh          0.00000   0.32000
 ITU=  0
     Eigenvalues ---    0.00000   0.13346   0.26445   0.33044   0.37510
     Eigenvalues ---    0.40158   0.48741   0.75609   1.20990   2.99509
     Eigenvalues ---    5.09563   9.64077
 RFO step:  Lambda=-3.88598442D-02 EMin=-6.95624114D-16
 Linear search not attempted -- first point.
 Variable       Old X    -DE/DX   Delta X   Delta X   Delta X     New X
                                 (Linear)    (Quad)   (Total)
   rn1        2.34817   0.06673   0.00000   0.05567   0.05567   2.40384
   rn2        2.51900   0.10546   0.00000   0.13514   0.13514   2.65414
   rn3        2.10629   0.09769   0.00000   0.17139   0.17139   2.27768
   rn4        1.75064   0.07778   0.00000   0.07801   0.07801   1.82865
   rch        2.01785   0.00239   0.00000   0.00578   0.00578   2.02363
   rnh        1.87858   0.01409   0.00000   0.02677   0.02677   1.90535
   an1        1.25389  -0.08735   0.00000   0.01784   0.01784   1.27173
   an2        2.33355  -0.03881   0.00000   0.02699   0.02699   2.36054
   an3        3.39396   0.08934   0.00000   0.01083   0.01083   3.40479
   an4        4.81845   0.03276   0.00000  -0.02052  -0.02052   4.79793
   ach        2.18209   0.00050   0.00000  -0.00728  -0.00728   2.17481
   anh        2.10770   0.00111   0.00000   0.00412   0.00412   2.11182
         Item               Value     Threshold  Converged?
 Maximum Force            0.105463     0.000450     NO 
 RMS     Force            0.064269     0.000300     NO 
 Maximum Displacement     0.171393     0.001800     NO 
 RMS     Displacement     0.070254     0.001200     NO 
 Predicted change in Energy=-2.058071D-02
 GradGradGradGradGradGradGradGradGradGradGradGradGradGradGradGradGradGrad

 ---------------------------------------------------------------------------------------------------
                            Z-MATRIX (ANGSTROMS AND DEGREES)
   CD    Cent   Atom    N1       Length/X        N2       Alpha/Y        N3        Beta/Z          J
 ---------------------------------------------------------------------------------------------------
      1         X 
      2         X        1   1.000000(     1)
      3      1  C        1   1.000000(     2)      2   90.000(     9)
      4      2  N        1   1.272059(     3)      2   90.000(    10)      3   72.865(    16)      0
      5      3  N        1   1.404511(     4)      2   90.000(    11)      3  135.249(    17)      0
      6      4  N        1   1.205297(     5)      2   90.000(    12)      3  195.080(    18)      0
      7      5  N        1   0.967682(     6)      2   90.000(    13)      3  274.901(    19)      0
      8      6  H        3   1.070860(     7)      4  124.608(    14)      5  180.000(    20)      0
      9      7  H        4   1.008268(     8)      5  120.998(    15)      6  180.000(    21)      0
 ---------------------------------------------------------------------------------------------------
                         Z-Matrix orientation:                         
 ---------------------------------------------------------------------
 Center     Atomic      Atomic             Coordinates (Angstroms)
 Number     Number       Type             X           Y           Z
 ---------------------------------------------------------------------
      1         -1           0        0.000000    0.000000    0.000000
      2         -1           0        0.000000    0.000000    1.000000
      3          6           0        1.000000    0.000000    0.000000
      4          7           0        0.374787   -1.215594    0.000000
      5          7           0       -0.997450   -0.988809    0.000000
      6          7           0       -1.163791    0.313578    0.000000
      7          7           0        0.082674    0.964144    0.000000
      8          1           0        2.061966    0.137730    0.000000
      9          1           0        0.746188   -2.152966    0.000000
 ---------------------------------------------------------------------
                    Distance matrix (angstroms):
                    1          2          3          4          5
     1  X    0.000000
     2  X    1.000000   0.000000
     3  C    1.000000   1.414214   0.000000
     4  N    1.272059   1.618065   1.366953   0.000000
     5  N    1.404511   1.724138   2.228800   1.390851   0.000000
     6  N    1.205297   1.566123   2.186395   2.169237   1.312967
     7  N    0.967682   1.391549   1.330812   2.199225   2.231747
     8  H    2.066560   2.295794   1.070860   2.162882   3.260232
     9  H    2.278609   2.488385   2.167875   1.008268   2.096553
                    6          7          8          9
     6  N    0.000000
     7  N    1.406027   0.000000
     8  H    3.230547   2.144891   0.000000
     9  H    3.119593   3.186947   2.641696   0.000000
 Stoichiometry    CH2N4
 Framework group  CS[SG(CH2N4)]
 Deg. of freedom    11
 Full point group                 CS      NOp   2
 Largest Abelian subgroup         CS      NOp   2
 Largest concise Abelian subgroup C1      NOp   1
                         Standard orientation:                         
 ---------------------------------------------------------------------
 Center     Atomic      Atomic             Coordinates (Angstroms)
 Number     Number       Type             X           Y           Z
 ---------------------------------------------------------------------
      1          6           0        1.083649    0.249444    0.000000
      2          7           0        0.000000    1.082670    0.000000
      3          7           0       -1.144732    0.292698    0.000000
      4          7           0       -0.740166   -0.956385    0.000000
      5          7           0        0.664692   -1.013702    0.000000
      6          1           0        2.103043    0.577431    0.000000
      7          1           0       -0.063500    2.088937    0.000000
 ---------------------------------------------------------------------
 Rotational constants (GHZ):     10.0696663      9.9668613      5.0090001
 Standard basis: 3-21G* (6D, 7F)
 There are    39 symmetry adapted cartesian basis functions of A'  symmetry.
 There are    10 symmetry adapted cartesian basis functions of A"  symmetry.
 There are    39 symmetry adapted basis functions of A'  symmetry.
 There are    10 symmetry adapted basis functions of A"  symmetry.
    49 basis functions,    81 primitive gaussians,    49 cartesian basis functions
    18 alpha electrons       18 beta electrons
       nuclear repulsion energy       163.4358667840 Hartrees.
 NAtoms=    7 NActive=    7 NUniq=    7 SFac= 1.00D+00 NAtFMM=   60 NAOKFM=F Big=F
 Integral buffers will be    131072 words long.
 Regular integral format.
 Two-electron integral symmetry is turned on.
 One-electron integrals computed using PRISM.
 NBasis=    49 RedAO= T EigKep=  1.99D-02  NBF=    39    10
 NBsUse=    49 1.00D-06 EigRej= -1.00D+00 NBFU=    39    10
 Initial guess from the checkpoint file:  "/tmp/rdj3/g09-23219/Gau-15990.chk"
 B after Tr=     0.000000    0.000000    0.000000
         Rot=    0.999986    0.000000    0.000000   -0.005355 Ang=  -0.61 deg.
 Initial guess orbital symmetries:
       Occupied  (A') (A') (A') (A') (A') (A') (A') (A') (A') (A')
                 (A') (A") (A') (A') (A") (A") (A') (A')
       Virtual   (A') (A') (A') (A') (A') (A') (A') (A') (A') (A')
                 (A') (A') (A') (A') (A') (A') (A') (A') (A') (A')
                 (A') (A') (A') (A') (A") (A") (A") (A") (A") (A")
                 (A")
 ExpMin= 1.83D-01 ExpMax= 2.43D+02 ExpMxC= 2.43D+02 IAcc=1 IRadAn=         1 AccDes= 0.00D+00
 Harris functional with IExCor=  419 and IRadAn=       1 diagonalized for initial guess.
 HarFok:  IExCor=  419 AccDes= 0.00D+00 IRadAn=         1 IDoV= 1 UseB2=F ITyADJ=14
 ICtDFT=  3500011 ScaDFX=  1.000000  1.000000  1.000000  1.000000
 FoFCou: FMM=F IPFlag=           0 FMFlag=      100000 FMFlg1=           0
         NFxFlg=           0 DoJE=T BraDBF=F KetDBF=T FulRan=T
         wScrn=  0.000000 ICntrl=     500 IOpCl=  0 I1Cent=   200000004 NGrid=           0
         NMat0=    1 NMatS0=      1 NMatT0=    0 NMatD0=    1 NMtDS0=    0 NMtDT0=    0
 Petite list used in FoFCou.
 Keep R1 ints in memory in symmetry-blocked form, NReq=1649580.
 Requested convergence on RMS density matrix=1.00D-08 within 128 cycles.
 Requested convergence on MAX density matrix=1.00D-06.
 Requested convergence on             energy=1.00D-06.
 No special actions if energy rises.
 Integral accuracy reduced to 1.0D-05 until final iterations.
 Initial convergence to 1.0D-05 achieved.  Increase integral accuracy.
 SCF Done:  E(RB2PLYP) =  -256.272830764     A.U. after   15 cycles
            NFock= 15  Conv=0.45D-08     -V/T= 2.0064
 DoSCS=T DFT=T ScalE2(SS,OS)=  0.270000  0.270000
 ExpMin= 1.83D-01 ExpMax= 2.43D+02 ExpMxC= 2.43D+02 IAcc=3 IRadAn=         5 AccDes= 0.00D+00
 HarFok:  IExCor=  205 AccDes= 0.00D+00 IRadAn=         5 IDoV=-2 UseB2=F ITyADJ=14
 ICtDFT= 12500011 ScaDFX=  1.000000  1.000000  1.000000  1.000000
 Range of M.O.s used for correlation:     6    49
 NBasis=    49 NAE=    18 NBE=    18 NFC=     5 NFV=     0
 NROrb=     44 NOA=    13 NOB=    13 NVA=    31 NVB=    31
 DoSCS=T DFT=T ScalE2(SS,OS)=  0.270000  0.270000
 Fully direct method using O(ONN) memory.
 JobTyp=1 Pass  1:  I=   6 to  18 NPSUse=  8 ParTrn=T ParDer=T DoDerP=T.
 Spin components of T(2) and E(2):
     alpha-alpha T2 =       0.4864945597D-01 E2=     -0.2566684321D-01
     alpha-beta  T2 =       0.2637658229D+00 E2=     -0.1388741644D+00
     beta-beta   T2 =       0.4864945597D-01 E2=     -0.2566684321D-01
 E2(B2PLYP) =    -0.1902078509D+00 E(B2PLYP) =    -0.25646303861450D+03
          IDoAtm=1111111
          Differentiating once with respect to electric field.
                with respect to dipole field.
          Differentiating once with respect to nuclear coordinates.
 Keep R1 ints in memory in symmetry-blocked form, NReq=1624022.
          There are     1 degrees of freedom in the 1st order CPHF.  IDoFFX=0 NUNeed=     1.
 LinEq1:  Iter=  0 NonCon=     1 RMS=4.78D-03 Max=4.20D-02 NDo=     1
 AX will form     1 AO Fock derivatives at one time.
 LinEq1:  Iter=  1 NonCon=     1 RMS=1.26D-03 Max=6.77D-03 NDo=     1
 LinEq1:  Iter=  2 NonCon=     1 RMS=6.32D-04 Max=1.07D-02 NDo=     1
 LinEq1:  Iter=  3 NonCon=     1 RMS=3.32D-04 Max=2.47D-03 NDo=     1
 LinEq1:  Iter=  4 NonCon=     1 RMS=1.63D-04 Max=1.64D-03 NDo=     1
 LinEq1:  Iter=  5 NonCon=     1 RMS=9.84D-05 Max=1.33D-03 NDo=     1
 LinEq1:  Iter=  6 NonCon=     1 RMS=4.74D-05 Max=5.51D-04 NDo=     1
 LinEq1:  Iter=  7 NonCon=     1 RMS=1.71D-05 Max=1.02D-04 NDo=     1
 LinEq1:  Iter=  8 NonCon=     1 RMS=2.35D-06 Max=1.74D-05 NDo=     1
 LinEq1:  Iter=  9 NonCon=     1 RMS=8.96D-07 Max=7.92D-06 NDo=     1
 LinEq1:  Iter= 10 NonCon=     1 RMS=3.48D-07 Max=1.93D-06 NDo=     1
 LinEq1:  Iter= 11 NonCon=     1 RMS=5.03D-08 Max=3.52D-07 NDo=     1
 LinEq1:  Iter= 12 NonCon=     1 RMS=6.58D-09 Max=4.21D-08 NDo=     1
 LinEq1:  Iter= 13 NonCon=     1 RMS=9.04D-10 Max=5.11D-09 NDo=     1
 LinEq1:  Iter= 14 NonCon=     1 RMS=1.14D-10 Max=7.41D-10 NDo=     1
 LinEq1:  Iter= 15 NonCon=     0 RMS=1.55D-11 Max=1.38D-10 NDo=     1
 Linear equations converged to 1.000D-10 1.000D-09 after    15 iterations.
 End of Minotr F.D. properties file   721 does not exist.
 End of Minotr F.D. properties file   722 does not exist.
 End of Minotr F.D. properties file   788 does not exist.
 Calling FoFJK, ICntrl=  10002127 FMM=F ISym2X=1 I1Cent= 0 IOpClX= 0 NMat=1 NMatS=1 NMatT=0.
 ***** Axes restored to original set *****
 -------------------------------------------------------------------
 Center     Atomic                   Forces (Hartrees/Bohr)
 Number     Number              X              Y              Z
 -------------------------------------------------------------------
      1        6           0.000706520   -0.003348657    0.000000000
      2        7           0.017794363    0.002978595    0.000000000
      3        7          -0.021442904   -0.029961806    0.000000000
      4        7          -0.018756578    0.012309501    0.000000000
      5        7           0.021223586    0.019914399    0.000000000
      6        1           0.000496669    0.000540161    0.000000000
      7        1          -0.000021657   -0.002432193    0.000000000
 -------------------------------------------------------------------
 Cartesian Forces:  Max     0.029961806 RMS     0.012054526
 -----------------------------------------------------------------------------------------------
                       Internal Coordinate Forces (Hartree/Bohr or radian)
  Cent   Atom   N1       Length/X         N2         Alpha/Y        N3         Beta/Z          J
 -----------------------------------------------------------------------------------------------
         X 
         X        1   0.000000(     1)
      1  C        1   0.000875(     2)      2   0.000000(     9)
      2  N        1   0.005567(     3)      2   0.000000(    10)      3  -0.041136(    16)     0
      3  N        1   0.035784(     4)      2   0.000000(    11)      3  -0.015375(    17)     0
      4  N        1   0.021313(     5)      2   0.000000(    12)      3   0.015957(    18)     0
      5  N        1   0.021655(     6)      2   0.000000(    13)      3   0.035557(    19)     0
      6  H        3   0.000562(     7)      4   0.000955(    14)      5   0.000000(    20)     0
      7  H        4   0.002253(     8)      5  -0.001745(    15)      6   0.000000(    21)     0
 -----------------------------------------------------------------------------------------------
 Internal  Forces:  Max     0.041135904 RMS     0.016463931

 GradGradGradGradGradGradGradGradGradGradGradGradGradGradGradGradGradGrad
 Berny optimization.
 Search for a local minimum.
 Step number   2 out of a maximum of   22
 All quantities printed in internal units (Hartrees-Bohrs-Radians)
 Update second derivatives using D2CorN and points    1    2
 DE= -2.29D-02 DEPred=-2.06D-02 R= 1.11D+00
 TightC=F SS=  1.41D+00  RLast= 2.43D-01 DXNew= 5.0454D-01 7.3010D-01
 Trust test= 1.11D+00 RLast= 2.43D-01 DXMaxT set to 5.05D-01
 The second derivative matrix:
                          rn1       rn2       rn3       rn4       rch
           rn1          0.64866
           rn2         -0.00505   0.62902
           rn3          0.02291   0.01245   0.54022
           rn4          0.02589  -0.01474   0.10308   0.61468
           rch         -0.00032  -0.00188  -0.00120  -0.00113   0.37506
           rnh         -0.00134  -0.00828  -0.00507  -0.00501  -0.00014
           an1          0.03926  -0.70704   0.10090  -0.06011   0.00199
           an2          0.72813  -0.30056  -0.69822   0.06093   0.00072
           an3         -0.03675   1.02745   0.03030  -0.59776  -0.00079
           an4          0.03679  -0.06846   0.60845  -0.12081  -0.00172
           ach          0.04509   0.00046  -0.00089   0.05098  -0.00004
           anh         -0.10128   0.05387   0.00225   0.00061   0.00008
                          rnh       an1       an2       an3       an4
           rnh          0.48686
           an1          0.00927   4.54517
           an2          0.00344  -2.66850   6.03049
           an3         -0.00362  -0.03425  -3.19822   4.47181
           an4         -0.00801  -0.13530  -0.07705  -1.16105   2.59739
           ach         -0.00021  -0.10735  -0.00129   0.00084   0.07562
           anh          0.00039   0.03693  -0.08959  -0.00037  -0.00159
                          ach       anh
           ach          0.32015
           anh         -0.00016   0.32013
 ITU=  1  0
     Eigenvalues ---    0.00000   0.13540   0.27003   0.32979   0.37500
     Eigenvalues ---    0.38723   0.48674   0.69306   1.21028   2.96825
     Eigenvalues ---    5.08330   9.64058
 RFO step:  Lambda=-1.91964946D-03 EMin=-1.60775712D-06
 Quartic linear search produced a step of  0.38831.
 Variable       Old X    -DE/DX   Delta X   Delta X   Delta X     New X
                                 (Linear)    (Quad)   (Total)
   rn1        2.40384   0.00557   0.02162   0.05379   0.07541   2.47925
   rn2        2.65414   0.03578   0.05247   0.10618   0.15865   2.81279
   rn3        2.27768   0.02131   0.06655  -0.04365   0.02290   2.30058
   rn4        1.82865   0.02165   0.03029  -0.07734  -0.04705   1.78161
   rch        2.02363   0.00056   0.00225   0.00055   0.00279   2.02642
   rnh        1.90535   0.00225   0.01040  -0.00144   0.00896   1.91431
   an1        1.27173  -0.04114   0.00693  -0.03109  -0.02417   1.24756
   an2        2.36054  -0.01537   0.01048  -0.06993  -0.05945   2.30109
   an3        3.40479   0.01596   0.00420  -0.09283  -0.08863   3.31616
   an4        4.79793   0.03556  -0.00797  -0.02285  -0.03082   4.76711
   ach        2.17481   0.00095  -0.00283   0.00182  -0.00101   2.17380
   anh        2.11182  -0.00175   0.00160  -0.02475  -0.02315   2.08867
         Item               Value     Threshold  Converged?
 Maximum Force            0.041136     0.000450     NO 
 RMS     Force            0.021778     0.000300     NO 
 Maximum Displacement     0.158652     0.001800     NO 
 RMS     Displacement     0.062679     0.001200     NO 
 Predicted change in Energy=-1.838483D-03
 GradGradGradGradGradGradGradGradGradGradGradGradGradGradGradGradGradGrad

 ---------------------------------------------------------------------------------------------------
                            Z-MATRIX (ANGSTROMS AND DEGREES)
   CD    Cent   Atom    N1       Length/X        N2       Alpha/Y        N3        Beta/Z          J
 ---------------------------------------------------------------------------------------------------
      1         X 
      2         X        1   1.000000(     1)
      3      1  C        1   1.000000(     2)      2   90.000(     9)
      4      2  N        1   1.311963(     3)      2   90.000(    10)      3   71.480(    16)      0
      5      3  N        1   1.488466(     4)      2   90.000(    11)      3  131.843(    17)      0
      6      4  N        1   1.217416(     5)      2   90.000(    12)      3  190.002(    18)      0
      7      5  N        1   0.942786(     6)      2   90.000(    13)      3  273.135(    19)      0
      8      6  H        3   1.072336(     7)      4  124.550(    14)      5  180.000(    20)      0
      9      7  H        4   1.013010(     8)      5  119.672(    15)      6  180.000(    21)      0
 ---------------------------------------------------------------------------------------------------
                         Z-Matrix orientation:                         
 ---------------------------------------------------------------------
 Center     Atomic      Atomic             Coordinates (Angstroms)
 Number     Number       Type             X           Y           Z
 ---------------------------------------------------------------------
      1         -1           0        0.000000    0.000000    0.000000
      2         -1           0        0.000000    0.000000    1.000000
      3          6           0        1.000000    0.000000    0.000000
      4          7           0        0.416727   -1.244020    0.000000
      5          7           0       -0.992943   -1.108871    0.000000
      6          7           0       -1.198914    0.211440    0.000000
      7          7           0        0.051563    0.941375    0.000000
      8          1           0        2.057846    0.175690    0.000000
      9          1           0        0.831917   -2.168036    0.000000
 ---------------------------------------------------------------------
                    Distance matrix (angstroms):
                    1          2          3          4          5
     1  X    0.000000
     2  X    1.000000   0.000000
     3  C    1.000000   1.414214   0.000000
     4  N    1.311963   1.649620   1.373969   0.000000
     5  N    1.488466   1.793190   2.280661   1.416134   0.000000
     6  N    1.217416   1.575468   2.209056   2.174548   1.336281
     7  N    0.942786   1.374353   1.336308   2.215693   2.300979
     8  H    2.065332   2.294689   1.072336   2.169988   3.310198
     9  H    2.322169   2.528333   2.174542   1.013010   2.109963
                    6          7          8          9
     6  N    0.000000
     7  N    1.447929   0.000000
     8  H    3.256956   2.147427   0.000000
     9  H    3.128287   3.205837   2.644987   0.000000
 Stoichiometry    CH2N4
 Framework group  CS[SG(CH2N4)]
 Deg. of freedom    11
 Full point group                 CS      NOp   2
 Largest Abelian subgroup         CS      NOp   2
 Largest concise Abelian subgroup C1      NOp   1
                         Standard orientation:                         
 ---------------------------------------------------------------------
 Center     Atomic      Atomic             Coordinates (Angstroms)
 Number     Number       Type             X           Y           Z
 ---------------------------------------------------------------------
      1          6           0        1.096986    0.253265    0.000000
      2          7           0        0.000000    1.080557    0.000000
      3          7           0       -1.183147    0.302355    0.000000
      4          7           0       -0.748287   -0.961188    0.000000
      5          7           0        0.698356   -1.022201    0.000000
      6          1           0        2.114333    0.592250    0.000000
      7          1           0       -0.064706    2.091499    0.000000
 ---------------------------------------------------------------------
 Rotational constants (GHZ):     10.0046210      9.4856977      4.8691256
 Standard basis: 3-21G* (6D, 7F)
 There are    39 symmetry adapted cartesian basis functions of A'  symmetry.
 There are    10 symmetry adapted cartesian basis functions of A"  symmetry.
 There are    39 symmetry adapted basis functions of A'  symmetry.
 There are    10 symmetry adapted basis functions of A"  symmetry.
    49 basis functions,    81 primitive gaussians,    49 cartesian basis functions
    18 alpha electrons       18 beta electrons
       nuclear repulsion energy       161.1941374733 Hartrees.
 NAtoms=    7 NActive=    7 NUniq=    7 SFac= 1.00D+00 NAtFMM=   60 NAOKFM=F Big=F
 Integral buffers will be    131072 words long.
 Regular integral format.
 Two-electron integral symmetry is turned on.
 One-electron integrals computed using PRISM.
 NBasis=    49 RedAO= T EigKep=  2.08D-02  NBF=    39    10
 NBsUse=    49 1.00D-06 EigRej= -1.00D+00 NBFU=    39    10
 Initial guess from the checkpoint file:  "/tmp/rdj3/g09-23219/Gau-15990.chk"
 B after Tr=     0.000000    0.000000    0.000000
         Rot=    0.999998    0.000000    0.000000   -0.001820 Ang=  -0.21 deg.
 Initial guess orbital symmetries:
       Occupied  (A') (A') (A') (A') (A') (A') (A') (A') (A') (A')
                 (A') (A') (A") (A') (A") (A') (A") (A')
       Virtual   (A') (A') (A') (A') (A') (A') (A') (A') (A') (A')
                 (A') (A') (A') (A') (A') (A') (A') (A') (A') (A')
                 (A') (A') (A') (A') (A") (A") (A") (A") (A") (A")
                 (A")
 ExpMin= 1.83D-01 ExpMax= 2.43D+02 ExpMxC= 2.43D+02 IAcc=1 IRadAn=         1 AccDes= 0.00D+00
 Harris functional with IExCor=  419 and IRadAn=       1 diagonalized for initial guess.
 HarFok:  IExCor=  419 AccDes= 0.00D+00 IRadAn=         1 IDoV= 1 UseB2=F ITyADJ=14
 ICtDFT=  3500011 ScaDFX=  1.000000  1.000000  1.000000  1.000000
 FoFCou: FMM=F IPFlag=           0 FMFlag=      100000 FMFlg1=           0
         NFxFlg=           0 DoJE=T BraDBF=F KetDBF=T FulRan=T
         wScrn=  0.000000 ICntrl=     500 IOpCl=  0 I1Cent=   200000004 NGrid=           0
         NMat0=    1 NMatS0=      1 NMatT0=    0 NMatD0=    1 NMtDS0=    0 NMtDT0=    0
 Petite list used in FoFCou.
 Keep R1 ints in memory in symmetry-blocked form, NReq=1649580.
 Requested convergence on RMS density matrix=1.00D-08 within 128 cycles.
 Requested convergence on MAX density matrix=1.00D-06.
 Requested convergence on             energy=1.00D-06.
 No special actions if energy rises.
 Integral accuracy reduced to 1.0D-05 until final iterations.
 Initial convergence to 1.0D-05 achieved.  Increase integral accuracy.
 SCF Done:  E(RB2PLYP) =  -256.270541496     A.U. after   14 cycles
            NFock= 14  Conv=0.84D-08     -V/T= 2.0074
 DoSCS=T DFT=T ScalE2(SS,OS)=  0.270000  0.270000
 ExpMin= 1.83D-01 ExpMax= 2.43D+02 ExpMxC= 2.43D+02 IAcc=3 IRadAn=         5 AccDes= 0.00D+00
 HarFok:  IExCor=  205 AccDes= 0.00D+00 IRadAn=         5 IDoV=-2 UseB2=F ITyADJ=14
 ICtDFT= 12500011 ScaDFX=  1.000000  1.000000  1.000000  1.000000
 Range of M.O.s used for correlation:     6    49
 NBasis=    49 NAE=    18 NBE=    18 NFC=     5 NFV=     0
 NROrb=     44 NOA=    13 NOB=    13 NVA=    31 NVB=    31
 DoSCS=T DFT=T ScalE2(SS,OS)=  0.270000  0.270000
 Fully direct method using O(ONN) memory.
 JobTyp=1 Pass  1:  I=   6 to  18 NPSUse=  8 ParTrn=T ParDer=T DoDerP=T.
 Spin components of T(2) and E(2):
     alpha-alpha T2 =       0.5141429712D-01 E2=     -0.2628653250D-01
     alpha-beta  T2 =       0.2785195252D+00 E2=     -0.1420855980D+00
     beta-beta   T2 =       0.5141429712D-01 E2=     -0.2628653250D-01
 E2(B2PLYP) =    -0.1946586630D+00 E(B2PLYP) =    -0.25646520015870D+03
          IDoAtm=1111111
          Differentiating once with respect to electric field.
                with respect to dipole field.
          Differentiating once with respect to nuclear coordinates.
 Keep R1 ints in memory in symmetry-blocked form, NReq=1624022.
          There are     1 degrees of freedom in the 1st order CPHF.  IDoFFX=0 NUNeed=     1.
 LinEq1:  Iter=  0 NonCon=     1 RMS=5.07D-03 Max=4.33D-02 NDo=     1
 AX will form     1 AO Fock derivatives at one time.
 LinEq1:  Iter=  1 NonCon=     1 RMS=1.37D-03 Max=7.53D-03 NDo=     1
 LinEq1:  Iter=  2 NonCon=     1 RMS=7.84D-04 Max=1.36D-02 NDo=     1
 LinEq1:  Iter=  3 NonCon=     1 RMS=4.35D-04 Max=3.96D-03 NDo=     1
 LinEq1:  Iter=  4 NonCon=     1 RMS=2.34D-04 Max=2.13D-03 NDo=     1
 LinEq1:  Iter=  5 NonCon=     1 RMS=1.28D-04 Max=1.47D-03 NDo=     1
 LinEq1:  Iter=  6 NonCon=     1 RMS=7.40D-05 Max=8.43D-04 NDo=     1
 LinEq1:  Iter=  7 NonCon=     1 RMS=2.11D-05 Max=1.17D-04 NDo=     1
 LinEq1:  Iter=  8 NonCon=     1 RMS=3.12D-06 Max=2.45D-05 NDo=     1
 LinEq1:  Iter=  9 NonCon=     1 RMS=2.37D-06 Max=2.66D-05 NDo=     1
 LinEq1:  Iter= 10 NonCon=     1 RMS=5.99D-07 Max=4.10D-06 NDo=     1
 LinEq1:  Iter= 11 NonCon=     1 RMS=1.11D-07 Max=7.93D-07 NDo=     1
 LinEq1:  Iter= 12 NonCon=     1 RMS=1.47D-08 Max=9.62D-08 NDo=     1
 LinEq1:  Iter= 13 NonCon=     1 RMS=2.25D-09 Max=2.31D-08 NDo=     1
 LinEq1:  Iter= 14 NonCon=     1 RMS=3.16D-10 Max=1.99D-09 NDo=     1
 LinEq1:  Iter= 15 NonCon=     0 RMS=4.40D-11 Max=3.54D-10 NDo=     1
 Linear equations converged to 1.000D-10 1.000D-09 after    15 iterations.
 End of Minotr F.D. properties file   721 does not exist.
 End of Minotr F.D. properties file   722 does not exist.
 End of Minotr F.D. properties file   788 does not exist.
 Calling FoFJK, ICntrl=  10002127 FMM=F ISym2X=1 I1Cent= 0 IOpClX= 0 NMat=1 NMatS=1 NMatT=0.
 ***** Axes restored to original set *****
 -------------------------------------------------------------------
 Center     Atomic                   Forces (Hartrees/Bohr)
 Number     Number              X              Y              Z
 -------------------------------------------------------------------
      1        6          -0.013405711   -0.006954044    0.000000000
      2        7           0.014367261   -0.004489405    0.000000000
      3        7           0.005446343    0.003445366    0.000000000
      4        7          -0.012048318    0.008015520    0.000000000
      5        7           0.005312717   -0.000422610    0.000000000
      6        1          -0.000012759   -0.000550416    0.000000000
      7        1           0.000340468    0.000955590    0.000000000
 -------------------------------------------------------------------
 Cartesian Forces:  Max     0.014367261 RMS     0.005917385
 -----------------------------------------------------------------------------------------------
                       Internal Coordinate Forces (Hartree/Bohr or radian)
  Cent   Atom   N1       Length/X         N2         Alpha/Y        N3         Beta/Z          J
 -----------------------------------------------------------------------------------------------
         X 
         X        1   0.000000(     1)
      1  C        1  -0.013036(     2)      2   0.000000(     9)
      2  N        1   0.007272(     3)      2   0.000000(    10)      3  -0.031542(    16)     0
      3  N        1  -0.005795(     4)      2   0.000000(    11)      3  -0.005786(    17)     0
      4  N        1   0.013257(     5)      2   0.000000(    12)      3   0.013346(    18)     0
      5  N        1  -0.000131(     6)      2   0.000000(    13)      3   0.009492(    19)     0
      6  H        3  -0.000103(     7)      4  -0.001096(    14)      5   0.000000(    20)     0
      7  H        4  -0.000732(     8)      5   0.001344(    15)      6   0.000000(    21)     0
 -----------------------------------------------------------------------------------------------
 Internal  Forces:  Max     0.031541933 RMS     0.009082508

 GradGradGradGradGradGradGradGradGradGradGradGradGradGradGradGradGradGrad
 Berny optimization.
 Search for a local minimum.
 Step number   3 out of a maximum of   22
 All quantities printed in internal units (Hartrees-Bohrs-Radians)
 Update second derivatives using D2CorN and points    1    2    3
 DE= -2.16D-03 DEPred=-1.84D-03 R= 1.18D+00
 TightC=F SS=  1.41D+00  RLast= 2.17D-01 DXNew= 8.4853D-01 6.5137D-01
 Trust test= 1.18D+00 RLast= 2.17D-01 DXMaxT set to 6.51D-01
 The second derivative matrix:
                          rn1       rn2       rn3       rn4       rch
           rn1          0.63106
           rn2         -0.02831   0.60967
           rn3         -0.00398  -0.03819   0.50926
           rn4          0.02146  -0.03158   0.10138   0.61558
           rch         -0.00079  -0.00227  -0.00217  -0.00148   0.37506
           rnh         -0.00276  -0.00920  -0.00832  -0.00639  -0.00013
           an1          0.08721  -0.60654   0.14987  -0.06546   0.00445
           an2          0.74392  -0.27627  -0.67436   0.06386   0.00138
           an3         -0.04797   0.98706   0.03147  -0.58875  -0.00174
           an4          0.01871  -0.11434   0.59225  -0.11750  -0.00292
           ach          0.04619   0.00247   0.00004   0.05081  -0.00001
           anh         -0.10010   0.05236   0.00691   0.00265   0.00006
                          rnh       an1       an2       an3       an4
           rnh          0.48698
           an1          0.01877   4.52982
           an2          0.00591  -2.69209   6.02187
           an3         -0.00753  -0.06974  -3.19644   4.50597
           an4         -0.01295  -0.15085  -0.07240  -1.13658   2.61454
           ach         -0.00012  -0.10952  -0.00245   0.00067   0.07633
           anh          0.00028   0.02732  -0.09086   0.00515   0.00300
                          ach       anh
           ach          0.32013
           anh         -0.00040   0.32074
 ITU=  1  1  0
     Eigenvalues ---   -0.00089   0.14914   0.27950   0.32422   0.37502
     Eigenvalues ---    0.40138   0.48631   0.65615   1.21030   2.94545
     Eigenvalues ---    5.07350   9.64059
 RFO step:  Lambda=-3.44141063D-03 EMin=-8.86529053D-04
 Quartic linear search produced a step of -0.09603.
 Maximum step size (   0.651) exceeded in Quadratic search.
    -- Step size scaled by   0.651
 Variable       Old X    -DE/DX   Delta X   Delta X   Delta X     New X
                                 (Linear)    (Quad)   (Total)
   rn1        2.47925   0.00727  -0.00724   0.34129   0.33405   2.81330
   rn2        2.81279  -0.00580  -0.01524   0.16119   0.14595   2.95875
   rn3        2.30058   0.01326  -0.00220  -0.02930  -0.03150   2.26908
   rn4        1.78161  -0.00013   0.00452  -0.28668  -0.28216   1.49944
   rch        2.02642  -0.00010  -0.00027   0.00071   0.00044   2.02686
   rnh        1.91431  -0.00073  -0.00086   0.00114   0.00028   1.91459
   an1        1.24756  -0.03154   0.00232  -0.15807  -0.15575   1.09181
   an2        2.30109  -0.00579   0.00571  -0.26141  -0.25570   2.04539
   an3        3.31616   0.01335   0.00851  -0.28999  -0.28148   3.03468
   an4        4.76711   0.00949   0.00296  -0.14009  -0.13713   4.62998
   ach        2.17380  -0.00110   0.00010  -0.02855  -0.02845   2.14536
   anh        2.08867   0.00134   0.00222   0.03040   0.03263   2.12130
         Item               Value     Threshold  Converged?
 Maximum Force            0.031542     0.000450     NO 
 RMS     Force            0.011410     0.000300     NO 
 Maximum Displacement     0.334046     0.001800     NO 
 RMS     Displacement     0.183269     0.001200     NO 
 Predicted change in Energy=-2.486741D-03
 GradGradGradGradGradGradGradGradGradGradGradGradGradGradGradGradGradGrad

 ---------------------------------------------------------------------------------------------------
                            Z-MATRIX (ANGSTROMS AND DEGREES)
   CD    Cent   Atom    N1       Length/X        N2       Alpha/Y        N3        Beta/Z          J
 ---------------------------------------------------------------------------------------------------
      1         X 
      2         X        1   1.000000(     1)
      3      1  C        1   1.000000(     2)      2   90.000(     9)
      4      2  N        1   1.488732(     3)      2   90.000(    10)      3   62.556(    16)      0
      5      3  N        1   1.565702(     4)      2   90.000(    11)      3  117.192(    17)      0
      6      4  N        1   1.200747(     5)      2   90.000(    12)      3  173.874(    18)      0
      7      5  N        1   0.793471(     6)      2   90.000(    13)      3  265.278(    19)      0
      8      6  H        3   1.072570(     7)      4  122.920(    14)      5  180.000(    20)      0
      9      7  H        4   1.013158(     8)      5  121.542(    15)      6  180.000(    21)      0
 ---------------------------------------------------------------------------------------------------
                         Z-Matrix orientation:                         
 ---------------------------------------------------------------------
 Center     Atomic      Atomic             Coordinates (Angstroms)
 Number     Number       Type             X           Y           Z
 ---------------------------------------------------------------------
      1         -1           0        0.000000    0.000000    0.000000
      2         -1           0        0.000000    0.000000    1.000000
      3          6           0        1.000000    0.000000    0.000000
      4          7           0        0.686126   -1.321195    0.000000
      5          7           0       -0.715489   -1.392659    0.000000
      6          7           0       -1.193891   -0.128134    0.000000
      7          7           0       -0.065314    0.790778    0.000000
      8          1           0        2.010699    0.359018    0.000000
      9          1           0        1.259408   -2.156561    0.000000
 ---------------------------------------------------------------------
                    Distance matrix (angstroms):
                    1          2          3          4          5
     1  X    0.000000
     2  X    1.000000   0.000000
     3  C    1.000000   1.414214   0.000000
     4  N    1.488732   1.793411   1.357966   0.000000
     5  N    1.565702   1.857801   2.209615   1.403435   0.000000
     6  N    1.200747   1.562624   2.197629   2.226624   1.351995
     7  N    0.793471   1.276556   1.326735   2.241672   2.278185
     8  H    2.042500   2.274160   1.072570   2.139535   3.240443
     9  H    2.497371   2.690142   2.172107   1.013158   2.117490
                    6          7          8          9
     6  N    0.000000
     7  N    1.455364   0.000000
     8  H    3.241406   2.120436   0.000000
     9  H    3.183267   3.231362   2.625371   0.000000
 Stoichiometry    CH2N4
 Framework group  CS[SG(CH2N4)]
 Deg. of freedom    11
 Full point group                 CS      NOp   2
 Largest Abelian subgroup         CS      NOp   2
 Largest concise Abelian subgroup C1      NOp   1
                         Standard orientation:                         
 ---------------------------------------------------------------------
 Center     Atomic      Atomic             Coordinates (Angstroms)
 Number     Number       Type             X           Y           Z
 ---------------------------------------------------------------------
      1          6           0        0.000000    1.089749    0.000000
      2          7           0       -1.074701    0.259635    0.000000
      3          7           0       -0.562615   -1.047039    0.000000
      4          7           0        0.786719   -0.962237    0.000000
      5          7           0        1.159325    0.444621    0.000000
      6          1           0       -0.089063    2.158615    0.000000
      7          1           0       -2.072030    0.438030    0.000000
 ---------------------------------------------------------------------
 Rotational constants (GHZ):      9.8957557      9.6508519      4.8858848
 Standard basis: 3-21G* (6D, 7F)
 There are    39 symmetry adapted cartesian basis functions of A'  symmetry.
 There are    10 symmetry adapted cartesian basis functions of A"  symmetry.
 There are    39 symmetry adapted basis functions of A'  symmetry.
 There are    10 symmetry adapted basis functions of A"  symmetry.
    49 basis functions,    81 primitive gaussians,    49 cartesian basis functions
    18 alpha electrons       18 beta electrons
       nuclear repulsion energy       161.4592479118 Hartrees.
 NAtoms=    7 NActive=    7 NUniq=    7 SFac= 1.00D+00 NAtFMM=   60 NAOKFM=F Big=F
 Integral buffers will be    131072 words long.
 Regular integral format.
 Two-electron integral symmetry is turned on.
 One-electron integrals computed using PRISM.
 NBasis=    49 RedAO= T EigKep=  2.10D-02  NBF=    39    10
 NBsUse=    49 1.00D-06 EigRej= -1.00D+00 NBFU=    39    10
 Initial guess from the checkpoint file:  "/tmp/rdj3/g09-23219/Gau-15990.chk"
 B after Tr=     0.000000    0.000000    0.000000
         Rot=    0.784599    0.000000    0.000000   -0.620004 Ang= -76.63 deg.
 Initial guess orbital symmetries:
       Occupied  (A') (A') (A') (A') (A') (A') (A') (A') (A') (A')
                 (A') (A') (A") (A') (A") (A') (A') (A")
       Virtual   (A') (A') (A') (A') (A') (A') (A') (A') (A') (A')
                 (A') (A') (A') (A') (A') (A') (A') (A') (A') (A')
                 (A') (A') (A') (A') (A") (A") (A") (A") (A") (A")
                 (A")
 ExpMin= 1.83D-01 ExpMax= 2.43D+02 ExpMxC= 2.43D+02 IAcc=1 IRadAn=         1 AccDes= 0.00D+00
 Harris functional with IExCor=  419 and IRadAn=       1 diagonalized for initial guess.
 HarFok:  IExCor=  419 AccDes= 0.00D+00 IRadAn=         1 IDoV= 1 UseB2=F ITyADJ=14
 ICtDFT=  3500011 ScaDFX=  1.000000  1.000000  1.000000  1.000000
 FoFCou: FMM=F IPFlag=           0 FMFlag=      100000 FMFlg1=           0
         NFxFlg=           0 DoJE=T BraDBF=F KetDBF=T FulRan=T
         wScrn=  0.000000 ICntrl=     500 IOpCl=  0 I1Cent=   200000004 NGrid=           0
         NMat0=    1 NMatS0=      1 NMatT0=    0 NMatD0=    1 NMtDS0=    0 NMtDT0=    0
 Petite list used in FoFCou.
 Keep R1 ints in memory in symmetry-blocked form, NReq=1649580.
 Requested convergence on RMS density matrix=1.00D-08 within 128 cycles.
 Requested convergence on MAX density matrix=1.00D-06.
 Requested convergence on             energy=1.00D-06.
 No special actions if energy rises.
 Integral accuracy reduced to 1.0D-05 until final iterations.
 Initial convergence to 1.0D-05 achieved.  Increase integral accuracy.
 SCF Done:  E(RB2PLYP) =  -256.269151205     A.U. after   15 cycles
            NFock= 15  Conv=0.26D-08     -V/T= 2.0072
 DoSCS=T DFT=T ScalE2(SS,OS)=  0.270000  0.270000
 ExpMin= 1.83D-01 ExpMax= 2.43D+02 ExpMxC= 2.43D+02 IAcc=3 IRadAn=         5 AccDes= 0.00D+00
 HarFok:  IExCor=  205 AccDes= 0.00D+00 IRadAn=         5 IDoV=-2 UseB2=F ITyADJ=14
 ICtDFT= 12500011 ScaDFX=  1.000000  1.000000  1.000000  1.000000
 Range of M.O.s used for correlation:     6    49
 NBasis=    49 NAE=    18 NBE=    18 NFC=     5 NFV=     0
 NROrb=     44 NOA=    13 NOB=    13 NVA=    31 NVB=    31
 DoSCS=T DFT=T ScalE2(SS,OS)=  0.270000  0.270000
 Fully direct method using O(ONN) memory.
 JobTyp=1 Pass  1:  I=   6 to  18 NPSUse=  8 ParTrn=T ParDer=T DoDerP=T.
 Spin components of T(2) and E(2):
     alpha-alpha T2 =       0.5148377262D-01 E2=     -0.2630746062D-01
     alpha-beta  T2 =       0.2793350917D+00 E2=     -0.1422335668D+00
     beta-beta   T2 =       0.5148377262D-01 E2=     -0.2630746062D-01
 E2(B2PLYP) =    -0.1948484881D+00 E(B2PLYP) =    -0.25646399969324D+03
          IDoAtm=1111111
          Differentiating once with respect to electric field.
                with respect to dipole field.
          Differentiating once with respect to nuclear coordinates.
 Keep R1 ints in memory in symmetry-blocked form, NReq=1624022.
          There are     1 degrees of freedom in the 1st order CPHF.  IDoFFX=0 NUNeed=     1.
 LinEq1:  Iter=  0 NonCon=     1 RMS=4.98D-03 Max=4.22D-02 NDo=     1
 AX will form     1 AO Fock derivatives at one time.
 LinEq1:  Iter=  1 NonCon=     1 RMS=1.33D-03 Max=7.31D-03 NDo=     1
 LinEq1:  Iter=  2 NonCon=     1 RMS=7.34D-04 Max=1.28D-02 NDo=     1
 LinEq1:  Iter=  3 NonCon=     1 RMS=3.98D-04 Max=3.00D-03 NDo=     1
 LinEq1:  Iter=  4 NonCon=     1 RMS=2.03D-04 Max=2.11D-03 NDo=     1
 LinEq1:  Iter=  5 NonCon=     1 RMS=1.28D-04 Max=1.37D-03 NDo=     1
 LinEq1:  Iter=  6 NonCon=     1 RMS=7.62D-05 Max=8.47D-04 NDo=     1
 LinEq1:  Iter=  7 NonCon=     1 RMS=2.09D-05 Max=1.07D-04 NDo=     1
 LinEq1:  Iter=  8 NonCon=     1 RMS=4.86D-06 Max=3.39D-05 NDo=     1
 LinEq1:  Iter=  9 NonCon=     1 RMS=4.03D-06 Max=3.69D-05 NDo=     1
 LinEq1:  Iter= 10 NonCon=     1 RMS=5.94D-07 Max=4.21D-06 NDo=     1
 LinEq1:  Iter= 11 NonCon=     1 RMS=1.10D-07 Max=8.93D-07 NDo=     1
 LinEq1:  Iter= 12 NonCon=     1 RMS=1.42D-08 Max=8.42D-08 NDo=     1
 LinEq1:  Iter= 13 NonCon=     1 RMS=2.20D-09 Max=2.06D-08 NDo=     1
 LinEq1:  Iter= 14 NonCon=     1 RMS=3.10D-10 Max=1.89D-09 NDo=     1
 LinEq1:  Iter= 15 NonCon=     0 RMS=4.29D-11 Max=3.08D-10 NDo=     1
 Linear equations converged to 1.000D-10 1.000D-09 after    15 iterations.
 End of Minotr F.D. properties file   721 does not exist.
 End of Minotr F.D. properties file   722 does not exist.
 End of Minotr F.D. properties file   788 does not exist.
 Calling FoFJK, ICntrl=  10002127 FMM=F ISym2X=1 I1Cent= 0 IOpClX= 0 NMat=1 NMatS=1 NMatT=0.
 ***** Axes restored to original set *****
 -------------------------------------------------------------------
 Center     Atomic                   Forces (Hartrees/Bohr)
 Number     Number              X              Y              Z
 -------------------------------------------------------------------
      1        6           0.022061263    0.011453859    0.000000000
      2        7          -0.006029452    0.012885470    0.000000000
      3        7          -0.025421817   -0.015778258    0.000000000
      4        7           0.009780283   -0.010377891    0.000000000
      5        7           0.000794553   -0.000108234    0.000000000
      6        1           0.000605603    0.000602019    0.000000000
      7        1          -0.001790433    0.001323035    0.000000000
 -------------------------------------------------------------------
 Cartesian Forces:  Max     0.025421817 RMS     0.009574731
 -----------------------------------------------------------------------------------------------
                       Internal Coordinate Forces (Hartree/Bohr or radian)
  Cent   Atom   N1       Length/X         N2         Alpha/Y        N3         Beta/Z          J
 -----------------------------------------------------------------------------------------------
         X 
         X        1   0.000000(     1)
      1  C        1   0.022387(     2)      2   0.000000(     9)
      2  N        1  -0.015547(     3)      2   0.000000(    10)      3   0.001102(    16)     0
      3  N        1   0.025197(     4)      2   0.000000(    11)      3   0.046350(    17)     0
      4  N        1  -0.008617(     5)      2   0.000000(    12)      3  -0.025782(    18)     0
      5  N        1  -0.000173(     6)      2   0.000000(    13)      3   0.001174(    19)     0
      6  H        3   0.000772(     7)      4   0.000739(    14)      5   0.000000(    20)     0
      7  H        4  -0.002104(     8)      5  -0.001393(    15)      6   0.000000(    21)     0
 -----------------------------------------------------------------------------------------------
 Internal  Forces:  Max     0.046349968 RMS     0.014268184

 GradGradGradGradGradGradGradGradGradGradGradGradGradGradGradGradGradGrad
 Berny optimization.
 Search for a local minimum.
 Step number   4 out of a maximum of   22
 All quantities printed in internal units (Hartrees-Bohrs-Radians)
 Update second derivatives using D2CorN and points    1    2    3
 DE=  1.20D-03 DEPred=-2.49D-03 R=-4.83D-01
 Trust test=-4.83D-01 RLast= 6.35D-01 DXMaxT set to 3.26D-01
 The second derivative matrix:
                          rn1       rn2       rn3       rn4       rch
           rn1          0.62724
           rn2         -0.03212   0.60959
           rn3         -0.00725  -0.04763   0.51238
           rn4          0.02237  -0.03533   0.10456   0.61571
           rch         -0.00079  -0.00220  -0.00214  -0.00150   0.37507
           rnh         -0.00253  -0.00870  -0.00784  -0.00648  -0.00008
           an1          0.10113  -0.57881   0.16170  -0.06905   0.00509
           an2          0.74927  -0.26976  -0.66586   0.06462   0.00159
           an3         -0.05044   0.97482   0.03412  -0.58573  -0.00198
           an4          0.01325  -0.12826   0.58595  -0.11754  -0.00332
           ach          0.04631   0.00280  -0.00042   0.05045  -0.00002
           anh         -0.09956   0.05173   0.00889   0.00336   0.00007
                          rnh       an1       an2       an3       an4
           rnh          0.48718
           an1          0.02112   4.52424
           an2          0.00670  -2.69994   6.01958
           an3         -0.00849  -0.08078  -3.19532   4.51682
           an4         -0.01460  -0.15548  -0.07153  -1.13006   2.61948
           ach         -0.00019  -0.11010  -0.00294   0.00042   0.07660
           anh          0.00029   0.02432  -0.09104   0.00704   0.00419
                          ach       anh
           ach          0.32016
           anh         -0.00052   0.32100
 ITU= -1  1  1  0
     Eigenvalues ---   -0.00458   0.15664   0.28429   0.32588   0.37503
     Eigenvalues ---    0.40679   0.48644   0.65392   1.21037   2.94103
     Eigenvalues ---    5.07205   9.64058
 RFO step:  Lambda=-4.58441707D-03 EMin=-4.57941922D-03
 I=     1 Eig=   -4.58D-03 Dot1=  8.78D-05
 I=     1 Stepn=  6.00D-01 RXN=   6.00D-01 EDone=F
 Mixed    1 eigenvectors in step.  Raw Step.Grad=  8.78D-05.
 RFO eigenvector is Hessian eigenvector with negative curvature.
 Taking step of  6.00D-01 in eigenvector direction(s).  Step.Grad= -9.40D-04.
 Quartic linear search produced a step of -0.60915.
 Maximum step size (   0.326) exceeded in Quadratic search.
    -- Step size scaled by   0.543
 Variable       Old X    -DE/DX   Delta X   Delta X   Delta X     New X
                                 (Linear)    (Quad)   (Total)
   rn1        2.81330  -0.01555  -0.20349   0.16866  -0.03483   2.77847
   rn2        2.95875   0.02520  -0.08891   0.08503  -0.00387   2.95487
   rn3        2.26908  -0.00862   0.01919  -0.01457   0.00461   2.27370
   rn4        1.49944  -0.00017   0.17188  -0.14393   0.02795   1.52740
   rch        2.02686   0.00077  -0.00027   0.00039   0.00012   2.02699
   rnh        1.91459  -0.00210  -0.00017   0.00072   0.00055   1.91514
   an1        1.09181   0.00110   0.09488  -0.07745   0.01742   1.10923
   an2        2.04539   0.04635   0.15576  -0.12994   0.02582   2.07121
   an3        3.03468  -0.02578   0.17146  -0.14583   0.02563   3.06031
   an4        4.62998   0.00117   0.08353  -0.07046   0.01307   4.64305
   ach        2.14536   0.00074   0.01733  -0.01305   0.00428   2.14963
   anh        2.12130  -0.00139  -0.01987   0.01344  -0.00644   2.11486
         Item               Value     Threshold  Converged?
 Maximum Force            0.046350     0.000450     NO 
 RMS     Force            0.017734     0.000300     NO 
 Maximum Displacement     0.034825     0.001800     NO 
 RMS     Displacement     0.018002     0.001200     NO 
 Predicted change in Energy=-2.377146D-04
 GradGradGradGradGradGradGradGradGradGradGradGradGradGradGradGradGradGrad

 ---------------------------------------------------------------------------------------------------
                            Z-MATRIX (ANGSTROMS AND DEGREES)
   CD    Cent   Atom    N1       Length/X        N2       Alpha/Y        N3        Beta/Z          J
 ---------------------------------------------------------------------------------------------------
      1         X 
      2         X        1   1.000000(     1)
      3      1  C        1   1.000000(     2)      2   90.000(     9)
      4      2  N        1   1.470304(     3)      2   90.000(    10)      3   63.554(    16)      0
      5      3  N        1   1.563652(     4)      2   90.000(    11)      3  118.672(    17)      0
      6      4  N        1   1.203188(     5)      2   90.000(    12)      3  175.343(    18)      0
      7      5  N        1   0.808263(     6)      2   90.000(    13)      3  266.027(    19)      0
      8      6  H        3   1.072635(     7)      4  123.165(    14)      5  180.000(    20)      0
      9      7  H        4   1.013447(     8)      5  121.173(    15)      6  180.000(    21)      0
 ---------------------------------------------------------------------------------------------------
                         Z-Matrix orientation:                         
 ---------------------------------------------------------------------
 Center     Atomic      Atomic             Coordinates (Angstroms)
 Number     Number       Type             X           Y           Z
 ---------------------------------------------------------------------
      1         -1           0        0.000000    0.000000    0.000000
      2         -1           0        0.000000    0.000000    1.000000
      3          6           0        1.000000    0.000000    0.000000
      4          7           0        0.654797   -1.316447    0.000000
      5          7           0       -0.750223   -1.371923    0.000000
      6          7           0       -1.199216   -0.097690    0.000000
      7          7           0       -0.055996    0.806321    0.000000
      8          1           0        2.017375    0.339844    0.000000
      9          1           0        1.213180   -2.162192    0.000000
 ---------------------------------------------------------------------
                    Distance matrix (angstroms):
                    1          2          3          4          5
     1  X    0.000000
     2  X    1.000000   0.000000
     3  C    1.000000   1.414214   0.000000
     4  N    1.470304   1.778143   1.360955   0.000000
     5  N    1.563652   1.856073   2.223837   1.406115   0.000000
     6  N    1.203188   1.564500   2.201384   2.218723   1.351023
     7  N    0.808263   1.285803   1.328638   2.238609   2.286197
     8  H    2.045800   2.277125   1.072635   2.144742   3.254189
     9  H    2.479290   2.673365   2.172676   1.013447   2.116477
                    6          7          8          9
     6  N    0.000000
     7  N    1.457459   0.000000
     8  H    3.246212   2.125198   0.000000
     9  H    3.175188   3.228448   2.628100   0.000000
 Stoichiometry    CH2N4
 Framework group  CS[SG(CH2N4)]
 Deg. of freedom    11
 Full point group                 CS      NOp   2
 Largest Abelian subgroup         CS      NOp   2
 Largest concise Abelian subgroup C1      NOp   1
                         Standard orientation:                         
 ---------------------------------------------------------------------
 Center     Atomic      Atomic             Coordinates (Angstroms)
 Number     Number       Type             X           Y           Z
 ---------------------------------------------------------------------
      1          6           0        0.000000    1.096448    0.000000
      2          7           0       -1.070981    0.256687    0.000000
      3          7           0       -0.563739   -1.054749    0.000000
      4          7           0        0.784000   -0.960598    0.000000
      5          7           0        1.159467    0.447668    0.000000
      6          1           0       -0.092281    2.165107    0.000000
      7          1           0       -2.068948    0.433143    0.000000
 ---------------------------------------------------------------------
 Rotational constants (GHZ):      9.8258075      9.6741171      4.8746862
 Standard basis: 3-21G* (6D, 7F)
 There are    39 symmetry adapted cartesian basis functions of A'  symmetry.
 There are    10 symmetry adapted cartesian basis functions of A"  symmetry.
 There are    39 symmetry adapted basis functions of A'  symmetry.
 There are    10 symmetry adapted basis functions of A"  symmetry.
    49 basis functions,    81 primitive gaussians,    49 cartesian basis functions
    18 alpha electrons       18 beta electrons
       nuclear repulsion energy       161.2764879902 Hartrees.
 NAtoms=    7 NActive=    7 NUniq=    7 SFac= 1.00D+00 NAtFMM=   60 NAOKFM=F Big=F
 Integral buffers will be    131072 words long.
 Regular integral format.
 Two-electron integral symmetry is turned on.
 One-electron integrals computed using PRISM.
 NBasis=    49 RedAO= T EigKep=  2.10D-02  NBF=    39    10
 NBsUse=    49 1.00D-06 EigRej= -1.00D+00 NBFU=    39    10
 Lowest energy guess from the checkpoint file:  "/tmp/rdj3/g09-23219/Gau-15990.chk"
 B after Tr=     0.000000    0.000000    0.000000
         Rot=    0.784227    0.000000    0.000000   -0.620474 Ang= -76.70 deg.
 B after Tr=     0.000000    0.000000    0.000000
         Rot=    1.000000    0.000000    0.000000   -0.000600 Ang=  -0.07 deg.
 Initial guess orbital symmetries:
       Occupied  (A') (A') (A') (A") (A') (A') (A') (A') (A') (A")
                 (A') (A") (A') (A') (A') (A') (A') (A')
       Virtual   (A') (A') (A') (A") (A') (A') (A') (A') (A') (A")
                 (A') (A") (A') (A') (A') (A') (A') (A') (A') (A')
                 (A') (A') (A') (A') (A") (A") (A") (A") (A") (A")
                 (A")
 Keep R1 ints in memory in symmetry-blocked form, NReq=1649580.
[...]
  XXY=              5.0087  XXZ=              0.0000  XZZ=             -0.9577  YZZ=              0.2206
  YYZ=              0.0000  XYZ=              0.0000
 Hexadecapole moment (field-independent basis, Debye-Ang**3):
 XXXX=           -149.2945 YYYY=           -121.4028 ZZZZ=            -23.4117 XXXY=              7.1509
 XXXZ=              0.0000 YYYX=             -1.1771 YYYZ=              0.0000 ZZZX=              0.0000
 ZZZY=              0.0000 XXYY=            -55.2939 XXZZ=            -31.1502 YYZZ=            -28.9304
 XXYZ=              0.0000 YYXZ=              0.0000 ZZXY=             -0.3854
 N-N= 1.609390672141D+02 E-N=-9.203054565968D+02  KE= 2.548645150869D+02
 Symmetry A'   KE= 2.455062433413D+02
 Symmetry A"   KE= 9.358271745612D+00
  Exact polarizability:  35.154   1.405  34.902   0.000   0.000  11.234
 Approx polarizability:  51.068  -0.521  57.313   0.000   0.000  11.521
 Calling FoFJK, ICntrl=  10100127 FMM=F ISym2X=1 I1Cent= 0 IOpClX= 0 NMat=1 NMatS=1 NMatT=0.
 Full mass-weighted force constant matrix:
 Low frequencies ---  -10.5053   -6.4223    0.0002    0.0008    0.0010    4.2716
 Low frequencies ---  615.8069  671.9057  677.3052
 Diagonal vibrational polarizability:
        1.6057148       1.2722773      11.2474532
 Harmonic frequencies (cm**-1), IR intensities (KM/Mole), Raman scattering
 activities (A**4/AMU), depolarization ratios for plane and unpolarized
 incident light, reduced masses (AMU), force constants (mDyne/A),
 and normal coordinates:
                      1                      2                      3
                     A"                     A"                     A"
 Frequencies --    615.8068               671.9057               677.3051
 Red. masses --      2.5539                 1.4549                 7.6948
 Frc consts  --      0.5706                 0.3870                 2.0798
 IR Inten    --     97.6801                49.2962                14.0254
  Atom  AN      X      Y      Z        X      Y      Z        X      Y      Z
     1   6     0.00   0.00  -0.12     0.00   0.00   0.12     0.00   0.00  -0.21
     2   7     0.00   0.00   0.28     0.00   0.00  -0.05     0.00   0.00   0.00
     3   7     0.00   0.00  -0.16     0.00   0.00   0.10     0.00   0.00   0.31
     4   7     0.00   0.00   0.06     0.00   0.00  -0.02     0.00   0.00  -0.47
     5   7     0.00   0.00   0.03     0.00   0.00  -0.10     0.00   0.00   0.40
     6   1     0.00   0.00  -0.42     0.00   0.00   0.34     0.00   0.00  -0.49
     7   1     0.00   0.00  -0.84     0.00   0.00  -0.92     0.00   0.00  -0.49
                      4                      5                      6
                     A'                     A'                     A"
 Frequencies --    735.2636               833.8237               915.7806
 Red. masses --     10.6776                 6.7445                 1.3731
 Frc consts  --      3.4010                 2.7628                 0.6785
 IR Inten    --     11.1251                15.6181                17.2736
  Atom  AN      X      Y      Z        X      Y      Z        X      Y      Z
     1   6    -0.05   0.08   0.00    -0.01   0.04   0.00     0.00   0.00   0.17
     2   7     0.11   0.05   0.00     0.31   0.29   0.00     0.00   0.00  -0.04
     3   7     0.01  -0.04   0.00    -0.32  -0.37   0.00     0.00   0.00   0.00
     4   7     0.53  -0.17   0.00    -0.07   0.07   0.00     0.00   0.00  -0.02
     5   7    -0.63   0.11   0.00     0.05  -0.01   0.00     0.00   0.00  -0.03
     6   1     0.12  -0.48   0.00     0.15  -0.41   0.00     0.00   0.00  -0.98
     7   1     0.09   0.05   0.00     0.52   0.32   0.00     0.00   0.00  -0.01
                      7                      8                      9
                     A'                     A'                     A'
 Frequencies --    956.2521               999.7364              1021.9967
 Red. masses --      4.7377                 7.4736                12.0921
 Frc consts  --      2.5525                 4.4010                 7.4414
 IR Inten    --      8.2946                 6.4923                 0.0156
  Atom  AN      X      Y      Z        X      Y      Z        X      Y      Z
     1   6     0.16   0.07   0.00    -0.34  -0.08   0.00     0.06   0.15   0.00
     2   7     0.02  -0.03   0.00    -0.10   0.41   0.00     0.16   0.21   0.00
     3   7     0.27  -0.26   0.00     0.36  -0.06   0.00     0.02   0.26   0.00
     4   7    -0.24   0.06   0.00     0.04  -0.02   0.00    -0.30  -0.76   0.00
     5   7    -0.16   0.19   0.00     0.04  -0.27   0.00     0.04   0.16   0.00
     6   1     0.27  -0.25   0.00    -0.29  -0.31   0.00     0.19  -0.17   0.00
     7   1    -0.75  -0.09   0.00    -0.37   0.41   0.00     0.16   0.23   0.00
                     10                     11                     12
                     A'                     A'                     A'
 Frequencies --   1134.8530              1208.4293              1356.0582
 Red. masses --      2.1378                 2.1854                 2.4095
 Frc consts  --      1.6222                 1.8803                 2.6106
 IR Inten    --     11.7469                10.6360                 4.8809
  Atom  AN      X      Y      Z        X      Y      Z        X      Y      Z
     1   6     0.20  -0.10   0.00    -0.15  -0.13   0.00    -0.14   0.23   0.00
     2   7    -0.12   0.11   0.00    -0.04  -0.05   0.00     0.12  -0.12   0.00
     3   7    -0.11   0.06   0.00     0.03   0.00   0.00    -0.03   0.06   0.00
     4   7     0.05   0.00   0.00     0.02   0.01   0.00     0.00   0.02   0.00
     5   7     0.03  -0.04   0.00     0.09   0.21   0.00     0.05  -0.10   0.00
     6   1     0.38  -0.61   0.00     0.07  -0.85   0.00     0.16  -0.69   0.00
     7   1    -0.62   0.09   0.00     0.41  -0.03   0.00    -0.58  -0.19   0.00
                     13                     14                     15
                     A'                     A'                     A'
 Frequencies --   1427.2559              3343.0782              3603.7029
 Red. masses --      1.9719                 1.0988                 1.0847
 Frc consts  --      2.3667                 7.2354                 8.2998
 IR Inten    --     42.7570                 2.2708               104.7833
  Atom  AN      X      Y      Z        X      Y      Z        X      Y      Z
     1   6    -0.09  -0.18   0.00     0.09   0.03   0.00     0.01   0.00   0.00
     2   7     0.15   0.01   0.00     0.00   0.00   0.00    -0.01   0.08   0.00
     3   7    -0.05   0.03   0.00     0.00   0.00   0.00     0.00   0.00   0.00
     4   7     0.03  -0.01   0.00     0.00   0.00   0.00     0.00   0.00   0.00
     5   7     0.03   0.10   0.00     0.00   0.00   0.00     0.00   0.00   0.00
     6   1    -0.30   0.36   0.00    -0.94  -0.32   0.00    -0.03  -0.01   0.00
     7   1    -0.83  -0.07   0.00     0.00   0.03   0.00     0.07  -0.99   0.00

 -------------------
 - Thermochemistry -
 -------------------
 Temperature   298.150 Kelvin.  Pressure   1.00000 Atm.
 Atom     1 has atomic number  6 and mass  12.00000
 Atom     2 has atomic number  7 and mass  14.00307
 Atom     3 has atomic number  7 and mass  14.00307
 Atom     4 has atomic number  7 and mass  14.00307
 Atom     5 has atomic number  7 and mass  14.00307
 Atom     6 has atomic number  1 and mass   1.00783
 Atom     7 has atomic number  1 and mass   1.00783
 Molecular mass:    70.02795 amu.
 Principal axes and moments of inertia in atomic units:
                           1         2         3
     Eigenvalues --   183.03019 188.87663 371.90682
           X            0.99251   0.12219   0.00000
           Y           -0.12219   0.99251   0.00000
           Z            0.00000   0.00000   1.00000
 This molecule is an asymmetric top.
 Rotational symmetry number  1.
 Rotational temperatures (Kelvin)      0.47322     0.45857     0.23289
 Rotational constants (GHZ):           9.86035     9.55513     4.85267
 Zero-point vibrational energy     116643.4 (Joules/Mol)
                                   27.87843 (Kcal/Mol)
 Warning -- explicit consideration of   1 degrees of freedom as
           vibrations may cause significant error
 Vibrational temperatures:    886.01   966.72   974.49  1057.88  1199.68
          (Kelvin)           1317.60  1375.83  1438.40  1470.42  1632.80
                             1738.66  1951.06  2053.50  4809.94  5184.92
 
 Zero-point correction=                           0.044427 (Hartree/Particle)
 Thermal correction to Energy=                    0.048045
 Thermal correction to Enthalpy=                  0.048989
 Thermal correction to Gibbs Free Energy=         0.018189
 Sum of electronic and zero-point Energies=           -256.421406
 Sum of electronic and thermal Energies=              -256.417788
 Sum of electronic and thermal Enthalpies=            -256.416844
 Sum of electronic and thermal Free Energies=         -256.447644
 
                     E (Thermal)             CV                S
                      KCal/Mol        Cal/Mol-Kelvin    Cal/Mol-Kelvin
 Total                   30.149             12.385             64.824
 Electronic               0.000              0.000              0.000
 Translational            0.889              2.981             38.656
 Rotational               0.889              2.981             24.068
 Vibrational             28.371              6.423              2.101
 Vibration     1          0.975              0.998              0.423
                       Q            Log10(Q)             Ln(Q)
 Total Bot       0.430209D-08         -8.366320        -19.264164
 Total V=0       0.117136D+13         12.068689         27.789184
 Vib (Bot)       0.460154D-20        -20.337097        -46.827895
 Vib (Bot)    1  0.238528D+00         -0.622460         -1.433267
 Vib (V=0)       0.125289D+01          0.097913          0.225453
 Vib (V=0)    1  0.105398D+01          0.022833          0.052575
 Electronic      0.100000D+01          0.000000          0.000000
 Translational   0.230336D+08          7.362362         16.952466
 Rotational      0.405895D+05          4.608414         10.611265
 ***** Axes restored to original set *****
 -------------------------------------------------------------------
 Center     Atomic                   Forces (Hartrees/Bohr)
 Number     Number              X              Y              Z
 -------------------------------------------------------------------
      1        6           0.000145127   -0.000047207    0.000000000
      2        7          -0.000050511    0.000024923    0.000000000
      3        7           0.000044098   -0.000079833    0.000000000
      4        7          -0.000008859    0.000137402    0.000000000
      5        7          -0.000131029   -0.000035335    0.000000000
      6        1           0.000000122   -0.000002216    0.000000000
      7        1           0.000001052    0.000002266    0.000000000
 -------------------------------------------------------------------
 Cartesian Forces:  Max     0.000145127 RMS     0.000058622
 -----------------------------------------------------------------------------------------------
                       Internal Coordinate Forces (Hartree/Bohr or radian)
  Cent   Atom   N1       Length/X         N2         Alpha/Y        N3         Beta/Z          J
 -----------------------------------------------------------------------------------------------
         X 
         X        1   0.000000(     1)
      1  C        1   0.000147(     2)      2   0.000000(     9)
      2  N        1  -0.000048(     3)      2   0.000000(    10)      3   0.000092(    16)     0
      3  N        1   0.000048(     4)      2   0.000000(    11)      3  -0.000237(    17)     0
      4  N        1  -0.000002(     5)      2   0.000000(    12)      3   0.000316(    18)     0
      5  N        1  -0.000026(     6)      2   0.000000(    13)      3  -0.000204(    19)     0
      6  H        3  -0.000001(     7)      4  -0.000004(    14)      5   0.000000(    20)     0
      7  H        4  -0.000001(     8)      5   0.000004(    15)      6   0.000000(    21)     0
 -----------------------------------------------------------------------------------------------
 Internal  Forces:  Max     0.000315552 RMS     0.000105297

 GradGradGradGradGradGradGradGradGradGradGradGradGradGradGradGradGradGrad
 Berny optimization.
 Search for a local minimum.
 Step number   1 out of a maximum of    2
 All quantities printed in internal units (Hartrees-Bohrs-Radians)
 Second derivative matrix not updated -- analytic derivatives used.
 The second derivative matrix:
                          rn1       rn2       rn3       rn4       rch
           rn1          0.52570
           rn2         -0.07419   0.42383
           rn3          0.04606  -0.06296   0.38319
           rn4          0.09866   0.07260  -0.04434   0.43895
           rch         -0.00279  -0.00335  -0.00065  -0.00478   0.39169
           rnh          0.00561  -0.01048  -0.00184  -0.00154   0.00071
           an1          0.16064  -0.18990  -0.22342   0.13342   0.01589
           an2          0.13665  -0.01791  -0.18553  -0.15372   0.00246
           an3          0.22306   0.24813   0.21246  -0.12915  -0.00216
           an4         -0.09456   0.11369   0.11816  -0.18627  -0.01077
           ach          0.04476   0.01159  -0.01185   0.02119   0.00283
           anh         -0.05691   0.01822   0.02349  -0.01780  -0.00140
                          rnh       an1       an2       an3       an4
           rnh          0.46013
           an1         -0.00590   2.34435
           an2          0.00338  -0.80820   2.23061
           an3         -0.00197  -0.36108  -0.98195   1.47812
           an4         -0.00149  -0.22427  -0.10570  -0.07864   0.76313
           ach          0.00125   0.01596  -0.02614  -0.00865   0.08492
           anh         -0.00336  -0.02371  -0.02509   0.01397  -0.00567
                          ach       anh
           ach          0.22081
           anh          0.00060   0.20873
 ITU=  0
     Eigenvalues ---   -0.00001   0.15393   0.20800   0.25206   0.39083
     Eigenvalues ---    0.45899   0.48647   0.52524   0.66608   1.01068
     Eigenvalues ---    2.47000   3.24697
 Eigenvalue     1 is  -6.21D-06 should be greater than     0.000000 Eigenvector:
                          rn4       an3       rn1       rn2       an2
   1                    0.47305   0.45708  -0.42792  -0.40931   0.33063
                          an4       an1       rn3       anh       ach
   1                    0.27373   0.17638  -0.03600   0.00009  -0.00006
 Quadratic step=2.446D+00 exceeds max=3.000D-01 adjusted using Lamda=-4.444D-05.
 Angle between NR and scaled steps=   0.09 degrees.
 Angle between quadratic step and forces=  88.04 degrees.
 Linear search not attempted -- first point.
 Variable       Old X    -DE/DX   Delta X   Delta X   Delta X     New X
                                 (Linear)    (Quad)   (Total)
   rn1        2.74172  -0.00005   0.00000  -0.12865  -0.12865   2.61307
   rn2        2.99786   0.00005   0.00000  -0.12269  -0.12269   2.87516
   rn3        2.29197   0.00000   0.00000  -0.01071  -0.01071   2.28125
   rn4        1.52965  -0.00003   0.00000   0.14180   0.14180   1.67144
   rch        2.02750   0.00000   0.00000  -0.00002  -0.00002   2.02747
   rnh        1.91189   0.00000   0.00000   0.00001   0.00001   1.91189
   an1        1.12550   0.00009   0.00000   0.05301   0.05301   1.17851
   an2        2.09968  -0.00024   0.00000   0.09922   0.09922   2.19891
   an3        3.06510   0.00032   0.00000   0.13737   0.13737   3.20247
   an4        4.63939  -0.00020   0.00000   0.08179   0.08179   4.72118
   ach        2.16091   0.00000   0.00000   0.00016   0.00016   2.16107
   anh        2.09944   0.00000   0.00000  -0.00007  -0.00007   2.09937
         Item               Value     Threshold  Converged?
 Maximum Force            0.000316     0.000450     YES
 RMS     Force            0.000133     0.000300     YES
 Maximum Displacement     0.141797     0.001800     NO 
 RMS     Displacement     0.086622     0.001200     NO 
 Predicted change in Energy=-4.921597D-06
 GradGradGradGradGradGradGradGradGradGradGradGradGradGradGradGradGradGrad

 1\1\GINC-N366\Freq\RB2PLYP-FC\3-21G*\C1H2N4\RDJ3\26-Nov-2013\1\\#N Geo
 m=AllCheck Guess=TCheck SCRF=Check GenChk RB2PLYP(FC)/3-21G* Freq\\1H-
 tetrazole CH2N4 casno=288948 state=1 config=1 method=56 basis=8\\0,1\X
 \X,1,1.\C,1,1.,2,90.\N,1,rn1,2,90.,3,an1,0\N,1,rn2,2,90.,3,an2,0\N,1,r
 n3,2,90.,3,an3,0\N,1,rn4,2,90.,3,an4,0\H,3,rch,4,ach,5,180.,0\H,4,rnh,
 5,anh,6,180.,0\\rn1=1.45085672\rn2=1.58639691\rn3=1.21285781\rn4=0.809
 45368\rch=1.07290427\rnh=1.01172753\an1=64.48631469\an2=120.30293745\a
 n3=175.61754342\an4=265.81744737\ach=123.81085589\anh=120.28885154\\Ve
 rsion=EM64L-G09RevD.01\State=1-A'\HF=-256.2704989\MP2=-256.4658333\RMS
 D=2.089e-09\RMSF=5.862e-05\ZeroPoint=0.0444271\Thermal=0.0480448\Dipol
 e=1.9134367,-0.9833002,0.\DipoleDeriv=0.178142,0.0710467,0.,-0.1613413
 ,0.3477203,0.,0.,0.,0.0813196,-0.4571416,0.1755628,0.,0.2363943,-0.343
 0481,0.,0.,0.,-0.2686952,0.2905839,-0.166252,0.,-0.1861567,-0.1979326,
 0.,0.,0.,-0.0599195,0.1412026,0.0392466,0.,0.1912121,-0.0645487,0.,0.,
 0.,-0.153745,-0.4480284,-0.0796445,0.,-0.048481,-0.1610452,0.,0.,0.,-0
 .1917513,0.0680594,-0.0187948,0.,0.0088425,0.1316739,0.,0.,0.,0.187667
 4,0.227182,-0.0211648,0.,-0.0404699,0.2871803,0.,0.,0.,0.405124\Polar=
 36.4084382,-0.2867073,33.6466566,0.,0.,11.2338283\Quadrupole=1.3362715
 ,-0.9599513,-0.3763202,-1.3857317,0.,0.\PG=CS [SG(C1H2N4)]\NImag=0\\0.
 89137673,0.09255829,0.54393012,0.,0.,0.15256669,-0.13122025,-0.0286305
 7,0.,0.50692026,-0.05954876,-0.25705586,0.,-0.19580132,0.86467734,0.,0
 .,-0.06778051,0.,0.,0.09490471,-0.07116084,-0.09300220,0.,-0.10948256,
 -0.04347591,0.,0.28778621,-0.01575813,-0.04127550,0.,-0.00147559,-0.09
 450596,0.,0.07194163,0.39821362,0.,0.,0.02011770,0.,0.,-0.06048855,0.,
 0.,0.09543900,-0.12194330,0.03296148,0.,-0.09567991,0.02976966,0.,-0.0
 8982893,-0.01926109,0.,0.39672819,-0.04081100,0.01806066,0.,0.08600449
 ,-0.06611034,0.,0.06198321,-0.16527528,0.,-0.08391687,0.26783953,0.,0.
 ,0.01545759,0.,0.,0.02103320,0.,0.,-0.07948979,0.,0.,0.10192482,-0.234
 83690,0.10662616,0.,0.00305711,0.09323849,0.,-0.01807346,-0.07002861,0
 .,-0.07864526,-0.02434154,0.,0.34449526,0.09761497,-0.18100158,0.,-0.0
 0072833,-0.09083616,0.,0.00661736,-0.10052684,0.,0.04289576,-0.0547153
 1,0.,-0.12876740,0.42062181,0.,0.,-0.07780605,0.,0.,0.02353699,0.,0.,0
 .02842861,0.,0.,-0.07490708,0.,0.,0.09730297,-0.34746478,-0.09892280,0
 .,0.00354512,0.00455526,0.,0.00070394,0.00479625,0.,-0.00114334,-0.000
 41449,0.,-0.01447942,-0.00883202,0.,0.35919984,-0.09541921,-0.08008619
 ,0.,-0.03480334,-0.00817811,0.,0.00109212,-0.00580816,0.,0.00590117,-0
 .00161335,0.,0.02322975,0.01020455,0.,0.09962842,0.08620167,0.,0.,-0.0
 3570294,0.,0.,0.00005950,0.,0.,0.00507305,0.,0.,0.00922505,0.,0.,-0.00
 331067,0.,0.,0.02563925,0.01524934,-0.01159036,0.,-0.17713977,0.171262
 58,0.,0.00005563,0.02978554,0.,-0.00948743,0.00149618,0.,-0.00151733,-
 0.00880034,0.,-0.00036136,0.00037109,0.,0.17320092,0.02136384,-0.00257
 165,0.,0.17543465,-0.34799090,0.,-0.00515622,0.00917813,0.,-0.00835013
 ,0.00181409,0.,0.00004315,-0.00374647,0.,-0.00081061,-0.00072041,0.,-0
 .18252468,0.34403720,0.,0.,-0.00685248,0.,0.,-0.01126534,0.,0.,-0.0090
 8001,0.,0.,0.00675621,0.,0.,0.00675523,0.,0.,-0.00098323,0.,0.,0.01466
 963\\-0.00014513,0.00004721,0.,0.00005051,-0.00002492,0.,-0.00004410,0
 .00007983,0.,0.00000886,-0.00013740,0.,0.00013103,0.00003533,0.,-0.000
 00012,0.00000222,0.,-0.00000105,-0.00000227,0.\\\@


 Children are likely to live up to what you believe of them.
 -- Lady Bird Johnson
 Job cpu time:       0 days  0 hours  1 minutes 34.6 seconds.
 File lengths (MBytes):  RWF=     73 Int=      0 D2E=      0 Chk=      1 Scr=      1
 Normal termination of Gaussian 09 at Tue Nov 26 09:07:01 2013.
