 Entering Gaussian System, Link 0=g09
 Initial command:
 /usr/local/gaussian/g09.d01.em64t.legacy.linda/g09/l1.exe "/tmp/rdj3/g09-23219/Gau-8041.inp" -scrdir="/tmp/rdj3/g09-23219/"
 Entering Link 1 = /usr/local/gaussian/g09.d01.em64t.legacy.linda/g09/l1.exe PID=      8042.
  
 Copyright (c) 1988,1990,1992,1993,1995,1998,2003,2009,2013,
            Gaussian, Inc.  All Rights Reserved.
  
 This is part of the Gaussian(R) 09 program.  It is based on
 the Gaussian(R) 03 system (copyright 2003, Gaussian, Inc.),
 the Gaussian(R) 98 system (copyright 1998, Gaussian, Inc.),
 the Gaussian(R) 94 system (copyright 1995, Gaussian, Inc.),
 the Gaussian 92(TM) system (copyright 1992, Gaussian, Inc.),
 the Gaussian 90(TM) system (copyright 1990, Gaussian, Inc.),
 the Gaussian 88(TM) system (copyright 1988, Gaussian, Inc.),
 the Gaussian 86(TM) system (copyright 1986, Carnegie Mellon
 University), and the Gaussian 82(TM) system (copyright 1983,
 Carnegie Mellon University). Gaussian is a federally registered
 trademark of Gaussian, Inc.
  
 This software contains proprietary and confidential information,
 including trade secrets, belonging to Gaussian, Inc.
  
 This software is provided under written license and may be
 used, copied, transmitted, or stored only in accord with that
 written license.
  
 The following legend is applicable only to US Government
 contracts under FAR:
  
                    RESTRICTED RIGHTS LEGEND
  
 Use, reproduction and disclosure by the US Government is
 subject to restrictions as set forth in subparagraphs (a)
 and (c) of the Commercial Computer Software - Restricted
 Rights clause in FAR 52.227-19.
  
 Gaussian, Inc.
 340 Quinnipiac St., Bldg. 40, Wallingford CT 06492
  
  
 ---------------------------------------------------------------
 Warning -- This program may not be used in any manner that
 competes with the business of Gaussian, Inc. or will provide
 assistance to any competitor of Gaussian, Inc.  The licensee
 of this program is prohibited from giving any competitor of
 Gaussian, Inc. access to this program.  By using this program,
 the user acknowledges that Gaussian, Inc. is engaged in the
 business of creating and licensing software in the field of
 computational chemistry and represents and warrants to the
 licensee that it is not a competitor of Gaussian, Inc. and that
 it will not use this program in any manner prohibited above.
 ---------------------------------------------------------------
  

 Cite this work as:
 Gaussian 09, Revision D.01,
 M. J. Frisch, G. W. Trucks, H. B. Schlegel, G. E. Scuseria, 
 M. A. Robb, J. R. Cheeseman, G. Scalmani, V. Barone, B. Mennucci, 
 G. A. Petersson, H. Nakatsuji, M. Caricato, X. Li, H. P. Hratchian, 
 A. F. Izmaylov, J. Bloino, G. Zheng, J. L. Sonnenberg, M. Hada, 
 M. Ehara, K. Toyota, R. Fukuda, J. Hasegawa, M. Ishida, T. Nakajima, 
 Y. Honda, O. Kitao, H. Nakai, T. Vreven, J. A. Montgomery, Jr., 
 J. E. Peralta, F. Ogliaro, M. Bearpark, J. J. Heyd, E. Brothers, 
 K. N. Kudin, V. N. Staroverov, T. Keith, R. Kobayashi, J. Normand, 
 K. Raghavachari, A. Rendell, J. C. Burant, S. S. Iyengar, J. Tomasi, 
 M. Cossi, N. Rega, J. M. Millam, M. Klene, J. E. Knox, J. B. Cross, 
 V. Bakken, C. Adamo, J. Jaramillo, R. Gomperts, R. E. Stratmann, 
 O. Yazyev, A. J. Austin, R. Cammi, C. Pomelli, J. W. Ochterski, 
 R. L. Martin, K. Morokuma, V. G. Zakrzewski, G. A. Voth, 
 P. Salvador, J. J. Dannenberg, S. Dapprich, A. D. Daniels, 
 O. Farkas, J. B. Foresman, J. V. Ortiz, J. Cioslowski, 
 and D. J. Fox, Gaussian, Inc., Wallingford CT, 2013.
 
 ******************************************
 Gaussian 09:  EM64L-G09RevD.01 24-Apr-2013
                26-Nov-2013 
 ******************************************
 %Nproc=8
 Will use up to    8 processors via shared memory.
 %mem=436000000
 ------------------------------------------
 #B2PLYP/6-31+G** opt=z-matrix freq density
 ------------------------------------------
 1/10=7,18=40,38=1/1,3;
 2/12=2,17=6,18=5,29=3,40=1/2;
 3/5=1,6=6,7=111,11=9,16=1,25=1,30=1,71=1,74=-47/1,2,3;
 4//1;
 5/5=2,38=5/2;
 8/6=4,10=2/1;
 9/15=2,16=-3/6;
 10/5=1/2;
 6/7=2,8=2,9=2,10=2,22=-1/1;
 7/12=2,29=1/1,2,3,16;
 1/10=7,18=40/3(2);
 2/29=3/2;
 99//99;
 2/29=3/2;
 3/5=1,6=6,7=111,11=9,16=1,25=1,30=1,71=1,74=-47/1,2,3;
 4/5=5,16=3,69=1/1;
 5/5=2,38=5/2;
 8/6=4,10=2/1;
 9/15=2,16=-3/6;
 10/5=1/2;
 7/12=2/1,2,3,16;
 1/18=40/3(-8);
 2/29=3/2;
 6/7=2,8=2,9=2,10=2,22=-1/1;
 99//99;
 ------------------------------------------------------------------
 1H-tetrazole CH2N4 casno=288948 state=1 config=1 method=56 basis=4
 ------------------------------------------------------------------
 Symbolic Z-matrix:
 Charge =  0 Multiplicity = 1
 X
 X                    1     1. 
 C                    1     1.       2     90. 
 N                    1    rn1      2     90.      3    an1      0
 N                    1    rn2      2     90.      3    an2      0
 N                    1    rn3      2     90.      3    an3      0
 N                    1    rn4      2     90.      3    an4      0
 H                    3    rch      4    ach      5     180.     0
 H                    4    rnh      5    anh      6     180.     0
       Variables:
  rn1                   1.2426                   
  rn2                   1.333                    
  rn3                   1.1146                   
  rn4                   0.9264                   
  rch                   1.0678                   
  rnh                   0.9941                   
  an1                  71.8427                   
  an2                 133.7028                   
  an3                 194.4597                   
  an4                 276.0768                   
  ach                 125.0248                   
  anh                 120.7626                   
 

 GradGradGradGradGradGradGradGradGradGradGradGradGradGradGradGradGradGrad
 Berny optimization.
 Initialization pass.
                       ----------------------------
                       !    Initial Parameters    !
                       ! (Angstroms and Degrees)  !
 ----------------------                            ----------------------
 !      Name          Value   Derivative information (Atomic Units)     !
 ------------------------------------------------------------------------
 !       rn1         1.2426   estimate D2E/DX2                          !
 !       rn2         1.333    estimate D2E/DX2                          !
 !       rn3         1.1146   estimate D2E/DX2                          !
 !       rn4         0.9264   estimate D2E/DX2                          !
 !       rch         1.0678   estimate D2E/DX2                          !
 !       rnh         0.9941   estimate D2E/DX2                          !
 !       an1        71.8427   estimate D2E/DX2                          !
 !       an2       133.7028   estimate D2E/DX2                          !
 !       an3       194.4597   estimate D2E/DX2                          !
 !       an4       276.0768   estimate D2E/DX2                          !
 !       ach       125.0248   estimate D2E/DX2                          !
 !       anh       120.7626   estimate D2E/DX2                          !
 ------------------------------------------------------------------------
 Trust Radius=3.00D-01 FncErr=1.00D-07 GrdErr=1.00D-07
 Number of steps in this run=     22 maximum allowed number of steps=    100.
 GradGradGradGradGradGradGradGradGradGradGradGradGradGradGradGradGradGrad

 ---------------------------------------------------------------------------------------------------
                            Z-MATRIX (ANGSTROMS AND DEGREES)
   CD    Cent   Atom    N1       Length/X        N2       Alpha/Y        N3        Beta/Z          J
 ---------------------------------------------------------------------------------------------------
      1         X 
      2         X        1   1.000000(     1)
      3      1  C        1   1.000000(     2)      2   90.000(     9)
      4      2  N        1   1.242600(     3)      2   90.000(    10)      3   71.843(    16)      0
      5      3  N        1   1.333000(     4)      2   90.000(    11)      3  133.703(    17)      0
      6      4  N        1   1.114600(     5)      2   90.000(    12)      3  194.460(    18)      0
      7      5  N        1   0.926400(     6)      2   90.000(    13)      3  276.077(    19)      0
      8      6  H        3   1.067800(     7)      4  125.025(    14)      5  180.000(    20)      0
      9      7  H        4   0.994100(     8)      5  120.763(    15)      6  180.000(    21)      0
 ---------------------------------------------------------------------------------------------------
                         Z-Matrix orientation:                         
 ---------------------------------------------------------------------
 Center     Atomic      Atomic             Coordinates (Angstroms)
 Number     Number       Type             X           Y           Z
 ---------------------------------------------------------------------
      1         -1           0        0.000000    0.000000    0.000000
      2         -1           0        0.000000    0.000000    1.000000
      3          6           0        1.000000    0.000000    0.000000
      4          7           0        0.387228   -1.180724    0.000000
      5          7           0       -0.920993   -0.963670    0.000000
      6          7           0       -1.079293    0.278314    0.000000
      7          7           0        0.098070    0.921194    0.000000
      8          1           0        2.058429    0.141157    0.000000
      9          1           0        0.749017   -2.106652    0.000000
 ---------------------------------------------------------------------
                    Distance matrix (angstroms):
                    1          2          3          4          5
     1  X    0.000000
     2  X    1.000000   0.000000
     3  C    1.000000   1.414214   0.000000
     4  N    1.242600   1.595009   1.330263   0.000000
     5  N    1.333000   1.666400   2.149157   1.326105   0.000000
     6  N    1.114600   1.497442   2.097837   2.068690   1.252032
     7  N    0.926400   1.363164   1.289216   2.121715   2.142710
     8  H    2.063263   2.292827   1.067800   2.130794   3.177672
     9  H    2.235847   2.449288   2.121551   0.994100   2.023695
                    6          7          8          9
     6  N    0.000000
     7  N    1.341447   0.000000
     8  H    3.140719   2.109850   0.000000
     9  H    3.005127   3.097029   2.601385   0.000000
 Stoichiometry    CH2N4
 Framework group  CS[SG(CH2N4)]
 Deg. of freedom    11
 Full point group                 CS      NOp   2
 Largest Abelian subgroup         CS      NOp   2
 Largest concise Abelian subgroup C1      NOp   1
                         Standard orientation:                         
 ---------------------------------------------------------------------
 Center     Atomic      Atomic             Coordinates (Angstroms)
 Number     Number       Type             X           Y           Z
 ---------------------------------------------------------------------
      1          6           0        1.052733    0.225621    0.000000
      2          7           0        0.000000    1.038857    0.000000
      3          7           0       -1.095416    0.291448    0.000000
      4          7           0       -0.716382   -0.901832    0.000000
      5          7           0        0.622191   -0.989579    0.000000
      6          1           0        2.072287    0.542964    0.000000
      7          1           0       -0.061439    2.031056    0.000000
 ---------------------------------------------------------------------
 Rotational constants (GHZ):     10.9201517     10.7345054      5.4132664
 Standard basis: 6-31+G(d,p) (6D, 7F)
 There are    78 symmetry adapted cartesian basis functions of A'  symmetry.
 There are    27 symmetry adapted cartesian basis functions of A"  symmetry.
 There are    78 symmetry adapted basis functions of A'  symmetry.
 There are    27 symmetry adapted basis functions of A"  symmetry.
   105 basis functions,   174 primitive gaussians,   105 cartesian basis functions
    18 alpha electrons       18 beta electrons
       nuclear repulsion energy       169.8308489506 Hartrees.
 NAtoms=    7 NActive=    7 NUniq=    7 SFac= 1.00D+00 NAtFMM=   60 NAOKFM=F Big=F
 Integral buffers will be    131072 words long.
 Regular integral format.
 Two-electron integral symmetry is turned on.
 One-electron integrals computed using PRISM.
 NBasis=   105 RedAO= T EigKep=  8.76D-05  NBF=    78    27
 NBsUse=   105 1.00D-06 EigRej= -1.00D+00 NBFU=    78    27
 ExpMin= 4.38D-02 ExpMax= 4.17D+03 ExpMxC= 6.27D+02 IAcc=2 IRadAn=         4 AccDes= 0.00D+00
 Harris functional with IExCor=  419 and IRadAn=       4 diagonalized for initial guess.
 HarFok:  IExCor=  419 AccDes= 0.00D+00 IRadAn=         4 IDoV= 1 UseB2=F ITyADJ=14
 ICtDFT=  3500011 ScaDFX=  1.000000  1.000000  1.000000  1.000000
 FoFCou: FMM=F IPFlag=           0 FMFlag=      100000 FMFlg1=           0
         NFxFlg=           0 DoJE=T BraDBF=F KetDBF=T FulRan=T
         wScrn=  0.000000 ICntrl=     500 IOpCl=  0 I1Cent=   200000004 NGrid=           0
         NMat0=    1 NMatS0=      1 NMatT0=    0 NMatD0=    1 NMtDS0=    0 NMtDT0=    0
 Petite list used in FoFCou.
 Initial guess orbital symmetries:
       Occupied  (A') (A') (A') (A') (A') (A') (A') (A') (A') (A')
                 (A') (A') (A") (A') (A") (A') (A") (A')
       Virtual   (A") (A") (A') (A') (A') (A") (A') (A') (A') (A')
                 (A") (A") (A') (A') (A') (A') (A") (A') (A") (A')
                 (A') (A') (A') (A') (A') (A') (A') (A') (A') (A")
                 (A') (A') (A') (A') (A') (A") (A') (A") (A') (A")
                 (A") (A') (A') (A') (A') (A') (A') (A") (A') (A')
                 (A") (A") (A') (A") (A") (A') (A') (A') (A') (A')
                 (A") (A') (A') (A") (A") (A') (A") (A') (A') (A")
                 (A') (A') (A") (A') (A") (A') (A') (A') (A') (A')
                 (A') (A') (A') (A') (A') (A') (A')
 The electronic state of the initial guess is 1-A'.
 Keep R1 ints in memory in symmetry-blocked form, NReq=23756016.
 Requested convergence on RMS density matrix=1.00D-08 within 128 cycles.
 Requested convergence on MAX density matrix=1.00D-06.
 Requested convergence on             energy=1.00D-06.
 No special actions if energy rises.
 SCF Done:  E(RB2PLYP) =  -257.762124797     A.U. after   13 cycles
            NFock= 13  Conv=0.69D-08     -V/T= 2.0054
 DoSCS=T DFT=T ScalE2(SS,OS)=  0.270000  0.270000
 ExpMin= 4.38D-02 ExpMax= 4.17D+03 ExpMxC= 6.27D+02 IAcc=3 IRadAn=         5 AccDes= 0.00D+00
 HarFok:  IExCor=  205 AccDes= 0.00D+00 IRadAn=         5 IDoV=-2 UseB2=F ITyADJ=14
 ICtDFT= 12500011 ScaDFX=  1.000000  1.000000  1.000000  1.000000
 Range of M.O.s used for correlation:     6   105
 NBasis=   105 NAE=    18 NBE=    18 NFC=     5 NFV=     0
 NROrb=    100 NOA=    13 NOB=    13 NVA=    87 NVB=    87

 **** Warning!!: The largest alpha MO coefficient is  0.54244202D+02

 DoSCS=T DFT=T ScalE2(SS,OS)=  0.270000  0.270000
 Fully direct method using O(ONN) memory.
 JobTyp=1 Pass  1:  I=   6 to  18 NPSUse=  8 ParTrn=T ParDer=T DoDerP=T.
 Spin components of T(2) and E(2):
     alpha-alpha T2 =       0.5964909811D-01 E2=     -0.3703244126D-01
     alpha-beta  T2 =       0.2996553708D+00 E2=     -0.1907152338D+00
     beta-beta   T2 =       0.5964909811D-01 E2=     -0.3703244126D-01
 E2(B2PLYP) =    -0.2647801164D+00 E(B2PLYP) =    -0.25802690491366D+03
          IDoAtm=1111111
          Differentiating once with respect to electric field.
                with respect to dipole field.
          Differentiating once with respect to nuclear coordinates.
 Keep R1 ints in memory in symmetry-blocked form, NReq=23703984.
          There are     1 degrees of freedom in the 1st order CPHF.  IDoFFX=0 NUNeed=     1.
 LinEq1:  Iter=  0 NonCon=     1 RMS=2.82D-03 Max=3.33D-02 NDo=     1
 AX will form     1 AO Fock derivatives at one time.
 LinEq1:  Iter=  1 NonCon=     1 RMS=6.43D-04 Max=8.37D-03 NDo=     1
 LinEq1:  Iter=  2 NonCon=     1 RMS=2.94D-04 Max=5.02D-03 NDo=     1
 LinEq1:  Iter=  3 NonCon=     1 RMS=1.42D-04 Max=2.52D-03 NDo=     1
 LinEq1:  Iter=  4 NonCon=     1 RMS=6.18D-05 Max=1.13D-03 NDo=     1
 LinEq1:  Iter=  5 NonCon=     1 RMS=4.03D-05 Max=6.64D-04 NDo=     1
 LinEq1:  Iter=  6 NonCon=     1 RMS=1.55D-05 Max=1.88D-04 NDo=     1
 LinEq1:  Iter=  7 NonCon=     1 RMS=7.25D-06 Max=6.77D-05 NDo=     1
 LinEq1:  Iter=  8 NonCon=     1 RMS=2.30D-06 Max=2.00D-05 NDo=     1
 LinEq1:  Iter=  9 NonCon=     1 RMS=4.14D-07 Max=4.74D-06 NDo=     1
 LinEq1:  Iter= 10 NonCon=     1 RMS=1.62D-07 Max=1.80D-06 NDo=     1
 LinEq1:  Iter= 11 NonCon=     1 RMS=7.85D-08 Max=7.44D-07 NDo=     1
 LinEq1:  Iter= 12 NonCon=     1 RMS=1.18D-08 Max=8.69D-08 NDo=     1
 LinEq1:  Iter= 13 NonCon=     1 RMS=1.95D-09 Max=1.79D-08 NDo=     1
 LinEq1:  Iter= 14 NonCon=     1 RMS=3.81D-10 Max=4.48D-09 NDo=     1
 LinEq1:  Iter= 15 NonCon=     0 RMS=8.05D-11 Max=5.83D-10 NDo=     1
 Linear equations converged to 1.000D-10 1.000D-09 after    15 iterations.
 End of Minotr F.D. properties file   721 does not exist.
 End of Minotr F.D. properties file   722 does not exist.
 End of Minotr F.D. properties file   788 does not exist.

 **********************************************************************

            Population analysis using the MP2 density.

 **********************************************************************

 Orbital symmetries:
       Occupied  (A') (A') (A') (A') (A') (A') (A') (A') (A') (A')
                 (A') (A") (A') (A') (A") (A') (A") (A')
       Virtual   (A') (A") (A') (A") (A') (A") (A') (A') (A') (A")
                 (A") (A') (A') (A') (A") (A') (A') (A") (A') (A')
                 (A') (A') (A') (A') (A') (A') (A') (A') (A') (A")
                 (A') (A') (A') (A') (A') (A") (A") (A') (A') (A")
                 (A') (A") (A') (A') (A') (A') (A') (A") (A') (A')
                 (A") (A") (A') (A") (A") (A') (A') (A') (A') (A')
                 (A") (A') (A') (A") (A") (A') (A") (A') (A') (A")
                 (A') (A') (A") (A') (A") (A') (A') (A') (A') (A')
                 (A') (A') (A') (A') (A') (A') (A')
 The electronic state is 1-A'.
 Alpha  occ. eigenvalues --  -14.97549 -14.94538 -14.92605 -14.89203 -10.72745
 Alpha  occ. eigenvalues --   -1.32823  -1.09830  -1.04576  -0.79271  -0.77811
 Alpha  occ. eigenvalues --   -0.70146  -0.59598  -0.58998  -0.47300  -0.39805
 Alpha  occ. eigenvalues --   -0.38424  -0.37279  -0.37007
 Alpha virt. eigenvalues --    0.01351   0.03328   0.04878   0.06155   0.06675
 Alpha virt. eigenvalues --    0.09455   0.10353   0.12132   0.14270   0.15716
 Alpha virt. eigenvalues --    0.17194   0.19156   0.19892   0.22220   0.23860
 Alpha virt. eigenvalues --    0.23982   0.25202   0.25526   0.25829   0.27198
 Alpha virt. eigenvalues --    0.27903   0.29184   0.32309   0.35374   0.37063
 Alpha virt. eigenvalues --    0.38806   0.47690   0.55012   0.56852   0.72332
 Alpha virt. eigenvalues --    0.84876   0.86378   0.89630   0.92471   0.93113
 Alpha virt. eigenvalues --    0.95407   0.97894   0.98661   1.02830   1.03799
 Alpha virt. eigenvalues --    1.04329   1.07067   1.08127   1.13370   1.15973
 Alpha virt. eigenvalues --    1.18376   1.31766   1.33272   1.35350   1.41376
 Alpha virt. eigenvalues --    1.43653   1.45580   1.55422   1.63723   1.64710
 Alpha virt. eigenvalues --    1.67112   1.78511   2.01075   2.03968   2.09124
 Alpha virt. eigenvalues --    2.18794   2.21411   2.32390   2.34820   2.39235
 Alpha virt. eigenvalues --    2.45411   2.49343   2.52674   2.58696   2.65540
 Alpha virt. eigenvalues --    2.70395   2.75669   2.79402   2.80010   2.87134
 Alpha virt. eigenvalues --    2.94749   3.00872   3.09676   3.23562   3.30870
 Alpha virt. eigenvalues --    3.47773   3.85469   4.08663   4.15597   4.39335
 Alpha virt. eigenvalues --    4.44862   4.69154
          Condensed to atoms (all electrons):
               1          2          3          4          5          6
     1  C    5.133971   0.190493  -0.140369   0.095661   0.226743   0.418723
     2  N    0.190493   7.131843  -0.204742   0.166901  -0.213488  -0.067799
     3  N   -0.140369  -0.204742   7.130161  -0.052889   0.277605   0.006349
     4  N    0.095661   0.166901  -0.052889   6.940314  -0.131414   0.002496
     5  N    0.226743  -0.213488   0.277605  -0.131414   7.147237  -0.037097
     6  H    0.418723  -0.067799   0.006349   0.002496  -0.037097   0.490309
     7  H   -0.004955   0.289474   0.001630  -0.001747   0.004096   0.002459
               7
     1  C   -0.004955
     2  N    0.289474
     3  N    0.001630
     4  N   -0.001747
     5  N    0.004096
     6  H    0.002459
     7  H    0.369910
 Mulliken charges:
               1
     1  C    0.079734
     2  N   -0.292680
     3  N   -0.017745
     4  N   -0.019322
     5  N   -0.273682
     6  H    0.184561
     7  H    0.339133
 Sum of Mulliken charges =   0.00000
 Mulliken charges with hydrogens summed into heavy atoms:
               1
     1  C    0.264296
     2  N    0.046453
     3  N   -0.017745
     4  N   -0.019322
     5  N   -0.273682
 Electronic spatial extent (au):  <R**2>=            246.1071
 Charge=              0.0000 electrons
 Dipole moment (field-independent basis, Debye):
    X=              2.6045    Y=              4.9158    Z=              0.0000  Tot=              5.5632
 Quadrupole moment (field-independent basis, Debye-Ang):
   XX=            -29.7313   YY=            -27.1888   ZZ=            -28.7929
   XY=              1.8884   XZ=              0.0000   YZ=              0.0000
 Traceless Quadrupole moment (field-independent basis, Debye-Ang):
   XX=             -1.1603   YY=              1.3822   ZZ=             -0.2219
   XY=              1.8884   XZ=              0.0000   YZ=              0.0000
 Octapole moment (field-independent basis, Debye-Ang**2):
  XXX=             12.6118  YYY=             23.3577  ZZZ=              0.0000  XYY=             -0.4758
  XXY=              4.9252  XXZ=              0.0000  XZZ=             -0.4859  YZZ=              0.7877
  YYZ=              0.0000  XYZ=              0.0000
 Hexadecapole moment (field-independent basis, Debye-Ang**3):
 XXXX=           -146.8683 YYYY=           -124.3754 ZZZZ=            -28.1050 XXXY=              7.1050
 XXXZ=              0.0000 YYYX=              0.0703 YYYZ=              0.0000 ZZZX=              0.0000
 ZZZY=              0.0000 XXYY=            -55.4136 XXZZ=            -31.6460 YYZZ=            -29.9958
 XXYZ=              0.0000 YYXZ=              0.0000 ZZXY=              0.0866
 N-N= 1.698308489506D+02 E-N=-9.413656928819D+02  KE= 2.567889804292D+02
 Symmetry A'   KE= 2.472984010592D+02
 Symmetry A"   KE= 9.490579369940D+00
 Calling FoFJK, ICntrl=  10002127 FMM=F ISym2X=1 I1Cent= 0 IOpClX= 0 NMat=1 NMatS=1 NMatT=0.
 ***** Axes restored to original set *****
 -------------------------------------------------------------------
 Center     Atomic                   Forces (Hartrees/Bohr)
 Number     Number              X              Y              Z
 -------------------------------------------------------------------
      1        6           0.030650414   -0.006366084    0.000000000
      2        7           0.012705940   -0.012392844    0.000000000
      3        7          -0.021793801   -0.051802497    0.000000000
      4        7          -0.031251566    0.043274032    0.000000000
      5        7          -0.001975925    0.039221000    0.000000000
      6        1           0.006646591    0.000860922    0.000000000
      7        1           0.005018346   -0.012794530    0.000000000
 -------------------------------------------------------------------
 Cartesian Forces:  Max     0.051802497 RMS     0.020792355
 -----------------------------------------------------------------------------------------------
                       Internal Coordinate Forces (Hartree/Bohr or radian)
  Cent   Atom   N1       Length/X         N2         Alpha/Y        N3         Beta/Z          J
 -----------------------------------------------------------------------------------------------
         X 
         X        1   0.000000(     1)
      1  C        1   0.037315(     2)      2   0.000000(     9)
      2  N        1   0.029430(     3)      2   0.000000(    10)      3  -0.021097(    16)     0
      3  N        1   0.052519(     4)      2   0.000000(    11)      3  -0.050489(    17)     0
      4  N        1   0.041067(     5)      2   0.000000(    12)      3   0.071824(    18)     0
      5  N        1   0.038791(     6)      2   0.000000(    13)      3  -0.010708(    19)     0
      6  H        3   0.006702(     7)      4  -0.000051(    14)      5   0.000000(    20)     0
      7  H        4   0.013743(     8)      5   0.000033(    15)      6   0.000000(    21)     0
 -----------------------------------------------------------------------------------------------
 Internal  Forces:  Max     0.071823980 RMS     0.028207939

 GradGradGradGradGradGradGradGradGradGradGradGradGradGradGradGradGradGrad
 Berny optimization.
 Search for a local minimum.
 Step number   1 out of a maximum of   22
 All quantities printed in internal units (Hartrees-Bohrs-Radians)
 Second derivative matrix not updated -- first step.
 The second derivative matrix:
                          rn1       rn2       rn3       rn4       rch
           rn1          0.65186
           rn2          0.01318   0.69869
           rn3          0.03472   0.07334   0.58262
           rn4          0.03688   0.02662   0.13967   0.63921
           rch          0.00000   0.00000   0.00000   0.00000   0.37510
           rnh          0.00000   0.00000   0.00000   0.00000   0.00000
           an1          0.02012  -0.75016   0.04258  -0.08486   0.00000
           an2          0.72119  -0.31234  -0.71865   0.05436   0.00000
           an3         -0.02914   1.04797   0.05412  -0.58583   0.00000
           an4          0.05328  -0.03228   0.65851  -0.10009   0.00000
           ach          0.04546   0.00000   0.00000   0.05066   0.00000
           anh         -0.10206   0.05276   0.00000   0.00000   0.00000
                          rnh       an1       an2       an3       an4
           rnh          0.48741
           an1          0.00000   4.53257
           an2          0.00000  -2.68051   6.02300
           an3          0.00000  -0.03573  -3.19618   4.47465
           an4          0.00000  -0.12258  -0.06592  -1.16042   2.58479
           ach          0.00000  -0.10460   0.00000   0.00000   0.07318
           anh          0.00000   0.03519  -0.09059   0.00000   0.00000
                          ach       anh
           ach          0.32000
           anh          0.00000   0.32000
 ITU=  0
     Eigenvalues ---    0.00000   0.13346   0.26445   0.33044   0.37510
     Eigenvalues ---    0.40158   0.48741   0.75609   1.20990   2.99509
     Eigenvalues ---    5.09563   9.64077
 RFO step:  Lambda=-9.85196829D-03 EMin=-6.95624114D-16
 Linear search not attempted -- first point.
 Variable       Old X    -DE/DX   Delta X   Delta X   Delta X     New X
                                 (Linear)    (Quad)   (Total)
   rn1        2.34817   0.02943   0.00000   0.02650   0.02650   2.37467
   rn2        2.51900   0.05252   0.00000   0.07064   0.07064   2.58964
   rn3        2.10629   0.04107   0.00000   0.08092   0.08092   2.18721
   rn4        1.75064   0.03879   0.00000   0.04222   0.04222   1.79286
   rch        2.01785   0.00670   0.00000   0.01741   0.01741   2.03526
   rnh        1.87858   0.01374   0.00000   0.02764   0.02764   1.90622
   an1        1.25389  -0.02110   0.00000   0.01257   0.01257   1.26646
   an2        2.33355  -0.05049   0.00000   0.01038   0.01038   2.34394
   an3        3.39396   0.07182   0.00000   0.00688   0.00688   3.40084
   an4        4.81845  -0.01071   0.00000  -0.01870  -0.01870   4.79974
   ach        2.18209  -0.00005   0.00000  -0.00215  -0.00215   2.17994
   anh        2.10770   0.00003   0.00000  -0.00149  -0.00149   2.10622
         Item               Value     Threshold  Converged?
 Maximum Force            0.071824     0.000450     NO 
 RMS     Force            0.035727     0.000300     NO 
 Maximum Displacement     0.080918     0.001800     NO 
 RMS     Displacement     0.036239     0.001200     NO 
 Predicted change in Energy=-5.003613D-03
 GradGradGradGradGradGradGradGradGradGradGradGradGradGradGradGradGradGrad

 ---------------------------------------------------------------------------------------------------
                            Z-MATRIX (ANGSTROMS AND DEGREES)
   CD    Cent   Atom    N1       Length/X        N2       Alpha/Y        N3        Beta/Z          J
 ---------------------------------------------------------------------------------------------------
      1         X 
      2         X        1   1.000000(     1)
      3      1  C        1   1.000000(     2)      2   90.000(     9)
      4      2  N        1   1.256622(     3)      2   90.000(    10)      3   72.563(    16)      0
      5      3  N        1   1.370380(     4)      2   90.000(    11)      3  134.298(    17)      0
      6      4  N        1   1.157420(     5)      2   90.000(    12)      3  194.854(    18)      0
      7      5  N        1   0.948741(     6)      2   90.000(    13)      3  275.005(    19)      0
      8      6  H        3   1.077013(     7)      4  124.901(    14)      5  180.000(    20)      0
      9      7  H        4   1.008726(     8)      5  120.677(    15)      6  180.000(    21)      0
 ---------------------------------------------------------------------------------------------------
                         Z-Matrix orientation:                         
 ---------------------------------------------------------------------
 Center     Atomic      Atomic             Coordinates (Angstroms)
 Number     Number       Type             X           Y           Z
 ---------------------------------------------------------------------
      1         -1           0        0.000000    0.000000    0.000000
      2         -1           0        0.000000    0.000000    1.000000
      3          6           0        1.000000    0.000000    0.000000
      4          7           0        0.376554   -1.198877    0.000000
      5          7           0       -0.957057   -0.980808    0.000000
      6          7           0       -1.118742    0.296712    0.000000
      7          7           0        0.082772    0.945123    0.000000
      8          1           0        2.067980    0.139196    0.000000
      9          1           0        0.744462   -2.138116    0.000000
 ---------------------------------------------------------------------
                    Distance matrix (angstroms):
                    1          2          3          4          5
     1  X    0.000000
     2  X    1.000000   0.000000
     3  C    1.000000   1.414214   0.000000
     4  N    1.256622   1.605957   1.351292   0.000000
     5  N    1.370380   1.696450   2.189076   1.351322   0.000000
     6  N    1.157420   1.529582   2.139417   2.114874   1.287711
     7  N    0.948741   1.378445   1.317029   2.164034   2.188711
     8  H    2.072660   2.301286   1.077013   2.156702   3.225718
     9  H    2.264015   2.475028   2.153333   1.008726   2.057797
                    6          7          8          9
     6  N    0.000000
     7  N    1.365311   0.000000
     8  H    3.190613   2.142561   0.000000
     9  H    3.065928   3.153443   2.633980   0.000000
 Stoichiometry    CH2N4
 Framework group  CS[SG(CH2N4)]
 Deg. of freedom    11
 Full point group                 CS      NOp   2
 Largest Abelian subgroup         CS      NOp   2
 Largest concise Abelian subgroup C1      NOp   1
                         Standard orientation:                         
 ---------------------------------------------------------------------
 Center     Atomic      Atomic             Coordinates (Angstroms)
 Number     Number       Type             X           Y           Z
 ---------------------------------------------------------------------
      1          6           0        1.070264    0.234536    0.000000
      2          7           0        0.000000    1.059476    0.000000
      3          7           0       -1.117828    0.300180    0.000000
      4          7           0       -0.726602   -0.926661    0.000000
      5          7           0        0.636229   -1.008918    0.000000
      6          1           0        2.097575    0.557937    0.000000
      7          1           0       -0.061745    2.066310    0.000000
 ---------------------------------------------------------------------
 Rotational constants (GHZ):     10.4712351     10.3436898      5.2035358
 Standard basis: 6-31+G(d,p) (6D, 7F)
 There are    78 symmetry adapted cartesian basis functions of A'  symmetry.
 There are    27 symmetry adapted cartesian basis functions of A"  symmetry.
 There are    78 symmetry adapted basis functions of A'  symmetry.
 There are    27 symmetry adapted basis functions of A"  symmetry.
   105 basis functions,   174 primitive gaussians,   105 cartesian basis functions
    18 alpha electrons       18 beta electrons
       nuclear repulsion energy       166.5049305269 Hartrees.
 NAtoms=    7 NActive=    7 NUniq=    7 SFac= 1.00D+00 NAtFMM=   60 NAOKFM=F Big=F
 Integral buffers will be    131072 words long.
 Regular integral format.
 Two-electron integral symmetry is turned on.
 One-electron integrals computed using PRISM.
 NBasis=   105 RedAO= T EigKep=  1.03D-04  NBF=    78    27
 NBsUse=   105 1.00D-06 EigRej= -1.00D+00 NBFU=    78    27
 Initial guess from the checkpoint file:  "/tmp/rdj3/g09-23219/Gau-8042.chk"
 B after Tr=     0.000000    0.000000    0.000000
         Rot=    1.000000    0.000000    0.000000   -0.000961 Ang=  -0.11 deg.
 Initial guess orbital symmetries:
       Occupied  (A') (A') (A') (A') (A') (A') (A') (A') (A') (A')
                 (A') (A") (A') (A') (A") (A') (A") (A')
       Virtual   (A') (A') (A') (A') (A') (A') (A') (A') (A') (A')
                 (A') (A') (A') (A') (A') (A') (A') (A') (A') (A')
                 (A') (A') (A') (A') (A') (A') (A') (A') (A') (A')
                 (A') (A') (A') (A') (A') (A') (A') (A') (A') (A')
                 (A') (A') (A') (A') (A') (A') (A') (A') (A') (A')
                 (A') (A') (A') (A') (A') (A') (A') (A') (A') (A')
                 (A') (A') (A') (A") (A") (A") (A") (A") (A") (A")
                 (A") (A") (A") (A") (A") (A") (A") (A") (A") (A")
                 (A") (A") (A") (A") (A") (A") (A")
 ExpMin= 4.38D-02 ExpMax= 4.17D+03 ExpMxC= 6.27D+02 IAcc=2 IRadAn=         4 AccDes= 0.00D+00
 Harris functional with IExCor=  419 and IRadAn=       4 diagonalized for initial guess.
 HarFok:  IExCor=  419 AccDes= 0.00D+00 IRadAn=         4 IDoV= 1 UseB2=F ITyADJ=14
 ICtDFT=  3500011 ScaDFX=  1.000000  1.000000  1.000000  1.000000
 FoFCou: FMM=F IPFlag=           0 FMFlag=      100000 FMFlg1=           0
         NFxFlg=           0 DoJE=T BraDBF=F KetDBF=T FulRan=T
         wScrn=  0.000000 ICntrl=     500 IOpCl=  0 I1Cent=   200000004 NGrid=           0
         NMat0=    1 NMatS0=      1 NMatT0=    0 NMatD0=    1 NMtDS0=    0 NMtDT0=    0
 Petite list used in FoFCou.
 Keep R1 ints in memory in symmetry-blocked form, NReq=23756016.
 Requested convergence on RMS density matrix=1.00D-08 within 128 cycles.
 Requested convergence on MAX density matrix=1.00D-06.
 Requested convergence on             energy=1.00D-06.
 No special actions if energy rises.
 SCF Done:  E(RB2PLYP) =  -257.762076913     A.U. after   12 cycles
            NFock= 12  Conv=0.55D-08     -V/T= 2.0071
 DoSCS=T DFT=T ScalE2(SS,OS)=  0.270000  0.270000
 ExpMin= 4.38D-02 ExpMax= 4.17D+03 ExpMxC= 6.27D+02 IAcc=3 IRadAn=         5 AccDes= 0.00D+00
 HarFok:  IExCor=  205 AccDes= 0.00D+00 IRadAn=         5 IDoV=-2 UseB2=F ITyADJ=14
 ICtDFT= 12500011 ScaDFX=  1.000000  1.000000  1.000000  1.000000
 Range of M.O.s used for correlation:     6   105
 NBasis=   105 NAE=    18 NBE=    18 NFC=     5 NFV=     0
 NROrb=    100 NOA=    13 NOB=    13 NVA=    87 NVB=    87

 **** Warning!!: The largest alpha MO coefficient is  0.50689469D+02

 DoSCS=T DFT=T ScalE2(SS,OS)=  0.270000  0.270000
 Fully direct method using O(ONN) memory.
 JobTyp=1 Pass  1:  I=   6 to  18 NPSUse=  8 ParTrn=T ParDer=T DoDerP=T.
 Spin components of T(2) and E(2):
     alpha-alpha T2 =       0.6289764195D-01 E2=     -0.3772794781D-01
     alpha-beta  T2 =       0.3167821754D+00 E2=     -0.1946438286D+00
     beta-beta   T2 =       0.6289764195D-01 E2=     -0.3772794781D-01
 E2(B2PLYP) =    -0.2700997242D+00 E(B2PLYP) =    -0.25803217663770D+03
          IDoAtm=1111111
          Differentiating once with respect to electric field.
                with respect to dipole field.
          Differentiating once with respect to nuclear coordinates.
 Keep R1 ints in memory in symmetry-blocked form, NReq=23703984.
          There are     1 degrees of freedom in the 1st order CPHF.  IDoFFX=0 NUNeed=     1.
 LinEq1:  Iter=  0 NonCon=     1 RMS=2.97D-03 Max=3.46D-02 NDo=     1
 AX will form     1 AO Fock derivatives at one time.
 LinEq1:  Iter=  1 NonCon=     1 RMS=7.11D-04 Max=8.90D-03 NDo=     1
 LinEq1:  Iter=  2 NonCon=     1 RMS=3.35D-04 Max=6.56D-03 NDo=     1
 LinEq1:  Iter=  3 NonCon=     1 RMS=1.66D-04 Max=2.61D-03 NDo=     1
 LinEq1:  Iter=  4 NonCon=     1 RMS=6.74D-05 Max=1.22D-03 NDo=     1
 LinEq1:  Iter=  5 NonCon=     1 RMS=4.11D-05 Max=6.50D-04 NDo=     1
 LinEq1:  Iter=  6 NonCon=     1 RMS=1.78D-05 Max=2.61D-04 NDo=     1
 LinEq1:  Iter=  7 NonCon=     1 RMS=1.03D-05 Max=1.18D-04 NDo=     1
 LinEq1:  Iter=  8 NonCon=     1 RMS=3.17D-06 Max=3.09D-05 NDo=     1
 LinEq1:  Iter=  9 NonCon=     1 RMS=6.76D-07 Max=4.89D-06 NDo=     1
 LinEq1:  Iter= 10 NonCon=     1 RMS=5.48D-07 Max=9.05D-06 NDo=     1
 LinEq1:  Iter= 11 NonCon=     1 RMS=1.29D-07 Max=1.31D-06 NDo=     1
 LinEq1:  Iter= 12 NonCon=     1 RMS=1.99D-08 Max=1.67D-07 NDo=     1
 LinEq1:  Iter= 13 NonCon=     1 RMS=3.47D-09 Max=3.16D-08 NDo=     1
 LinEq1:  Iter= 14 NonCon=     1 RMS=6.85D-10 Max=5.77D-09 NDo=     1
 LinEq1:  Iter= 15 NonCon=     1 RMS=1.14D-10 Max=6.90D-10 NDo=     1
 LinEq1:  Iter= 16 NonCon=     0 RMS=2.32D-11 Max=2.20D-10 NDo=     1
 Linear equations converged to 1.000D-10 1.000D-09 after    16 iterations.
 End of Minotr F.D. properties file   721 does not exist.
 End of Minotr F.D. properties file   722 does not exist.
 End of Minotr F.D. properties file   788 does not exist.
 Calling FoFJK, ICntrl=  10002127 FMM=F ISym2X=1 I1Cent= 0 IOpClX= 0 NMat=1 NMatS=1 NMatT=0.
 ***** Axes restored to original set *****
 -------------------------------------------------------------------
 Center     Atomic                   Forces (Hartrees/Bohr)
 Number     Number              X              Y              Z
 -------------------------------------------------------------------
      1        6           0.001732471   -0.003033006    0.000000000
      2        7           0.002938113    0.004285340    0.000000000
      3        7          -0.004139053   -0.012559614    0.000000000
      4        7          -0.001766344    0.007831645    0.000000000
      5        7           0.001878610    0.003533937    0.000000000
      6        1          -0.000421796    0.000107781    0.000000000
      7        1          -0.000222001   -0.000166084    0.000000000
 -------------------------------------------------------------------
 Cartesian Forces:  Max     0.012559614 RMS     0.003746820
 -----------------------------------------------------------------------------------------------
                       Internal Coordinate Forces (Hartree/Bohr or radian)
  Cent   Atom   N1       Length/X         N2         Alpha/Y        N3         Beta/Z          J
 -----------------------------------------------------------------------------------------------
         X 
         X        1   0.000000(     1)
      1  C        1   0.001197(     2)      2   0.000000(     9)
      2  N        1  -0.002847(     3)      2   0.000000(    10)      3  -0.009088(    16)     0
      3  N        1   0.011716(     4)      2   0.000000(    11)      3  -0.014747(    17)     0
      4  N        1   0.003715(     5)      2   0.000000(    12)      3   0.015567(    18)     0
      5  N        1   0.003684(     6)      2   0.000000(    13)      3   0.002802(    19)     0
      6  H        3  -0.000404(     7)      4   0.000328(    14)      5   0.000000(    20)     0
      7  H        4   0.000074(     8)      5  -0.000509(    15)      6   0.000000(    21)     0
 -----------------------------------------------------------------------------------------------
 Internal  Forces:  Max     0.015566611 RMS     0.005875542

 GradGradGradGradGradGradGradGradGradGradGradGradGradGradGradGradGradGrad
 Berny optimization.
 Search for a local minimum.
 Step number   2 out of a maximum of   22
 All quantities printed in internal units (Hartrees-Bohrs-Radians)
 Update second derivatives using D2CorN and points    1    2
 DE= -5.27D-03 DEPred=-5.00D-03 R= 1.05D+00
 TightC=F SS=  1.41D+00  RLast= 1.26D-01 DXNew= 5.0454D-01 3.7661D-01
 Trust test= 1.05D+00 RLast= 1.26D-01 DXMaxT set to 3.77D-01
 The second derivative matrix:
                          rn1       rn2       rn3       rn4       rch
           rn1          0.65709
           rn2          0.01088   0.64929
           rn3          0.04025   0.03851   0.56764
           rn4          0.03830   0.00453   0.12737   0.63046
           rch          0.00220  -0.00480  -0.00013  -0.00103   0.37573
           rnh          0.00289  -0.00922  -0.00205  -0.00260   0.00061
           an1          0.02910  -0.73392   0.06507  -0.07382   0.00532
           an2          0.73470  -0.28269  -0.68149   0.07317   0.00839
           an3         -0.04149   1.01083   0.01369  -0.60730  -0.00844
           an4          0.04893  -0.03243   0.65257  -0.10215  -0.00199
           ach          0.04496  -0.00003  -0.00070   0.05041  -0.00023
           anh         -0.10179   0.05438   0.00141   0.00082   0.00025
                          rnh       an1       an2       an3       an4
           rnh          0.48776
           an1          0.00816   4.53992
           an2          0.01309  -2.67155   6.03279
           an3         -0.01355  -0.03991  -3.19805   4.46789
           an4         -0.00274  -0.12924  -0.07572  -1.15188   2.58833
           ach         -0.00032  -0.10536  -0.00113   0.00098   0.07359
           anh          0.00042   0.03495  -0.09113   0.00084  -0.00015
                          ach       anh
           ach          0.32005
           anh         -0.00002   0.31995
 ITU=  1  0
     Eigenvalues ---    0.00000   0.12928   0.26659   0.33076   0.37562
     Eigenvalues ---    0.39324   0.48777   0.73719   1.20957   2.98975
     Eigenvalues ---    5.08315   9.63398
 RFO step:  Lambda=-1.99505254D-04 EMin= 3.77922158D-06
 Quartic linear search produced a step of  0.12585.
 Variable       Old X    -DE/DX   Delta X   Delta X   Delta X     New X
                                 (Linear)    (Quad)   (Total)
   rn1        2.37467  -0.00285   0.00333  -0.07392  -0.07058   2.30409
   rn2        2.58964   0.01172   0.00889  -0.03302  -0.02413   2.56551
   rn3        2.18721   0.00372   0.01018   0.01201   0.02219   2.20940
   rn4        1.79286   0.00368   0.00531   0.06561   0.07092   1.86379
   rch        2.03526  -0.00040   0.00219  -0.00282  -0.00063   2.03463
   rnh        1.90622   0.00007   0.00348  -0.00259   0.00089   1.90710
   an1        1.26646  -0.00909   0.00158   0.02691   0.02849   1.29496
   an2        2.34394  -0.01475   0.00131   0.05249   0.05380   2.39774
   an3        3.40084   0.01557   0.00087   0.06402   0.06488   3.46573
   an4        4.79974   0.00280  -0.00235   0.03352   0.03117   4.83091
   ach        2.17994   0.00033  -0.00027   0.00233   0.00206   2.18200
   anh        2.10622  -0.00051  -0.00019  -0.00810  -0.00828   2.09793
         Item               Value     Threshold  Converged?
 Maximum Force            0.015567     0.000450     NO 
 RMS     Force            0.007765     0.000300     NO 
 Maximum Displacement     0.070925     0.001800     NO 
 RMS     Displacement     0.040874     0.001200     NO 
 Predicted change in Energy=-1.442957D-04
 GradGradGradGradGradGradGradGradGradGradGradGradGradGradGradGradGradGrad

 ---------------------------------------------------------------------------------------------------
                            Z-MATRIX (ANGSTROMS AND DEGREES)
   CD    Cent   Atom    N1       Length/X        N2       Alpha/Y        N3        Beta/Z          J
 ---------------------------------------------------------------------------------------------------
      1         X 
      2         X        1   1.000000(     1)
      3      1  C        1   1.000000(     2)      2   90.000(     9)
      4      2  N        1   1.219272(     3)      2   90.000(    10)      3   74.196(    16)      0
      5      3  N        1   1.357611(     4)      2   90.000(    11)      3  137.380(    17)      0
      6      4  N        1   1.169163(     5)      2   90.000(    12)      3  198.572(    18)      0
      7      5  N        1   0.986273(     6)      2   90.000(    13)      3  276.791(    19)      0
      8      6  H        3   1.076680(     7)      4  125.019(    14)      5  180.000(    20)      0
      9      7  H        4   1.009194(     8)      5  120.203(    15)      6  180.000(    21)      0
 ---------------------------------------------------------------------------------------------------
                         Z-Matrix orientation:                         
 ---------------------------------------------------------------------
 Center     Atomic      Atomic             Coordinates (Angstroms)
 Number     Number       Type             X           Y           Z
 ---------------------------------------------------------------------
      1         -1           0        0.000000    0.000000    0.000000
      2         -1           0        0.000000    0.000000    1.000000
      3          6           0        1.000000    0.000000    0.000000
      4          7           0        0.332071   -1.173180    0.000000
      5          7           0       -0.999015   -0.919280    0.000000
      6          7           0       -1.108281    0.372364    0.000000
      7          7           0        0.116624    0.979353    0.000000
      8          1           0        2.071964    0.100671    0.000000
      9          1           0        0.667345   -2.125054    0.000000
 ---------------------------------------------------------------------
                    Distance matrix (angstroms):
                    1          2          3          4          5
     1  X    0.000000
     2  X    1.000000   0.000000
     3  C    1.000000   1.414214   0.000000
     4  N    1.219272   1.576903   1.349993   0.000000
     5  N    1.357611   1.686152   2.200259   1.355086   0.000000
     6  N    1.169163   1.538487   2.140912   2.112658   1.296257
     7  N    0.986273   1.404541   1.318896   2.163289   2.202149
     8  H    2.074408   2.302861   1.076680   2.156368   3.235925
     9  H    2.227376   2.441558   2.150934   1.009194   2.056854
                    6          7          8          9
     6  N    0.000000
     7  N    1.367051   0.000000
     8  H    3.191829   2.143697   0.000000
     9  H    3.064302   3.152878   2.631882   0.000000
 Stoichiometry    CH2N4
 Framework group  CS[SG(CH2N4)]
 Deg. of freedom    11
 Full point group                 CS      NOp   2
 Largest Abelian subgroup         CS      NOp   2
 Largest concise Abelian subgroup C1      NOp   1
                         Standard orientation:                         
 ---------------------------------------------------------------------
 Center     Atomic      Atomic             Coordinates (Angstroms)
 Number     Number       Type             X           Y           Z
 ---------------------------------------------------------------------
      1          6           0        1.072402    0.236462    0.000000
      2          7           0        0.000000    1.056483    0.000000
      3          7           0       -1.126826    0.303807    0.000000
      4          7           0       -0.723964   -0.928259    0.000000
      5          7           0        0.640655   -1.009765    0.000000
      6          1           0        2.098814    0.561607    0.000000
      7          1           0       -0.062288    2.063753    0.000000
 ---------------------------------------------------------------------
 Rotational constants (GHZ):     10.4768580     10.2584031      5.1832399
 Standard basis: 6-31+G(d,p) (6D, 7F)
 There are    78 symmetry adapted cartesian basis functions of A'  symmetry.
 There are    27 symmetry adapted cartesian basis functions of A"  symmetry.
 There are    78 symmetry adapted basis functions of A'  symmetry.
 There are    27 symmetry adapted basis functions of A"  symmetry.
   105 basis functions,   174 primitive gaussians,   105 cartesian basis functions
    18 alpha electrons       18 beta electrons
       nuclear repulsion energy       166.1704561228 Hartrees.
 NAtoms=    7 NActive=    7 NUniq=    7 SFac= 1.00D+00 NAtFMM=   60 NAOKFM=F Big=F
 Integral buffers will be    131072 words long.
 Regular integral format.
 Two-electron integral symmetry is turned on.
 One-electron integrals computed using PRISM.
 NBasis=   105 RedAO= T EigKep=  1.06D-04  NBF=    78    27
 NBsUse=   105 1.00D-06 EigRej= -1.00D+00 NBFU=    78    27
 Initial guess from the checkpoint file:  "/tmp/rdj3/g09-23219/Gau-8042.chk"
 B after Tr=     0.000000    0.000000    0.000000
         Rot=    1.000000    0.000000    0.000000   -0.000573 Ang=  -0.07 deg.
 Initial guess orbital symmetries:
       Occupied  (A') (A') (A') (A') (A') (A') (A') (A') (A') (A')
                 (A') (A') (A") (A') (A") (A') (A') (A")
       Virtual   (A') (A') (A') (A') (A') (A') (A') (A') (A') (A')
                 (A') (A') (A') (A') (A') (A') (A') (A') (A') (A')
                 (A') (A') (A') (A') (A') (A') (A') (A') (A') (A')
                 (A') (A') (A') (A') (A') (A') (A') (A') (A') (A')
                 (A') (A') (A') (A') (A') (A') (A') (A') (A') (A')
                 (A') (A') (A') (A') (A') (A') (A') (A') (A') (A')
                 (A') (A') (A') (A") (A") (A") (A") (A") (A") (A")
                 (A") (A") (A") (A") (A") (A") (A") (A") (A") (A")
                 (A") (A") (A") (A") (A") (A") (A")
 ExpMin= 4.38D-02 ExpMax= 4.17D+03 ExpMxC= 6.27D+02 IAcc=2 IRadAn=         4 AccDes= 0.00D+00
 Harris functional with IExCor=  419 and IRadAn=       4 diagonalized for initial guess.
 HarFok:  IExCor=  419 AccDes= 0.00D+00 IRadAn=         4 IDoV= 1 UseB2=F ITyADJ=14
 ICtDFT=  3500011 ScaDFX=  1.000000  1.000000  1.000000  1.000000
 FoFCou: FMM=F IPFlag=           0 FMFlag=      100000 FMFlg1=           0
         NFxFlg=           0 DoJE=T BraDBF=F KetDBF=T FulRan=T
         wScrn=  0.000000 ICntrl=     500 IOpCl=  0 I1Cent=   200000004 NGrid=           0
         NMat0=    1 NMatS0=      1 NMatT0=    0 NMatD0=    1 NMtDS0=    0 NMtDT0=    0
 Petite list used in FoFCou.
 Keep R1 ints in memory in symmetry-blocked form, NReq=23756016.
 Requested convergence on RMS density matrix=1.00D-08 within 128 cycles.
 Requested convergence on MAX density matrix=1.00D-06.
 Requested convergence on             energy=1.00D-06.
 No special actions if energy rises.
 SCF Done:  E(RB2PLYP) =  -257.761472132     A.U. after   11 cycles
            NFock= 11  Conv=0.30D-08     -V/T= 2.0072
 DoSCS=T DFT=T ScalE2(SS,OS)=  0.270000  0.270000
 ExpMin= 4.38D-02 ExpMax= 4.17D+03 ExpMxC= 6.27D+02 IAcc=3 IRadAn=         5 AccDes= 0.00D+00
 HarFok:  IExCor=  205 AccDes= 0.00D+00 IRadAn=         5 IDoV=-2 UseB2=F ITyADJ=14
 ICtDFT= 12500011 ScaDFX=  1.000000  1.000000  1.000000  1.000000
 Range of M.O.s used for correlation:     6   105
 NBasis=   105 NAE=    18 NBE=    18 NFC=     5 NFV=     0
 NROrb=    100 NOA=    13 NOB=    13 NVA=    87 NVB=    87

 **** Warning!!: The largest alpha MO coefficient is  0.51787043D+02

 DoSCS=T DFT=T ScalE2(SS,OS)=  0.270000  0.270000
 Fully direct method using O(ONN) memory.
 JobTyp=1 Pass  1:  I=   6 to  18 NPSUse=  8 ParTrn=T ParDer=T DoDerP=T.
 Spin components of T(2) and E(2):
     alpha-alpha T2 =       0.6336435568D-01 E2=     -0.3783504796D-01
     alpha-beta  T2 =       0.3190785619D+00 E2=     -0.1951736762D+00
     beta-beta   T2 =       0.6336435568D-01 E2=     -0.3783504796D-01
 E2(B2PLYP) =    -0.2708437721D+00 E(B2PLYP) =    -0.25803231590392D+03
          IDoAtm=1111111
          Differentiating once with respect to electric field.
                with respect to dipole field.
          Differentiating once with respect to nuclear coordinates.
 Keep R1 ints in memory in symmetry-blocked form, NReq=23703984.
          There are     1 degrees of freedom in the 1st order CPHF.  IDoFFX=0 NUNeed=     1.
 LinEq1:  Iter=  0 NonCon=     1 RMS=2.98D-03 Max=3.46D-02 NDo=     1
 AX will form     1 AO Fock derivatives at one time.
 LinEq1:  Iter=  1 NonCon=     1 RMS=7.14D-04 Max=8.63D-03 NDo=     1
 LinEq1:  Iter=  2 NonCon=     1 RMS=3.40D-04 Max=6.92D-03 NDo=     1
 LinEq1:  Iter=  3 NonCon=     1 RMS=1.67D-04 Max=2.39D-03 NDo=     1
 LinEq1:  Iter=  4 NonCon=     1 RMS=6.55D-05 Max=1.00D-03 NDo=     1
 LinEq1:  Iter=  5 NonCon=     1 RMS=3.58D-05 Max=4.24D-04 NDo=     1
 LinEq1:  Iter=  6 NonCon=     1 RMS=1.47D-05 Max=1.97D-04 NDo=     1
 LinEq1:  Iter=  7 NonCon=     1 RMS=8.12D-06 Max=9.50D-05 NDo=     1
 LinEq1:  Iter=  8 NonCon=     1 RMS=3.31D-06 Max=3.67D-05 NDo=     1
 LinEq1:  Iter=  9 NonCon=     1 RMS=8.18D-07 Max=5.69D-06 NDo=     1
 LinEq1:  Iter= 10 NonCon=     1 RMS=6.62D-07 Max=9.89D-06 NDo=     1
 LinEq1:  Iter= 11 NonCon=     1 RMS=1.39D-07 Max=1.42D-06 NDo=     1
 LinEq1:  Iter= 12 NonCon=     1 RMS=2.23D-08 Max=1.97D-07 NDo=     1
 LinEq1:  Iter= 13 NonCon=     1 RMS=3.94D-09 Max=3.32D-08 NDo=     1
 LinEq1:  Iter= 14 NonCon=     1 RMS=7.67D-10 Max=5.56D-09 NDo=     1
 LinEq1:  Iter= 15 NonCon=     1 RMS=1.27D-10 Max=7.47D-10 NDo=     1
 LinEq1:  Iter= 16 NonCon=     0 RMS=2.61D-11 Max=2.76D-10 NDo=     1
 Linear equations converged to 1.000D-10 1.000D-09 after    16 iterations.
 End of Minotr F.D. properties file   721 does not exist.
 End of Minotr F.D. properties file   722 does not exist.
 End of Minotr F.D. properties file   788 does not exist.
 Calling FoFJK, ICntrl=  10002127 FMM=F ISym2X=1 I1Cent= 0 IOpClX= 0 NMat=1 NMatS=1 NMatT=0.
 ***** Axes restored to original set *****
 -------------------------------------------------------------------
 Center     Atomic                   Forces (Hartrees/Bohr)
 Number     Number              X              Y              Z
 -------------------------------------------------------------------
      1        6          -0.001236544   -0.002320497    0.000000000
      2        7           0.001565001   -0.000598214    0.000000000
      3        7           0.002587721   -0.000703021    0.000000000
      4        7          -0.002612286    0.003708087    0.000000000
      5        7          -0.000386618   -0.000160180    0.000000000
      6        1          -0.000149503   -0.000109188    0.000000000
      7        1           0.000232228    0.000183013    0.000000000
 -------------------------------------------------------------------
 Cartesian Forces:  Max     0.003708087 RMS     0.001341324
 -----------------------------------------------------------------------------------------------
                       Internal Coordinate Forces (Hartree/Bohr or radian)
  Cent   Atom   N1       Length/X         N2         Alpha/Y        N3         Beta/Z          J
 -----------------------------------------------------------------------------------------------
         X 
         X        1   0.000000(     1)
      1  C        1  -0.001320(     2)      2   0.000000(     9)
      2  N        1   0.000649(     3)      2   0.000000(    10)      3  -0.003817(    16)     0
      3  N        1  -0.001261(     4)      2   0.000000(    11)      3  -0.006141(    17)     0
      4  N        1   0.003657(     5)      2   0.000000(    12)      3   0.005928(    18)     0
      5  N        1  -0.000205(     6)      2   0.000000(    13)      3  -0.000680(    19)     0
      6  H        3  -0.000159(     7)      4  -0.000193(    14)      5   0.000000(    20)     0
      7  H        4  -0.000095(     8)      5   0.000534(    15)      6   0.000000(    21)     0
 -----------------------------------------------------------------------------------------------
 Internal  Forces:  Max     0.006141207 RMS     0.002240454

 GradGradGradGradGradGradGradGradGradGradGradGradGradGradGradGradGradGrad
 Berny optimization.
 Search for a local minimum.
 Step number   3 out of a maximum of   22
 All quantities printed in internal units (Hartrees-Bohrs-Radians)
 Update second derivatives using D2CorN and points    1    2    3
 DE= -1.39D-04 DEPred=-1.44D-04 R= 9.65D-01
 TightC=F SS=  1.41D+00  RLast= 1.42D-01 DXNew= 6.3337D-01 4.2478D-01
 Trust test= 9.65D-01 RLast= 1.42D-01 DXMaxT set to 4.25D-01
 The second derivative matrix:
                          rn1       rn2       rn3       rn4       rch
           rn1          0.65911
           rn2          0.01223   0.64384
           rn3          0.04924   0.03461   0.55507
           rn4          0.03887   0.00139   0.11603   0.62896
           rch          0.00228  -0.00496   0.00023  -0.00014   0.37610
           rnh          0.00339  -0.00981  -0.00244  -0.00207   0.00110
           an1          0.02084  -0.73047   0.07405  -0.05768   0.00762
           an2          0.72108  -0.27699  -0.66776   0.09907   0.01200
           an3         -0.02876   1.00300  -0.01484  -0.63329  -0.01084
           an4          0.04737  -0.03342   0.64833  -0.10241  -0.00225
           ach          0.04458  -0.00011  -0.00081   0.05069  -0.00025
           anh         -0.10085   0.05464   0.00187  -0.00029   0.00011
                          rnh       an1       an2       an3       an4
           rnh          0.48833
           an1          0.01179   4.55208
           an2          0.01880  -2.65188   6.06465
           an3         -0.01841  -0.03808  -3.19535   4.43263
           an4         -0.00326  -0.12640  -0.07087  -1.15601   2.58943
           ach         -0.00035  -0.10517  -0.00077   0.00112   0.07378
           anh          0.00026   0.03298  -0.09437   0.00225  -0.00056
                          ach       anh
           ach          0.32007
           anh         -0.00007   0.32020
 ITU=  1  1  0
     Eigenvalues ---   -0.00067   0.13209   0.26910   0.33031   0.37605
     Eigenvalues ---    0.39667   0.48819   0.73336   1.20931   2.98732
     Eigenvalues ---    5.07784   9.63089
 RFO step:  Lambda=-8.36235479D-04 EMin=-6.72331646D-04
 Quartic linear search produced a step of -0.08883.
 Maximum step size (   0.425) exceeded in Quadratic search.
    -- Step size scaled by   0.425
 Variable       Old X    -DE/DX   Delta X   Delta X   Delta X     New X
                                 (Linear)    (Quad)   (Total)
   rn1        2.30409   0.00065   0.00627  -0.18101  -0.17474   2.12935
   rn2        2.56551  -0.00126   0.00214  -0.16286  -0.16072   2.40479
   rn3        2.20940   0.00366  -0.00197   0.06448   0.06250   2.27190
   rn4        1.86379  -0.00020  -0.00630   0.19866   0.19236   2.05614
   rch        2.03463  -0.00016   0.00006  -0.00127  -0.00121   2.03342
   rnh        1.90710  -0.00010  -0.00008  -0.00041  -0.00049   1.90661
   an1        1.29496  -0.00382  -0.00253   0.07011   0.06758   1.36254
   an2        2.39774  -0.00614  -0.00478   0.15507   0.15029   2.54803
   an3        3.46573   0.00593  -0.00576   0.20080   0.19504   3.66076
   an4        4.83091  -0.00068  -0.00277   0.09026   0.08749   4.91841
   ach        2.18200  -0.00019  -0.00018  -0.00442  -0.00461   2.17739
   anh        2.09793   0.00053   0.00074   0.00837   0.00911   2.10704
         Item               Value     Threshold  Converged?
 Maximum Force            0.006141     0.000450     NO 
 RMS     Force            0.002939     0.000300     NO 
 Maximum Displacement     0.195036     0.001800     NO 
 RMS     Displacement     0.119104     0.001200     NO 
 Predicted change in Energy=-2.480763D-04
 GradGradGradGradGradGradGradGradGradGradGradGradGradGradGradGradGradGrad

 ---------------------------------------------------------------------------------------------------
                            Z-MATRIX (ANGSTROMS AND DEGREES)
   CD    Cent   Atom    N1       Length/X        N2       Alpha/Y        N3        Beta/Z          J
 ---------------------------------------------------------------------------------------------------
      1         X 
      2         X        1   1.000000(     1)
      3      1  C        1   1.000000(     2)      2   90.000(     9)
      4      2  N        1   1.126801(     3)      2   90.000(    10)      3   78.068(    16)      0
      5      3  N        1   1.272561(     4)      2   90.000(    11)      3  145.991(    17)      0
      6      4  N        1   1.202239(     5)      2   90.000(    12)      3  209.746(    18)      0
      7      5  N        1   1.088065(     6)      2   90.000(    13)      3  281.804(    19)      0
      8      6  H        3   1.076039(     7)      4  124.755(    14)      5  180.000(    20)      0
      9      7  H        4   1.008933(     8)      5  120.725(    15)      6  180.000(    21)      0
 ---------------------------------------------------------------------------------------------------
                         Z-Matrix orientation:                         
 ---------------------------------------------------------------------
 Center     Atomic      Atomic             Coordinates (Angstroms)
 Number     Number       Type             X           Y           Z
 ---------------------------------------------------------------------
      1         -1           0        0.000000    0.000000    0.000000
      2         -1           0        0.000000    0.000000    1.000000
      3          6           0        1.000000    0.000000    0.000000
      4          7           0        0.232970   -1.102455    0.000000
      5          7           0       -1.054893   -0.711767    0.000000
      6          7           0       -1.043821    0.596503    0.000000
      7          7           0        0.222579    1.065055    0.000000
      8          1           0        2.076038   -0.001366    0.000000
      9          1           0        0.474469   -2.082058    0.000000
 ---------------------------------------------------------------------
                    Distance matrix (angstroms):
                    1          2          3          4          5
     1  X    0.000000
     2  X    1.000000   0.000000
     3  C    1.000000   1.414214   0.000000
     4  N    1.126801   1.506546   1.343034   0.000000
     5  N    1.272561   1.618460   2.174672   1.345818   0.000000
     6  N    1.202239   1.563770   2.129089   2.125241   1.308317
     7  N    1.088065   1.477797   1.318608   2.167535   2.188386
     8  H    2.076039   2.304330   1.076039   2.146927   3.210514
     9  H    2.135436   2.357984   2.147359   1.008933   2.053447
                    6          7          8          9
     6  N    0.000000
     7  N    1.350300   0.000000
     8  H    3.176629   2.138356   0.000000
     9  H    3.078944   3.157178   2.625701   0.000000
 Stoichiometry    CH2N4
 Framework group  CS[SG(CH2N4)]
 Deg. of freedom    11
 Full point group                 CS      NOp   2
 Largest Abelian subgroup         CS      NOp   2
 Largest concise Abelian subgroup C1      NOp   1
                         Standard orientation:                         
 ---------------------------------------------------------------------
 Center     Atomic      Atomic             Coordinates (Angstroms)
 Number     Number       Type             X           Y           Z
 ---------------------------------------------------------------------
      1          6           0        1.059324    0.237070    0.000000
      2          7           0        0.000000    1.062646    0.000000
      3          7           0       -1.114198    0.307801    0.000000
      4          7           0       -0.715862   -0.938402    0.000000
      5          7           0        0.632510   -1.010550    0.000000
      6          1           0        2.086607    0.557305    0.000000
      7          1           0       -0.059700    2.069811    0.000000
 ---------------------------------------------------------------------
 Rotational constants (GHZ):     10.5623736     10.2943415      5.2133176
 Standard basis: 6-31+G(d,p) (6D, 7F)
 There are    78 symmetry adapted cartesian basis functions of A'  symmetry.
 There are    27 symmetry adapted cartesian basis functions of A"  symmetry.
 There are    78 symmetry adapted basis functions of A'  symmetry.
 There are    27 symmetry adapted basis functions of A"  symmetry.
   105 basis functions,   174 primitive gaussians,   105 cartesian basis functions
    18 alpha electrons       18 beta electrons
       nuclear repulsion energy       166.6242769441 Hartrees.
 NAtoms=    7 NActive=    7 NUniq=    7 SFac= 1.00D+00 NAtFMM=   60 NAOKFM=F Big=F
 Integral buffers will be    131072 words long.
 Regular integral format.
 Two-electron integral symmetry is turned on.
 One-electron integrals computed using PRISM.
 NBasis=   105 RedAO= T EigKep=  1.04D-04  NBF=    78    27
 NBsUse=   105 1.00D-06 EigRej= -1.00D+00 NBFU=    78    27
 Initial guess from the checkpoint file:  "/tmp/rdj3/g09-23219/Gau-8042.chk"
 B after Tr=     0.000000    0.000000    0.000000
         Rot=    1.000000    0.000000    0.000000    0.000008 Ang=   0.00 deg.
 Initial guess orbital symmetries:
       Occupied  (A') (A') (A') (A') (A') (A') (A') (A') (A') (A')
                 (A') (A') (A") (A') (A") (A') (A') (A")
       Virtual   (A') (A') (A') (A') (A') (A') (A') (A') (A') (A')
                 (A') (A') (A') (A') (A') (A') (A') (A') (A') (A')
                 (A') (A') (A') (A') (A') (A') (A') (A') (A') (A')
                 (A') (A') (A') (A') (A') (A') (A') (A') (A') (A')
                 (A') (A') (A') (A') (A') (A') (A') (A') (A') (A')
                 (A') (A') (A') (A') (A') (A') (A') (A') (A') (A')
                 (A') (A') (A') (A") (A") (A") (A") (A") (A") (A")
                 (A") (A") (A") (A") (A") (A") (A") (A") (A") (A")
                 (A") (A") (A") (A") (A") (A") (A")
 ExpMin= 4.38D-02 ExpMax= 4.17D+03 ExpMxC= 6.27D+02 IAcc=2 IRadAn=         4 AccDes= 0.00D+00
 Harris functional with IExCor=  419 and IRadAn=       4 diagonalized for initial guess.
 HarFok:  IExCor=  419 AccDes= 0.00D+00 IRadAn=         4 IDoV= 1 UseB2=F ITyADJ=14
 ICtDFT=  3500011 ScaDFX=  1.000000  1.000000  1.000000  1.000000
 FoFCou: FMM=F IPFlag=           0 FMFlag=      100000 FMFlg1=           0
         NFxFlg=           0 DoJE=T BraDBF=F KetDBF=T FulRan=T
         wScrn=  0.000000 ICntrl=     500 IOpCl=  0 I1Cent=   200000004 NGrid=           0
         NMat0=    1 NMatS0=      1 NMatT0=    0 NMatD0=    1 NMtDS0=    0 NMtDT0=    0
 Petite list used in FoFCou.
 Keep R1 ints in memory in symmetry-blocked form, NReq=23756016.
 Requested convergence on RMS density matrix=1.00D-08 within 128 cycles.
 Requested convergence on MAX density matrix=1.00D-06.
 Requested convergence on             energy=1.00D-06.
 No special actions if energy rises.
 SCF Done:  E(RB2PLYP) =  -257.761388930     A.U. after   11 cycles
            NFock= 11  Conv=0.85D-08     -V/T= 2.0071
 DoSCS=T DFT=T ScalE2(SS,OS)=  0.270000  0.270000
 ExpMin= 4.38D-02 ExpMax= 4.17D+03 ExpMxC= 6.27D+02 IAcc=3 IRadAn=         5 AccDes= 0.00D+00
 HarFok:  IExCor=  205 AccDes= 0.00D+00 IRadAn=         5 IDoV=-2 UseB2=F ITyADJ=14
 ICtDFT= 12500011 ScaDFX=  1.000000  1.000000  1.000000  1.000000
 Range of M.O.s used for correlation:     6   105
 NBasis=   105 NAE=    18 NBE=    18 NFC=     5 NFV=     0
 NROrb=    100 NOA=    13 NOB=    13 NVA=    87 NVB=    87

 **** Warning!!: The largest alpha MO coefficient is  0.52413004D+02

 DoSCS=T DFT=T ScalE2(SS,OS)=  0.270000  0.270000
 Fully direct method using O(ONN) memory.
 JobTyp=1 Pass  1:  I=   6 to  18 NPSUse=  8 ParTrn=T ParDer=T DoDerP=T.
 Spin components of T(2) and E(2):
     alpha-alpha T2 =       0.6316091328D-01 E2=     -0.3781475308D-01
     alpha-beta  T2 =       0.3177625996D+00 E2=     -0.1948640132D+00
     beta-beta   T2 =       0.6316091328D-01 E2=     -0.3781475308D-01
 E2(B2PLYP) =    -0.2704935194D+00 E(B2PLYP) =    -0.25803188244945D+03
          IDoAtm=1111111
          Differentiating once with respect to electric field.
                with respect to dipole field.
          Differentiating once with respect to nuclear coordinates.
 Keep R1 ints in memory in symmetry-blocked form, NReq=23703984.
          There are     1 degrees of freedom in the 1st order CPHF.  IDoFFX=0 NUNeed=     1.
 LinEq1:  Iter=  0 NonCon=     1 RMS=2.91D-03 Max=3.01D-02 NDo=     1
 AX will form     1 AO Fock derivatives at one time.
 LinEq1:  Iter=  1 NonCon=     1 RMS=6.93D-04 Max=7.90D-03 NDo=     1
 LinEq1:  Iter=  2 NonCon=     1 RMS=3.17D-04 Max=6.27D-03 NDo=     1
 LinEq1:  Iter=  3 NonCon=     1 RMS=1.58D-04 Max=2.53D-03 NDo=     1
 LinEq1:  Iter=  4 NonCon=     1 RMS=6.20D-05 Max=9.55D-04 NDo=     1
 LinEq1:  Iter=  5 NonCon=     1 RMS=3.41D-05 Max=4.80D-04 NDo=     1
 LinEq1:  Iter=  6 NonCon=     1 RMS=1.48D-05 Max=2.15D-04 NDo=     1
 LinEq1:  Iter=  7 NonCon=     1 RMS=8.72D-06 Max=9.75D-05 NDo=     1
 LinEq1:  Iter=  8 NonCon=     1 RMS=3.17D-06 Max=3.35D-05 NDo=     1
 LinEq1:  Iter=  9 NonCon=     1 RMS=5.52D-07 Max=3.71D-06 NDo=     1
 LinEq1:  Iter= 10 NonCon=     1 RMS=3.30D-07 Max=5.41D-06 NDo=     1
 LinEq1:  Iter= 11 NonCon=     1 RMS=1.32D-07 Max=1.27D-06 NDo=     1
 LinEq1:  Iter= 12 NonCon=     1 RMS=2.19D-08 Max=1.98D-07 NDo=     1
 LinEq1:  Iter= 13 NonCon=     1 RMS=3.76D-09 Max=3.40D-08 NDo=     1
 LinEq1:  Iter= 14 NonCon=     1 RMS=7.42D-10 Max=5.36D-09 NDo=     1
 LinEq1:  Iter= 15 NonCon=     1 RMS=1.21D-10 Max=7.20D-10 NDo=     1
 LinEq1:  Iter= 16 NonCon=     0 RMS=2.23D-11 Max=1.96D-10 NDo=     1
 Linear equations converged to 1.000D-10 1.000D-09 after    16 iterations.
 End of Minotr F.D. properties file   721 does not exist.
 End of Minotr F.D. properties file   722 does not exist.
 End of Minotr F.D. properties file   788 does not exist.
 Calling FoFJK, ICntrl=  10002127 FMM=F ISym2X=1 I1Cent= 0 IOpClX= 0 NMat=1 NMatS=1 NMatT=0.
 ***** Axes restored to original set *****
 -------------------------------------------------------------------
 Center     Atomic                   Forces (Hartrees/Bohr)
 Number     Number              X              Y              Z
 -------------------------------------------------------------------
      1        6           0.012094251    0.001670371    0.000000000
      2        7          -0.000561614    0.004370891    0.000000000
      3        7          -0.012435431    0.001365003    0.000000000
      4        7          -0.006288008   -0.010644703    0.000000000
      5        7           0.006804087    0.002946962    0.000000000
      6        1           0.000547421    0.000107346    0.000000000
      7        1          -0.000160705    0.000184130    0.000000000
 -------------------------------------------------------------------
 Cartesian Forces:  Max     0.012435431 RMS     0.005038822
 -----------------------------------------------------------------------------------------------
                       Internal Coordinate Forces (Hartree/Bohr or radian)
  Cent   Atom   N1       Length/X         N2         Alpha/Y        N3         Beta/Z          J
 -----------------------------------------------------------------------------------------------
         X 
         X        1   0.000000(     1)
      1  C        1   0.012571(     2)      2   0.000000(     9)
      2  N        1  -0.004469(     3)      2   0.000000(    10)      3  -0.000541(    16)     0
      3  N        1   0.009480(     4)      2   0.000000(    11)      3   0.019575(    17)     0
      4  N        1   0.000178(     5)      2   0.000000(    12)      3  -0.028085(    18)     0
      5  N        1   0.004277(     6)      2   0.000000(    13)      3   0.012455(    19)     0
      6  H        3   0.000547(     7)      4   0.000220(    14)      5   0.000000(    20)     0
      7  H        4  -0.000217(     8)      5  -0.000213(    15)      6   0.000000(    21)     0
 -----------------------------------------------------------------------------------------------
 Internal  Forces:  Max     0.028085068 RMS     0.008766751

 GradGradGradGradGradGradGradGradGradGradGradGradGradGradGradGradGradGrad
 Berny optimization.
 Search for a local minimum.
 Step number   4 out of a maximum of   22
 All quantities printed in internal units (Hartrees-Bohrs-Radians)
 Update second derivatives using D2CorN and points    1    2    4    3
 DE=  4.33D-04 DEPred=-2.48D-04 R=-1.75D+00
 Trust test=-1.75D+00 RLast= 4.13D-01 DXMaxT set to 2.12D-01
 The second derivative matrix:
                          rn1       rn2       rn3       rn4       rch
           rn1          0.65579
           rn2          0.01549   0.64948
           rn3          0.05188   0.02997   0.55581
           rn4          0.04389  -0.00328   0.11533   0.62459
           rch          0.00299  -0.00457   0.00081  -0.00011   0.37635
           rnh          0.00391  -0.01001  -0.00163  -0.00156   0.00144
           an1          0.02227  -0.72833   0.07794  -0.05579   0.00843
           an2          0.73415  -0.26503  -0.66526   0.09002   0.01320
           an3         -0.04188   0.97702  -0.01515  -0.62273  -0.01237
           an4          0.05399  -0.03054   0.64468  -0.11098  -0.00274
           ach          0.04453   0.00013  -0.00113   0.05056  -0.00028
           anh         -0.10076   0.05416   0.00236  -0.00029   0.00007
                          rnh       an1       an2       an3       an4
           rnh          0.48879
           an1          0.01331   4.55404
           an2          0.02116  -2.65345   6.04959
           an3         -0.02021  -0.03300  -3.19432   4.46439
           an4         -0.00375  -0.12966  -0.08269  -1.15470   2.58369
           ach         -0.00041  -0.10518  -0.00053   0.00050   0.07397
           anh          0.00024   0.03246  -0.09570   0.00401  -0.00088
                          ach       anh
           ach          0.32009
           anh         -0.00012   0.32032
 ITU= -1  1  1  0
     Eigenvalues ---    0.00697   0.13461   0.27098   0.33079   0.37632
     Eigenvalues ---    0.39813   0.48863   0.73434   1.20931   2.98660
     Eigenvalues ---    5.07618   9.63007
 RFO step:  Lambda=-2.66886821D-05 EMin= 6.97282235D-03
 Quartic linear search produced a step of -0.77239.
 Variable       Old X    -DE/DX   Delta X   Delta X   Delta X     New X
                                 (Linear)    (Quad)   (Total)
   rn1        2.12935  -0.00447   0.13497  -0.00749   0.12748   2.25683
   rn2        2.40479   0.00948   0.12414   0.00028   0.12442   2.52921
   rn3        2.27190   0.00018  -0.04828   0.01020  -0.03808   2.23382
   rn4        2.05614   0.00428  -0.14858   0.00342  -0.14516   1.91099
   rch        2.03342   0.00055   0.00094  -0.00005   0.00089   2.03430
   rnh        1.90661  -0.00022   0.00038  -0.00026   0.00013   1.90673
   an1        1.36254  -0.00054  -0.05220   0.00218  -0.05001   1.31253
   an2        2.54803   0.01957  -0.11608   0.00486  -0.11122   2.43681
   an3        3.66076  -0.02809  -0.15064   0.00366  -0.14699   3.51377
   an4        4.91841   0.01245  -0.06758   0.00056  -0.06702   4.85139
   ach        2.17739   0.00022   0.00356   0.00080   0.00436   2.18175
   anh        2.10704  -0.00021  -0.00703  -0.00012  -0.00716   2.09988
         Item               Value     Threshold  Converged?
 Maximum Force            0.028085     0.000450     NO 
 RMS     Force            0.011015     0.000300     NO 
 Maximum Displacement     0.146989     0.001800     NO 
 RMS     Displacement     0.089113     0.001200     NO 
 Predicted change in Energy=-2.058353D-04
 GradGradGradGradGradGradGradGradGradGradGradGradGradGradGradGradGradGrad

 ---------------------------------------------------------------------------------------------------
                            Z-MATRIX (ANGSTROMS AND DEGREES)
   CD    Cent   Atom    N1       Length/X        N2       Alpha/Y        N3        Beta/Z          J
 ---------------------------------------------------------------------------------------------------
      1         X 
      2         X        1   1.000000(     1)
      3      1  C        1   1.000000(     2)      2   90.000(     9)
      4      2  N        1   1.194263(     3)      2   90.000(    10)      3   75.202(    16)      0
      5      3  N        1   1.338400(     4)      2   90.000(    11)      3  139.619(    17)      0
      6      4  N        1   1.182088(     5)      2   90.000(    12)      3  201.324(    18)      0
      7      5  N        1   1.011250(     6)      2   90.000(    13)      3  277.964(    19)      0
      8      6  H        3   1.076508(     7)      4  125.005(    14)      5  180.000(    20)      0
      9      7  H        4   1.008999(     8)      5  120.314(    15)      6  180.000(    21)      0
 ---------------------------------------------------------------------------------------------------
                         Z-Matrix orientation:                         
 ---------------------------------------------------------------------
 Center     Atomic      Atomic             Coordinates (Angstroms)
 Number     Number       Type             X           Y           Z
 ---------------------------------------------------------------------
      1         -1           0        0.000000    0.000000    0.000000
      2         -1           0        0.000000    0.000000    1.000000
      3          6           0        1.000000    0.000000    0.000000
      4          7           0        0.305025   -1.154653    0.000000
      5          7           0       -1.019527   -0.867110    0.000000
      6          7           0       -1.101158    0.429864    0.000000
      7          7           0        0.140114    1.001496    0.000000
      8          1           0        2.073935    0.074380    0.000000
      9          1           0        0.617934   -2.113907    0.000000
 ---------------------------------------------------------------------
                    Distance matrix (angstroms):
                    1          2          3          4          5
     1  X    0.000000
     2  X    1.000000   0.000000
     3  C    1.000000   1.414214   0.000000
     4  N    1.194263   1.557647   1.347670   0.000000
     5  N    1.338400   1.670723   2.197810   1.355403   0.000000
     6  N    1.182088   1.548332   2.144679   2.118501   1.299541
     7  N    1.011250   1.422191   1.319999   2.162447   2.199194
     8  H    2.075268   2.303636   1.076508   2.153965   3.233560
     9  H    2.202372   2.418769   2.148156   1.008999   2.058101
                    6          7          8          9
     6  N    0.000000
     7  N    1.366572   0.000000
     8  H    3.194931   2.144576   0.000000
     9  H    3.070187   3.151832   2.628410   0.000000
 Stoichiometry    CH2N4
 Framework group  CS[SG(CH2N4)]
 Deg. of freedom    11
 Full point group                 CS      NOp   2
 Largest Abelian subgroup         CS      NOp   2
 Largest concise Abelian subgroup C1      NOp   1
                         Standard orientation:                         
 ---------------------------------------------------------------------
 Center     Atomic      Atomic             Coordinates (Angstroms)
 Number     Number       Type             X           Y           Z
[...]
   XY=              1.9711   XZ=              0.0000   YZ=              0.0000
 Traceless Quadrupole moment (field-independent basis, Debye-Ang):
   XX=             -1.0797   YY=              1.5433   ZZ=             -0.4636
   XY=              1.9711   XZ=              0.0000   YZ=              0.0000
 Octapole moment (field-independent basis, Debye-Ang**2):
  XXX=             13.0631  YYY=             24.1178  ZZZ=              0.0000  XYY=             -0.4577
  XXY=              5.1017  XXZ=              0.0000  XZZ=             -0.4599  YZZ=              0.7780
  YYZ=              0.0000  XYZ=              0.0000
 Hexadecapole moment (field-independent basis, Debye-Ang**3):
 XXXX=           -151.6322 YYYY=           -128.6377 ZZZZ=            -28.8160 XXXY=              7.7557
 XXXZ=              0.0000 YYYX=              0.0439 YYYZ=              0.0000 ZZZX=              0.0000
 ZZZY=              0.0000 XXYY=            -57.4072 XXZZ=            -32.8537 YYZZ=            -31.2313
 XXYZ=              0.0000 YYXZ=              0.0000 ZZXY=              0.0804
 N-N= 1.661490175557D+02 E-N=-9.337569174472D+02  KE= 2.563482129623D+02
 Symmetry A'   KE= 2.469207947820D+02
 Symmetry A"   KE= 9.427418180301D+00
  Exact polarizability:  44.060   0.420  43.588   0.000   0.000  24.212
 Approx polarizability:  54.584  -0.167  57.700   0.000   0.000  28.961
 Calling FoFJK, ICntrl=  10100127 FMM=F ISym2X=1 I1Cent= 0 IOpClX= 0 NMat=1 NMatS=1 NMatT=0.
 Full mass-weighted force constant matrix:
 Low frequencies ---  -10.9135   -0.0011   -0.0010   -0.0006    5.5757   11.9309
 Low frequencies ---  564.2835  684.6786  724.1163
 Diagonal vibrational polarizability:
        1.2639299       1.1456225       9.1072707
 Harmonic frequencies (cm**-1), IR intensities (KM/Mole), Raman scattering
 activities (A**4/AMU), depolarization ratios for plane and unpolarized
 incident light, reduced masses (AMU), force constants (mDyne/A),
 and normal coordinates:
                      1                      2                      3
                     A"                     A"                     A"
 Frequencies --    564.2834               684.6786               724.1163
 Red. masses --      1.9047                 1.9489                 7.7379
 Frc consts  --      0.3573                 0.5383                 2.3905
 IR Inten    --     82.3286                12.0740                 9.3861
  Atom  AN      X      Y      Z        X      Y      Z        X      Y      Z
     1   6     0.00   0.00  -0.10     0.00   0.00   0.18     0.00   0.00  -0.10
     2   7     0.00   0.00   0.22     0.00   0.00  -0.09     0.00   0.00  -0.11
     3   7     0.00   0.00  -0.09     0.00   0.00   0.09     0.00   0.00   0.40
     4   7     0.00   0.00   0.01     0.00   0.00   0.04     0.00   0.00  -0.48
     5   7     0.00   0.00   0.03     0.00   0.00  -0.17     0.00   0.00   0.32
     6   1     0.00   0.00  -0.19     0.00   0.00   0.49     0.00   0.00  -0.08
     7   1     0.00   0.00  -0.94     0.00   0.00  -0.83     0.00   0.00  -0.69
                      4                      5                      6
                     A"                     A'                     A'
 Frequencies --    842.5742               964.3823              1007.3410
 Red. masses --      1.3120                 5.1048                 6.6008
 Frc consts  --      0.5488                 2.7972                 3.9464
 IR Inten    --     25.7036                 4.0967                 0.3700
  Atom  AN      X      Y      Z        X      Y      Z        X      Y      Z
     1   6     0.00   0.00   0.16     0.08   0.11   0.00    -0.38  -0.08   0.00
     2   7     0.00   0.00  -0.02     0.11   0.07   0.00     0.01   0.41   0.00
     3   7     0.00   0.00   0.00     0.14  -0.16   0.00     0.09  -0.04   0.00
     4   7     0.00   0.00  -0.02     0.07  -0.19   0.00     0.24  -0.05   0.00
     5   7     0.00   0.00  -0.02    -0.38   0.23   0.00    -0.01  -0.25   0.00
     6   1     0.00   0.00  -0.98     0.32  -0.67   0.00    -0.28  -0.45   0.00
     7   1     0.00   0.00  -0.09    -0.36   0.04   0.00     0.25   0.45   0.00
                      7                      8                      9
                     A'                     A'                     A'
 Frequencies --   1051.6752              1067.7887              1151.8813
 Red. masses --      5.2020                 3.9122                 1.8189
 Frc consts  --      3.3899                 2.6281                 1.4219
 IR Inten    --     14.7243                31.2121                15.5844
  Atom  AN      X      Y      Z        X      Y      Z        X      Y      Z
     1   6     0.10   0.02   0.00     0.03  -0.02   0.00     0.09  -0.11   0.00
     2   7     0.21   0.21   0.00    -0.07   0.15   0.00    -0.12   0.01   0.00
     3   7    -0.32  -0.24   0.00     0.26  -0.03   0.00    -0.06   0.01   0.00
     4   7    -0.19  -0.02   0.00    -0.31  -0.07   0.00     0.10   0.12   0.00
     5   7     0.16   0.05   0.00     0.15  -0.03   0.00     0.03   0.00   0.00
     6   1     0.30  -0.53   0.00     0.06  -0.08   0.00     0.30  -0.76   0.00
     7   1     0.50   0.24   0.00    -0.87   0.11   0.00    -0.52  -0.01   0.00
                     10                     11                     12
                     A'                     A'                     A'
 Frequencies --   1261.8163              1269.3657              1466.9449
 Red. masses --      5.7284                 2.9600                 3.1466
 Frc consts  --      5.3737                 2.8100                 3.9895
 IR Inten    --     16.2848                 0.5152                10.9799
  Atom  AN      X      Y      Z        X      Y      Z        X      Y      Z
     1   6     0.05   0.00   0.00     0.23   0.06   0.00    -0.17   0.26   0.00
     2   7    -0.11   0.03   0.00     0.03   0.12   0.00     0.20  -0.13   0.00
     3   7    -0.08   0.38   0.00    -0.13   0.06   0.00    -0.06   0.08   0.00
     4   7    -0.01  -0.43   0.00     0.05  -0.07   0.00     0.00   0.01   0.00
     5   7     0.11   0.06   0.00    -0.11  -0.21   0.00     0.06  -0.11   0.00
     6   1     0.25  -0.62   0.00     0.07   0.67   0.00     0.05  -0.53   0.00
     7   1     0.43   0.07   0.00    -0.61   0.11   0.00    -0.70  -0.22   0.00
                     13                     14                     15
                     A'                     A'                     A'
 Frequencies --   1504.8711              3338.2320              3690.7664
 Red. masses --      2.9489                 1.1006                 1.0843
 Frc consts  --      3.9347                 7.2261                 8.7023
 IR Inten    --     19.3776                 2.6986               107.4149
  Atom  AN      X      Y      Z        X      Y      Z        X      Y      Z
     1   6     0.11   0.26   0.00     0.09   0.03   0.00     0.00   0.00   0.00
     2   7    -0.17  -0.02   0.00     0.00   0.00   0.00    -0.01   0.08   0.00
     3   7     0.09  -0.06   0.00     0.00   0.00   0.00     0.00   0.00   0.00
     4   7    -0.05   0.06   0.00     0.00   0.00   0.00     0.00   0.00   0.00
     5   7    -0.04  -0.18   0.00     0.00   0.00   0.00     0.00   0.00   0.00
     6   1     0.35  -0.39   0.00    -0.95  -0.30   0.00    -0.02   0.00   0.00
     7   1     0.75   0.03   0.00     0.01   0.02   0.00     0.06  -0.99   0.00

 -------------------
 - Thermochemistry -
 -------------------
 Temperature   298.150 Kelvin.  Pressure   1.00000 Atm.
 Atom     1 has atomic number  6 and mass  12.00000
 Atom     2 has atomic number  7 and mass  14.00307
 Atom     3 has atomic number  7 and mass  14.00307
 Atom     4 has atomic number  7 and mass  14.00307
 Atom     5 has atomic number  7 and mass  14.00307
 Atom     6 has atomic number  1 and mass   1.00783
 Atom     7 has atomic number  1 and mass   1.00783
 Molecular mass:    70.02795 amu.
 Principal axes and moments of inertia in atomic units:
                           1         2         3
     Eigenvalues --   172.78361 175.46752 348.25113
           X            0.84540   0.53413   0.00000
           Y           -0.53413   0.84540   0.00000
           Z            0.00000   0.00000   1.00000
 This molecule is an asymmetric top.
 Rotational symmetry number  1.
 Rotational temperatures (Kelvin)      0.50128     0.49362     0.24871
 Rotational constants (GHZ):          10.44509    10.28533     5.18230
 Zero-point vibrational energy     123159.8 (Joules/Mol)
                                   29.43591 (Kcal/Mol)
 Warning -- explicit consideration of   1 degrees of freedom as
           vibrations may cause significant error
 Vibrational temperatures:    811.88   985.10  1041.84  1212.27  1387.53
          (Kelvin)           1449.34  1513.12  1536.31  1657.30  1815.47
                             1826.33  2110.60  2165.17  4802.97  5310.18
 
 Zero-point correction=                           0.046909 (Hartree/Particle)
 Thermal correction to Energy=                    0.050405
 Thermal correction to Enthalpy=                  0.051349
 Thermal correction to Gibbs Free Energy=         0.020795
 Sum of electronic and zero-point Energies=           -257.985435
 Sum of electronic and thermal Energies=              -257.981940
 Sum of electronic and thermal Enthalpies=            -257.980996
 Sum of electronic and thermal Free Energies=         -258.011550
 
                     E (Thermal)             CV                S
                      KCal/Mol        Cal/Mol-Kelvin    Cal/Mol-Kelvin
 Total                   31.629             11.443             64.306
 Electronic               0.000              0.000              0.000
 Translational            0.889              2.981             38.656
 Rotational               0.889              2.981             23.872
 Vibrational             29.852              5.482              1.778
 Vibration     1          0.920              1.109              0.515
                       Q            Log10(Q)             Ln(Q)
 Total Bot       0.272319D-09         -9.564922        -22.024046
 Total V=0       0.102736D+13         12.011723         27.658015
 Vib (Bot)       0.321421D-21        -21.492926        -49.489291
 Vib (Bot)    1  0.274283D+00         -0.561801         -1.293594
 Vib (V=0)       0.121260D+01          0.083719          0.192769
 Vib (V=0)    1  0.107029D+01          0.029502          0.067930
 Electronic      0.100000D+01          0.000000          0.000000
 Translational   0.230336D+08          7.362362         16.952466
 Rotational      0.367826D+05          4.565642         10.512780
 ***** Axes restored to original set *****
 -------------------------------------------------------------------
 Center     Atomic                   Forces (Hartrees/Bohr)
 Number     Number              X              Y              Z
 -------------------------------------------------------------------
      1        6           0.000078005    0.000079292    0.000000000
      2        7          -0.000007783    0.000147057    0.000000000
      3        7          -0.000141402   -0.000018969    0.000000000
      4        7           0.000000506   -0.000103838    0.000000000
      5        7           0.000069223   -0.000120163    0.000000000
      6        1           0.000011098   -0.000001644    0.000000000
      7        1          -0.000009647    0.000018266    0.000000000
 -------------------------------------------------------------------
 Cartesian Forces:  Max     0.000147057 RMS     0.000063613
 -----------------------------------------------------------------------------------------------
                       Internal Coordinate Forces (Hartree/Bohr or radian)
  Cent   Atom   N1       Length/X         N2         Alpha/Y        N3         Beta/Z          J
 -----------------------------------------------------------------------------------------------
         X 
         X        1   0.000000(     1)
      1  C        1   0.000091(     2)      2   0.000000(     9)
      2  N        1  -0.000163(     3)      2   0.000000(    10)      3  -0.000048(    16)     0
      3  N        1   0.000119(     4)      2   0.000000(    11)      3   0.000194(    17)     0
      4  N        1  -0.000040(     5)      2   0.000000(    12)      3  -0.000214(    18)     0
      5  N        1  -0.000109(     6)      2   0.000000(    13)      3   0.000167(    19)     0
      6  H        3   0.000011(     7)      4  -0.000005(    14)      5   0.000000(    20)     0
      7  H        4  -0.000020(     8)      5  -0.000007(    15)      6   0.000000(    21)     0
 -----------------------------------------------------------------------------------------------
 Internal  Forces:  Max     0.000214258 RMS     0.000091708

 GradGradGradGradGradGradGradGradGradGradGradGradGradGradGradGradGradGrad
 Berny optimization.
 Search for a local minimum.
 Step number   1 out of a maximum of    2
 All quantities printed in internal units (Hartrees-Bohrs-Radians)
 Second derivative matrix not updated -- analytic derivatives used.
 The second derivative matrix:
                          rn1       rn2       rn3       rn4       rch
           rn1          0.58067
           rn2         -0.04440   0.55488
           rn3          0.07926  -0.01826   0.54623
           rn4          0.09724   0.07316  -0.02087   0.54671
           rch         -0.00305  -0.00172   0.00036  -0.00361   0.39041
           rnh          0.00926  -0.00787  -0.00042  -0.00045   0.00029
           an1          0.12098  -0.35069  -0.20237   0.12870   0.01148
           an2          0.25339  -0.10817  -0.40118  -0.15596   0.00276
           an3          0.21551   0.43343   0.17177  -0.24667  -0.00097
           an4         -0.12724   0.16193   0.29983  -0.18358  -0.01507
           ach          0.03739   0.01196  -0.01466   0.02834   0.00209
           anh         -0.05165   0.01982   0.02576  -0.02022  -0.00116
                          rnh       an1       an2       an3       an4
           rnh          0.48311
           an1         -0.00909   2.25915
           an2          0.01288  -0.90973   2.68496
           an3         -0.00183  -0.24080  -1.34316   2.20208
           an4         -0.00150  -0.25139  -0.25204  -0.41702   1.67119
           ach          0.00056   0.00314  -0.02241  -0.00464   0.09563
           anh          0.00003  -0.03430  -0.01739   0.00437  -0.00557
                          ach       anh
           ach          0.21763
           anh          0.00072   0.21446
 ITU=  0
     Eigenvalues ---    0.00004   0.15932   0.21300   0.26817   0.39043
     Eigenvalues ---    0.48260   0.60162   0.67147   0.81281   2.04971
     Eigenvalues ---    2.65377   4.04854
 Angle between quadratic step and forces=  88.27 degrees.
 Linear search not attempted -- first point.
 Variable       Old X    -DE/DX   Delta X   Delta X   Delta X     New X
                                 (Linear)    (Quad)   (Total)
   rn1        2.23906  -0.00016   0.00000   0.12727   0.12727   2.36633
   rn2        2.51399   0.00012   0.00000   0.08416   0.08416   2.59815
   rn3        2.23662  -0.00004   0.00000  -0.05007  -0.05007   2.18655
   rn4        1.93331  -0.00011   0.00000  -0.13046  -0.13046   1.80285
   rch        2.03429   0.00001   0.00000   0.00002   0.00002   2.03431
   rnh        1.90682  -0.00002   0.00000  -0.00003  -0.00003   1.90679
   an1        1.32026  -0.00005   0.00000  -0.05496  -0.05496   1.26530
   an2        2.45218   0.00019   0.00000  -0.10993  -0.10993   2.34225
   an3        3.53292  -0.00021   0.00000  -0.12416  -0.12416   3.40875
   an4        4.86188   0.00017   0.00000  -0.05955  -0.05955   4.80233
   ach        2.18137   0.00000   0.00000   0.00010   0.00010   2.18147
   anh        2.10036  -0.00001   0.00000  -0.00017  -0.00017   2.10019
         Item               Value     Threshold  Converged?
 Maximum Force            0.000214     0.000450     YES
 RMS     Force            0.000118     0.000300     YES
 Maximum Displacement     0.130460     0.001800     NO 
 RMS     Displacement     0.080039     0.001200     NO 
 Predicted change in Energy=-1.713079D-06
 GradGradGradGradGradGradGradGradGradGradGradGradGradGradGradGradGradGrad

 1\1\GINC-N366\Freq\RB2PLYP-FC\6-31+G(d,p)\C1H2N4\RDJ3\26-Nov-2013\1\\#
 N Geom=AllCheck Guess=TCheck SCRF=Check GenChk RB2PLYP(FC)/6-31+G(d,p)
  Freq\\1H-tetrazole CH2N4 casno=288948 state=1 config=1 method=56 basi
 s=4\\0,1\X\X,1,1.\C,1,1.,2,90.\N,1,rn1,2,90.,3,an1,0\N,1,rn2,2,90.,3,a
 n2,0\N,1,rn3,2,90.,3,an3,0\N,1,rn4,2,90.,3,an4,0\H,3,rch,4,ach,5,180.,
 0\H,4,rnh,5,anh,6,180.,0\\rn1=1.18486216\rn2=1.33034665\rn3=1.18356651
 \rn4=1.02306371\rch=1.07650103\rnh=1.00904692\an1=75.64512551\an2=140.
 49978543\an3=202.4212392\an4=278.56505419\ach=124.98333668\anh=120.341
 77818\\Version=EM64L-G09RevD.01\State=1-A'\HF=-257.7613874\MP2=-258.03
 23444\RMSD=3.866e-09\RMSF=6.361e-05\ZeroPoint=0.0469091\Thermal=0.0504
 047\Dipole=1.6696549,-1.4459488,0.\DipoleDeriv=0.1532637,0.0474713,0.,
 -0.0664191,0.475502,0.,0.,0.,0.0791474,-0.2223362,0.2846211,0.,0.21451
 37,-0.4538152,0.,0.,0.,-0.1352744,0.0971571,-0.3443112,0.,-0.391746,-0
 .1329138,0.,0.,0.,-0.1016434,0.099045,0.1462828,0.,0.2410856,-0.004345
 9,0.,0.,0.,-0.1696372,-0.3999973,-0.1221782,0.,0.0061076,-0.2942185,0.
 ,0.,0.,-0.2032461,0.0683269,0.0148342,0.,0.0115205,0.1117917,0.,0.,0.,
 0.1819252,0.2045408,-0.02672,0.,-0.0150624,0.2979997,0.,0.,0.,0.348728
 4\Polar=44.2803887,-0.1544534,43.3684201,0.,0.,24.211572\Quadrupole=0.
 4262367,-0.081553,-0.3446837,-1.7417844,0.,0.\PG=CS [SG(C1H2N4)]\NImag
 =0\\0.96288034,-0.00226153,0.61102380,0.,0.,0.13110590,-0.18541205,-0.
 08600076,0.,0.56357727,-0.11264422,-0.27016443,0.,-0.08006087,1.021399
 86,0.,0.,-0.05519276,0.,0.,0.08456458,-0.09471373,-0.07978825,0.,-0.22
 813526,-0.02405777,0.,0.45976343,0.00563109,-0.01765017,0.,0.01597713,
 -0.10466366,0.,0.07345930,0.53707238,0.,0.,0.01835747,0.,0.,-0.0636295
 8,0.,0.,0.10891829,-0.11185585,0.07365599,0.,-0.06297080,0.03432791,0.
 ,-0.10794170,-0.02301558,0.,0.47668150,-0.01698757,0.02257493,0.,0.101
 98940,-0.10468769,0.,0.04733131,-0.32244082,0.,-0.09180030,0.50976414,
 0.,0.,0.01862828,0.,0.,0.02449342,0.,0.,-0.09220819,0.,0.,0.11911177,-
 0.21332868,0.13073319,0.,0.02071745,0.07442469,0.,-0.03433295,-0.10854
 210,0.,-0.18152839,-0.04603331,0.,0.42142608,0.13091081,-0.28414038,0.
 ,-0.03249493,-0.10441999,0.,-0.01379510,-0.08691188,0.,0.00430788,-0.1
 0421660,0.,-0.07604213,0.57246019,0.,0.,-0.07473858,0.,0.,0.01941605,0
 .,0.,0.03429229,0.,0.,-0.08671778,0.,0.,0.10561342,-0.37467032,-0.0220
 8756,0.,-0.00391908,0.00276236,0.,0.00062779,0.00190731,0.,-0.00086788
 ,-0.00004318,0.,-0.00977263,-0.00300179,0.,0.38911058,-0.01880567,-0.0
 5733322,0.,-0.03246681,0.00427747,0.,-0.00168367,-0.00688421,0.,0.0062
 3235,-0.00369915,0.,0.02558679,0.00999524,0.,0.02090610,0.05387956,0.,
 0.,-0.02813915,0.,0.,-0.00362514,0.,0.,0.00643310,0.,0.,0.00888553,0.,
 0.,-0.00544149,0.,0.,0.02252414,0.01710029,-0.01425108,0.,-0.10385752,
 0.10524789,0.,0.00473242,0.03458283,0.,-0.01151688,0.00554366,0.,-0.00
 318088,-0.00988474,0.,-0.00050847,0.00023092,0.,0.09723104,0.01415709,
 -0.00431053,0.,0.11305684,-0.44174157,0.,-0.00146582,0.00147836,0.,-0.
 00370825,0.00270519,0.,-0.00012713,-0.00276659,0.,-0.00044324,-0.00023
 569,0.,-0.12146948,0.44487083,0.,0.,-0.01002115,0.,0.,-0.00602656,0.,0
 .,-0.01216338,0.,0.,0.00780698,0.,0.,0.00757609,0.,0.,-0.00063698,0.,0
 .,0.01346500\\-0.00007800,-0.00007929,0.,0.00000778,-0.00014706,0.,0.0
 0014140,0.00001897,0.,-0.00000051,0.00010384,0.,-0.00006922,0.00012016
 ,0.,-0.00001110,0.00000164,0.,0.00000965,-0.00001827,0.\\\@


 TWO ROADS DIVERGED IN A WOOD, AND I--
 I TOOK THE ONE LESS TRAVELED BY,
 AND THAT HAS MADE ALL THE DIFFERENCE.

                       -- ROBERT FROST
 Job cpu time:       0 days  0 hours 12 minutes 25.7 seconds.
 File lengths (MBytes):  RWF=    783 Int=      0 D2E=      0 Chk=      2 Scr=      1
 Normal termination of Gaussian 09 at Tue Nov 26 08:20:17 2013.
