 Entering Gaussian System, Link 0=g09
 Initial command:
 /usr/local/gaussian/g09.d01.em64t.legacy.linda/g09/l1.exe "/tmp/rdj3/g09-23219/Gau-11483.inp" -scrdir="/tmp/rdj3/g09-23219/"
 Entering Link 1 = /usr/local/gaussian/g09.d01.em64t.legacy.linda/g09/l1.exe PID=     11484.
  
 Copyright (c) 1988,1990,1992,1993,1995,1998,2003,2009,2013,
            Gaussian, Inc.  All Rights Reserved.
  
 This is part of the Gaussian(R) 09 program.  It is based on
 the Gaussian(R) 03 system (copyright 2003, Gaussian, Inc.),
 the Gaussian(R) 98 system (copyright 1998, Gaussian, Inc.),
 the Gaussian(R) 94 system (copyright 1995, Gaussian, Inc.),
 the Gaussian 92(TM) system (copyright 1992, Gaussian, Inc.),
 the Gaussian 90(TM) system (copyright 1990, Gaussian, Inc.),
 the Gaussian 88(TM) system (copyright 1988, Gaussian, Inc.),
 the Gaussian 86(TM) system (copyright 1986, Carnegie Mellon
 University), and the Gaussian 82(TM) system (copyright 1983,
 Carnegie Mellon University). Gaussian is a federally registered
 trademark of Gaussian, Inc.
  
 This software contains proprietary and confidential information,
 including trade secrets, belonging to Gaussian, Inc.
  
 This software is provided under written license and may be
 used, copied, transmitted, or stored only in accord with that
 written license.
  
 The following legend is applicable only to US Government
 contracts under FAR:
  
                    RESTRICTED RIGHTS LEGEND
  
 Use, reproduction and disclosure by the US Government is
 subject to restrictions as set forth in subparagraphs (a)
 and (c) of the Commercial Computer Software - Restricted
 Rights clause in FAR 52.227-19.
  
 Gaussian, Inc.
 340 Quinnipiac St., Bldg. 40, Wallingford CT 06492
  
  
 ---------------------------------------------------------------
 Warning -- This program may not be used in any manner that
 competes with the business of Gaussian, Inc. or will provide
 assistance to any competitor of Gaussian, Inc.  The licensee
 of this program is prohibited from giving any competitor of
 Gaussian, Inc. access to this program.  By using this program,
 the user acknowledges that Gaussian, Inc. is engaged in the
 business of creating and licensing software in the field of
 computational chemistry and represents and warrants to the
 licensee that it is not a competitor of Gaussian, Inc. and that
 it will not use this program in any manner prohibited above.
 ---------------------------------------------------------------
  

 Cite this work as:
 Gaussian 09, Revision D.01,
 M. J. Frisch, G. W. Trucks, H. B. Schlegel, G. E. Scuseria, 
 M. A. Robb, J. R. Cheeseman, G. Scalmani, V. Barone, B. Mennucci, 
 G. A. Petersson, H. Nakatsuji, M. Caricato, X. Li, H. P. Hratchian, 
 A. F. Izmaylov, J. Bloino, G. Zheng, J. L. Sonnenberg, M. Hada, 
 M. Ehara, K. Toyota, R. Fukuda, J. Hasegawa, M. Ishida, T. Nakajima, 
 Y. Honda, O. Kitao, H. Nakai, T. Vreven, J. A. Montgomery, Jr., 
 J. E. Peralta, F. Ogliaro, M. Bearpark, J. J. Heyd, E. Brothers, 
 K. N. Kudin, V. N. Staroverov, T. Keith, R. Kobayashi, J. Normand, 
 K. Raghavachari, A. Rendell, J. C. Burant, S. S. Iyengar, J. Tomasi, 
 M. Cossi, N. Rega, J. M. Millam, M. Klene, J. E. Knox, J. B. Cross, 
 V. Bakken, C. Adamo, J. Jaramillo, R. Gomperts, R. E. Stratmann, 
 O. Yazyev, A. J. Austin, R. Cammi, C. Pomelli, J. W. Ochterski, 
 R. L. Martin, K. Morokuma, V. G. Zakrzewski, G. A. Voth, 
 P. Salvador, J. J. Dannenberg, S. Dapprich, A. D. Daniels, 
 O. Farkas, J. B. Foresman, J. V. Ortiz, J. Cioslowski, 
 and D. J. Fox, Gaussian, Inc., Wallingford CT, 2013.
 
 ******************************************
 Gaussian 09:  EM64L-G09RevD.01 24-Apr-2013
                26-Nov-2013 
 ******************************************
 %Nproc=8
 Will use up to    8 processors via shared memory.
 %mem=436000000
 -----------------------------------------
 #B2PLYP/cc-pVTZ opt=z-matrix freq density
 -----------------------------------------
 1/10=7,18=40,38=1/1,3;
 2/12=2,17=6,18=5,29=3,40=1/2;
 3/5=16,6=1,11=9,16=1,25=1,30=1,71=1,74=-47/1,2,3;
 4//1;
 5/5=2,38=5/2;
 8/6=4,10=1/1;
 9/15=2,16=-3/6;
 10/5=1/2;
 6/7=2,8=2,9=2,10=2,22=-1/1;
 7/12=2,29=1/1,2,3,16;
 1/10=7,18=40/3(2);
 2/29=3/2;
 99//99;
 2/29=3/2;
 3/5=16,6=1,11=9,16=1,25=1,30=1,71=1,74=-47/1,2,3;
 4/5=5,16=3,69=1/1;
 5/5=2,38=5/2;
 8/6=4,10=1/1;
 9/15=2,16=-3/6;
 10/5=1/2;
 7/12=2/1,2,3,16;
 1/18=40/3(-8);
 2/29=3/2;
 6/7=2,8=2,9=2,10=2,22=-1/1;
 99//99;
 ------------------------------------------------------------------
 1H-tetrazole CH2N4 casno=288948 state=1 config=1 method=56 basis=6
 ------------------------------------------------------------------
 Symbolic Z-matrix:
 Charge =  0 Multiplicity = 1
 X
 X                    1     1. 
 C                    1     1.       2     90. 
 N                    1    rn1      2     90.      3    an1      0
 N                    1    rn2      2     90.      3    an2      0
 N                    1    rn3      2     90.      3    an3      0
 N                    1    rn4      2     90.      3    an4      0
 H                    3    rch      4    ach      5     180.     0
 H                    4    rnh      5    anh      6     180.     0
       Variables:
  rn1                   1.2426                   
  rn2                   1.333                    
  rn3                   1.1146                   
  rn4                   0.9264                   
  rch                   1.0678                   
  rnh                   0.9941                   
  an1                  71.8427                   
  an2                 133.7028                   
  an3                 194.4597                   
  an4                 276.0768                   
  ach                 125.0248                   
  anh                 120.7626                   
 

 GradGradGradGradGradGradGradGradGradGradGradGradGradGradGradGradGradGrad
 Berny optimization.
 Initialization pass.
                       ----------------------------
                       !    Initial Parameters    !
                       ! (Angstroms and Degrees)  !
 ----------------------                            ----------------------
 !      Name          Value   Derivative information (Atomic Units)     !
 ------------------------------------------------------------------------
 !       rn1         1.2426   estimate D2E/DX2                          !
 !       rn2         1.333    estimate D2E/DX2                          !
 !       rn3         1.1146   estimate D2E/DX2                          !
 !       rn4         0.9264   estimate D2E/DX2                          !
 !       rch         1.0678   estimate D2E/DX2                          !
 !       rnh         0.9941   estimate D2E/DX2                          !
 !       an1        71.8427   estimate D2E/DX2                          !
 !       an2       133.7028   estimate D2E/DX2                          !
 !       an3       194.4597   estimate D2E/DX2                          !
 !       an4       276.0768   estimate D2E/DX2                          !
 !       ach       125.0248   estimate D2E/DX2                          !
 !       anh       120.7626   estimate D2E/DX2                          !
 ------------------------------------------------------------------------
 Trust Radius=3.00D-01 FncErr=1.00D-07 GrdErr=1.00D-07
 Number of steps in this run=     22 maximum allowed number of steps=    100.
 GradGradGradGradGradGradGradGradGradGradGradGradGradGradGradGradGradGrad

 ---------------------------------------------------------------------------------------------------
                            Z-MATRIX (ANGSTROMS AND DEGREES)
   CD    Cent   Atom    N1       Length/X        N2       Alpha/Y        N3        Beta/Z          J
 ---------------------------------------------------------------------------------------------------
      1         X 
      2         X        1   1.000000(     1)
      3      1  C        1   1.000000(     2)      2   90.000(     9)
      4      2  N        1   1.242600(     3)      2   90.000(    10)      3   71.843(    16)      0
      5      3  N        1   1.333000(     4)      2   90.000(    11)      3  133.703(    17)      0
      6      4  N        1   1.114600(     5)      2   90.000(    12)      3  194.460(    18)      0
      7      5  N        1   0.926400(     6)      2   90.000(    13)      3  276.077(    19)      0
      8      6  H        3   1.067800(     7)      4  125.025(    14)      5  180.000(    20)      0
      9      7  H        4   0.994100(     8)      5  120.763(    15)      6  180.000(    21)      0
 ---------------------------------------------------------------------------------------------------
                         Z-Matrix orientation:                         
 ---------------------------------------------------------------------
 Center     Atomic      Atomic             Coordinates (Angstroms)
 Number     Number       Type             X           Y           Z
 ---------------------------------------------------------------------
      1         -1           0        0.000000    0.000000    0.000000
      2         -1           0        0.000000    0.000000    1.000000
      3          6           0        1.000000    0.000000    0.000000
      4          7           0        0.387228   -1.180724    0.000000
      5          7           0       -0.920993   -0.963670    0.000000
      6          7           0       -1.079293    0.278314    0.000000
      7          7           0        0.098070    0.921194    0.000000
      8          1           0        2.058429    0.141157    0.000000
      9          1           0        0.749017   -2.106652    0.000000
 ---------------------------------------------------------------------
                    Distance matrix (angstroms):
                    1          2          3          4          5
     1  X    0.000000
     2  X    1.000000   0.000000
     3  C    1.000000   1.414214   0.000000
     4  N    1.242600   1.595009   1.330263   0.000000
     5  N    1.333000   1.666400   2.149157   1.326105   0.000000
     6  N    1.114600   1.497442   2.097837   2.068690   1.252032
     7  N    0.926400   1.363164   1.289216   2.121715   2.142710
     8  H    2.063263   2.292827   1.067800   2.130794   3.177672
     9  H    2.235847   2.449288   2.121551   0.994100   2.023695
                    6          7          8          9
     6  N    0.000000
     7  N    1.341447   0.000000
     8  H    3.140719   2.109850   0.000000
     9  H    3.005127   3.097029   2.601385   0.000000
 Stoichiometry    CH2N4
 Framework group  CS[SG(CH2N4)]
 Deg. of freedom    11
 Full point group                 CS      NOp   2
 Largest Abelian subgroup         CS      NOp   2
 Largest concise Abelian subgroup C1      NOp   1
                         Standard orientation:                         
 ---------------------------------------------------------------------
 Center     Atomic      Atomic             Coordinates (Angstroms)
 Number     Number       Type             X           Y           Z
 ---------------------------------------------------------------------
      1          6           0        1.052733    0.225621    0.000000
      2          7           0        0.000000    1.038857    0.000000
      3          7           0       -1.095416    0.291448    0.000000
      4          7           0       -0.716382   -0.901832    0.000000
      5          7           0        0.622191   -0.989579    0.000000
      6          1           0        2.072287    0.542964    0.000000
      7          1           0       -0.061439    2.031056    0.000000
 ---------------------------------------------------------------------
 Rotational constants (GHZ):     10.9201517     10.7345054      5.4132664
 Standard basis: CC-pVTZ (5D, 7F)
 There are   142 symmetry adapted cartesian basis functions of A'  symmetry.
 There are    63 symmetry adapted cartesian basis functions of A"  symmetry.
 There are   120 symmetry adapted basis functions of A'  symmetry.
 There are    58 symmetry adapted basis functions of A"  symmetry.
   178 basis functions,   294 primitive gaussians,   205 cartesian basis functions
    18 alpha electrons       18 beta electrons
       nuclear repulsion energy       169.8308489506 Hartrees.
 NAtoms=    7 NActive=    7 NUniq=    7 SFac= 1.00D+00 NAtFMM=   60 NAOKFM=F Big=F
 Integral buffers will be    131072 words long.
 Regular integral format.
 Two-electron integral symmetry is turned on.
 One-electron integrals computed using PRISM.
 NBasis=   178 RedAO= T EigKep=  9.93D-04  NBF=   120    58
 NBsUse=   178 1.00D-06 EigRej= -1.00D+00 NBFU=   120    58
 ExpMin= 1.03D-01 ExpMax= 1.14D+04 ExpMxC= 3.89D+02 IAcc=1 IRadAn=         1 AccDes= 0.00D+00
 Harris functional with IExCor=  419 and IRadAn=       1 diagonalized for initial guess.
 HarFok:  IExCor=  419 AccDes= 0.00D+00 IRadAn=         1 IDoV= 1 UseB2=F ITyADJ=14
 ICtDFT=  3500011 ScaDFX=  1.000000  1.000000  1.000000  1.000000
 FoFCou: FMM=F IPFlag=           0 FMFlag=      100000 FMFlg1=           0
         NFxFlg=           0 DoJE=T BraDBF=F KetDBF=T FulRan=T
         wScrn=  0.000000 ICntrl=     500 IOpCl=  0 I1Cent=   200000004 NGrid=           0
         NMat0=    1 NMatS0=      1 NMatT0=    0 NMatD0=    1 NMtDS0=    0 NMtDT0=    0
 Petite list used in FoFCou.
 Initial guess orbital symmetries:
       Occupied  (A') (A') (A') (A') (A') (A') (A') (A') (A') (A')
                 (A') (A') (A") (A') (A") (A') (A") (A')
       Virtual   (A") (A") (A') (A') (A') (A') (A') (A') (A") (A')
                 (A') (A') (A') (A') (A') (A') (A") (A") (A') (A')
                 (A') (A") (A") (A') (A") (A') (A') (A') (A") (A')
                 (A") (A') (A') (A") (A') (A') (A") (A') (A') (A')
                 (A") (A") (A') (A') (A") (A') (A') (A") (A') (A')
                 (A') (A') (A') (A") (A") (A') (A') (A") (A') (A')
                 (A") (A') (A') (A') (A') (A') (A") (A") (A') (A")
                 (A') (A") (A") (A') (A") (A') (A") (A') (A') (A')
                 (A") (A') (A') (A") (A') (A') (A") (A') (A") (A")
                 (A") (A') (A') (A") (A') (A') (A') (A") (A") (A')
                 (A') (A') (A") (A') (A") (A') (A') (A') (A') (A')
                 (A') (A") (A') (A') (A") (A') (A") (A') (A") (A")
                 (A') (A') (A") (A") (A') (A") (A") (A') (A') (A')
                 (A") (A') (A") (A") (A') (A') (A") (A') (A') (A')
                 (A") (A') (A") (A') (A') (A") (A') (A') (A") (A')
                 (A') (A') (A') (A') (A') (A') (A') (A') (A') (A')
 The electronic state of the initial guess is 1-A'.
 Keep R1 ints in memory in symmetry-blocked form, NReq=191556701.
 Requested convergence on RMS density matrix=1.00D-08 within 128 cycles.
 Requested convergence on MAX density matrix=1.00D-06.
 Requested convergence on             energy=1.00D-06.
 No special actions if energy rises.
 Integral accuracy reduced to 1.0D-05 until final iterations.
 Initial convergence to 1.0D-05 achieved.  Increase integral accuracy.
 SCF Done:  E(RB2PLYP) =  -257.840391105     A.U. after   13 cycles
            NFock= 13  Conv=0.87D-08     -V/T= 2.0033
 DoSCS=T DFT=T ScalE2(SS,OS)=  0.270000  0.270000
 ExpMin= 1.03D-01 ExpMax= 1.14D+04 ExpMxC= 3.89D+02 IAcc=3 IRadAn=         5 AccDes= 0.00D+00
 HarFok:  IExCor=  205 AccDes= 0.00D+00 IRadAn=         5 IDoV=-2 UseB2=F ITyADJ=14
 ICtDFT= 12500011 ScaDFX=  1.000000  1.000000  1.000000  1.000000
 Range of M.O.s used for correlation:     6   178
 NBasis=   178 NAE=    18 NBE=    18 NFC=     5 NFV=     0
 NROrb=    173 NOA=    13 NOB=    13 NVA=   160 NVB=   160

 **** Warning!!: The largest alpha MO coefficient is  0.10802765D+02

 DoSCS=T DFT=T ScalE2(SS,OS)=  0.270000  0.270000
 Fully direct method using O(ONN) memory.
 JobTyp=1 Pass  1:  I=   6 to  14 NPSUse=  8 ParTrn=T ParDer=T DoDerP=T.
 JobTyp=1 Pass  2:  I=  15 to  18 NPSUse=  8 ParTrn=T ParDer=T DoDerP=T.
 Spin components of T(2) and E(2):
     alpha-alpha T2 =       0.6380057645D-01 E2=     -0.4246929741D-01
     alpha-beta  T2 =       0.3221525389D+00 E2=     -0.2286837110D+00
     beta-beta   T2 =       0.6380057645D-01 E2=     -0.4246929741D-01
 E2(B2PLYP) =    -0.3136223058D+00 E(B2PLYP) =    -0.25815401341041D+03
          IDoAtm=1111111
          Differentiating once with respect to electric field.
                with respect to dipole field.
          Differentiating once with respect to nuclear coordinates.
 Keep R1 ints in memory in symmetry-blocked form, NReq=191410634.
          There are     1 degrees of freedom in the 1st order CPHF.  IDoFFX=0 NUNeed=     1.
 LinEq1:  Iter=  0 NonCon=     1 RMS=2.04D-03 Max=3.50D-02 NDo=     1
 AX will form     1 AO Fock derivatives at one time.
 LinEq1:  Iter=  1 NonCon=     1 RMS=5.22D-04 Max=6.63D-03 NDo=     1
 LinEq1:  Iter=  2 NonCon=     1 RMS=2.09D-04 Max=6.14D-03 NDo=     1
 LinEq1:  Iter=  3 NonCon=     1 RMS=9.38D-05 Max=1.83D-03 NDo=     1
 LinEq1:  Iter=  4 NonCon=     1 RMS=5.05D-05 Max=1.44D-03 NDo=     1
 LinEq1:  Iter=  5 NonCon=     1 RMS=2.27D-05 Max=5.63D-04 NDo=     1
 LinEq1:  Iter=  6 NonCon=     1 RMS=1.26D-05 Max=2.39D-04 NDo=     1
 LinEq1:  Iter=  7 NonCon=     1 RMS=4.46D-06 Max=8.05D-05 NDo=     1
 LinEq1:  Iter=  8 NonCon=     1 RMS=2.60D-06 Max=5.16D-05 NDo=     1
 LinEq1:  Iter=  9 NonCon=     1 RMS=6.37D-07 Max=8.17D-06 NDo=     1
 LinEq1:  Iter= 10 NonCon=     1 RMS=4.53D-07 Max=9.46D-06 NDo=     1
 LinEq1:  Iter= 11 NonCon=     1 RMS=1.15D-07 Max=1.35D-06 NDo=     1
 LinEq1:  Iter= 12 NonCon=     1 RMS=2.05D-08 Max=3.84D-07 NDo=     1
 LinEq1:  Iter= 13 NonCon=     1 RMS=4.56D-09 Max=6.57D-08 NDo=     1
 LinEq1:  Iter= 14 NonCon=     1 RMS=1.02D-09 Max=1.62D-08 NDo=     1
 LinEq1:  Iter= 15 NonCon=     1 RMS=2.03D-10 Max=3.04D-09 NDo=     1
 LinEq1:  Iter= 16 NonCon=     0 RMS=3.13D-11 Max=4.05D-10 NDo=     1
 Linear equations converged to 1.000D-10 1.000D-09 after    16 iterations.
 End of Minotr F.D. properties file   721 does not exist.
 End of Minotr F.D. properties file   722 does not exist.
 End of Minotr F.D. properties file   788 does not exist.

 **********************************************************************

            Population analysis using the MP2 density.

 **********************************************************************

 Orbital symmetries:
       Occupied  (A') (A') (A') (A') (A') (A') (A') (A') (A') (A')
                 (A') (A") (A') (A') (A") (A') (A") (A')
       Virtual   (A") (A') (A") (A') (A') (A') (A') (A') (A") (A')
                 (A') (A') (A') (A') (A') (A") (A") (A') (A') (A')
                 (A") (A') (A") (A') (A") (A') (A') (A") (A') (A')
                 (A") (A') (A') (A") (A') (A') (A') (A") (A') (A')
                 (A") (A") (A') (A') (A") (A') (A') (A") (A') (A')
                 (A') (A') (A") (A') (A") (A') (A") (A') (A') (A')
                 (A") (A') (A') (A') (A') (A') (A") (A") (A') (A")
                 (A") (A') (A") (A') (A') (A") (A") (A') (A') (A')
                 (A") (A') (A') (A") (A') (A") (A') (A') (A") (A")
                 (A') (A") (A') (A") (A') (A') (A") (A') (A") (A')
                 (A') (A") (A') (A") (A') (A') (A') (A') (A') (A')
                 (A') (A") (A') (A') (A") (A') (A") (A') (A") (A")
                 (A') (A') (A") (A") (A') (A") (A") (A') (A') (A')
                 (A") (A') (A") (A") (A') (A") (A') (A') (A') (A")
                 (A') (A') (A") (A') (A") (A') (A') (A') (A") (A')
                 (A') (A') (A') (A') (A') (A') (A') (A') (A') (A')
 The electronic state is 1-A'.
 Alpha  occ. eigenvalues --  -14.95263 -14.92246 -14.90418 -14.86988 -10.70946
 Alpha  occ. eigenvalues --   -1.31646  -1.08856  -1.03555  -0.78467  -0.76993
 Alpha  occ. eigenvalues --   -0.69426  -0.59040  -0.58320  -0.46764  -0.39237
 Alpha  occ. eigenvalues --   -0.37854  -0.36659  -0.36539
 Alpha virt. eigenvalues --    0.04509   0.05617   0.08614   0.10048   0.19610
 Alpha virt. eigenvalues --    0.21517   0.25184   0.32320   0.32820   0.37324
 Alpha virt. eigenvalues --    0.42505   0.45080   0.46004   0.47857   0.49038
 Alpha virt. eigenvalues --    0.50137   0.53065   0.53926   0.56595   0.61077
 Alpha virt. eigenvalues --    0.62194   0.63547   0.64847   0.67930   0.68195
 Alpha virt. eigenvalues --    0.74761   0.75728   0.83290   0.83698   0.87067
 Alpha virt. eigenvalues --    0.88601   0.89601   0.98861   0.98910   1.04307
 Alpha virt. eigenvalues --    1.05665   1.09203   1.11433   1.23081   1.30705
 Alpha virt. eigenvalues --    1.32707   1.37771   1.40705   1.46575   1.47876
 Alpha virt. eigenvalues --    1.49721   1.53454   1.59176   1.61549   1.67082
 Alpha virt. eigenvalues --    1.70494   1.74367   1.76272   1.76685   1.83894
 Alpha virt. eigenvalues --    1.86850   2.01260   2.01928   2.02972   2.09819
 Alpha virt. eigenvalues --    2.19305   2.21921   2.38712   2.50363   2.57254
 Alpha virt. eigenvalues --    2.69204   2.79067   2.83529   2.87606   2.91005
 Alpha virt. eigenvalues --    2.97777   2.97823   2.99386   3.03224   3.08729
 Alpha virt. eigenvalues --    3.10031   3.18556   3.19319   3.24588   3.27578
 Alpha virt. eigenvalues --    3.28400   3.35599   3.39936   3.43657   3.48714
 Alpha virt. eigenvalues --    3.51284   3.52156   3.57995   3.60375   3.64920
 Alpha virt. eigenvalues --    3.68995   3.69381   3.73297   3.74309   3.76686
 Alpha virt. eigenvalues --    3.83760   3.89371   3.89681   3.91414   3.98925
 Alpha virt. eigenvalues --    4.05096   4.06395   4.07616   4.10578   4.13232
 Alpha virt. eigenvalues --    4.15892   4.20268   4.29517   4.35482   4.47441
 Alpha virt. eigenvalues --    4.51173   4.52068   4.60416   4.63253   4.66772
 Alpha virt. eigenvalues --    4.67055   4.75003   4.78147   4.82407   4.85411
 Alpha virt. eigenvalues --    4.85525   4.92904   4.93379   4.96796   5.01795
 Alpha virt. eigenvalues --    5.03203   5.04400   5.05321   5.11555   5.13940
 Alpha virt. eigenvalues --    5.14131   5.21618   5.32751   5.37912   5.44549
 Alpha virt. eigenvalues --    5.44855   5.46937   5.51672   5.58321   5.67807
 Alpha virt. eigenvalues --    5.68556   5.72749   5.86780   5.92130   5.97677
 Alpha virt. eigenvalues --    6.03286   6.08320   6.12381   6.13006   6.28882
 Alpha virt. eigenvalues --    6.35870   6.49235   6.89015   7.10179   7.21877
 Alpha virt. eigenvalues --    8.18058  11.12408  12.46011  13.56671  14.22666
          Condensed to atoms (all electrons):
               1          2          3          4          5          6
     1  C    4.866855   0.460134  -0.101571  -0.115304   0.580235   0.408588
     2  N    0.460134   6.105544   0.307827  -0.112357  -0.098839  -0.034338
     3  N   -0.101571   0.307827   6.567225   0.427991  -0.116041   0.003499
     4  N   -0.115304  -0.112357   0.427991   6.505493   0.359362   0.002443
     5  N    0.580235  -0.098839  -0.116041   0.359362   6.426881  -0.022470
     6  H    0.408588  -0.034338   0.003499   0.002443  -0.022470   0.484600
     7  H   -0.029587   0.379891  -0.024438   0.007104   0.007760  -0.001416
               7
     1  C   -0.029587
     2  N    0.379891
     3  N   -0.024438
     4  N    0.007104
     5  N    0.007760
     6  H   -0.001416
     7  H    0.466457
 Mulliken charges:
               1
     1  C   -0.069349
     2  N   -0.007863
     3  N   -0.064493
     4  N   -0.074731
     5  N   -0.136889
     6  H    0.159094
     7  H    0.194230
 Sum of Mulliken charges =   0.00000
 Mulliken charges with hydrogens summed into heavy atoms:
               1
     1  C    0.089745
     2  N    0.186368
     3  N   -0.064493
     4  N   -0.074731
     5  N   -0.136889
 Electronic spatial extent (au):  <R**2>=            244.6628
 Charge=              0.0000 electrons
 Dipole moment (field-independent basis, Debye):
    X=              2.4197    Y=              4.6916    Z=              0.0000  Tot=              5.2788
 Quadrupole moment (field-independent basis, Debye-Ang):
   XX=            -29.0428   YY=            -26.5334   ZZ=            -28.1943
   XY=              1.7632   XZ=              0.0000   YZ=              0.0000
 Traceless Quadrupole moment (field-independent basis, Debye-Ang):
   XX=             -1.1193   YY=              1.3901   ZZ=             -0.2708
   XY=              1.7632   XZ=              0.0000   YZ=              0.0000
 Octapole moment (field-independent basis, Debye-Ang**2):
  XXX=             11.3581  YYY=             21.7361  ZZZ=              0.0000  XYY=             -0.6883
  XXY=              4.4584  XXZ=              0.0000  XZZ=             -0.7942  YZZ=              0.5929
  YYZ=              0.0000  XYZ=              0.0000
 Hexadecapole moment (field-independent basis, Debye-Ang**3):
 XXXX=           -141.6289 YYYY=           -119.7218 ZZZZ=            -25.7479 XXXY=              6.4799
 XXXZ=              0.0000 YYYX=             -0.3708 YYYZ=              0.0000 ZZZX=              0.0000
 ZZZY=              0.0000 XXYY=            -53.1057 XXZZ=            -30.0969 YYZZ=            -28.3165
 XXYZ=              0.0000 YYXZ=              0.0000 ZZXY=             -0.0786
 N-N= 1.698308489506D+02 E-N=-9.427200798072D+02  KE= 2.575461994005D+02
 Symmetry A'   KE= 2.479392277316D+02
 Symmetry A"   KE= 9.606971668937D+00
 Calling FoFJK, ICntrl=  10002127 FMM=F ISym2X=1 I1Cent= 0 IOpClX= 0 NMat=1 NMatS=1 NMatT=0.
 ***** Axes restored to original set *****
 -------------------------------------------------------------------
 Center     Atomic                   Forces (Hartrees/Bohr)
 Number     Number              X              Y              Z
 -------------------------------------------------------------------
      1        6           0.022732764   -0.005515498    0.000000000
      2        7           0.010674484   -0.009218372    0.000000000
      3        7          -0.016769993   -0.042152104    0.000000000
      4        7          -0.025330920    0.034080528    0.000000000
      5        7           0.000592316    0.031842340    0.000000000
      6        1           0.004349896    0.000383875    0.000000000
      7        1           0.003751454   -0.009420768    0.000000000
 -------------------------------------------------------------------
 Cartesian Forces:  Max     0.042152104 RMS     0.016537794
 -----------------------------------------------------------------------------------------------
                       Internal Coordinate Forces (Hartree/Bohr or radian)
  Cent   Atom   N1       Length/X         N2         Alpha/Y        N3         Beta/Z          J
 -----------------------------------------------------------------------------------------------
         X 
         X        1   0.000000(     1)
      1  C        1   0.027221(     2)      2   0.000000(     9)
      2  N        1   0.022051(     3)      2   0.000000(    10)      3  -0.018345(    16)     0
      3  N        1   0.042101(     4)      2   0.000000(    11)      3  -0.042893(    17)     0
      4  N        1   0.033038(     5)      2   0.000000(    12)      3   0.056187(    18)     0
      5  N        1   0.031726(     6)      2   0.000000(    13)      3  -0.004870(    19)     0
      6  H        3   0.004362(     7)      4  -0.000393(    14)      5   0.000000(    20)     0
      7  H        4   0.010140(     8)      5   0.000123(    15)      6   0.000000(    21)     0
 -----------------------------------------------------------------------------------------------
 Internal  Forces:  Max     0.056187088 RMS     0.022442398

 GradGradGradGradGradGradGradGradGradGradGradGradGradGradGradGradGradGrad
 Berny optimization.
 Search for a local minimum.
 Step number   1 out of a maximum of   22
 All quantities printed in internal units (Hartrees-Bohrs-Radians)
 Second derivative matrix not updated -- first step.
 The second derivative matrix:
                          rn1       rn2       rn3       rn4       rch
           rn1          0.65186
           rn2          0.01318   0.69869
           rn3          0.03472   0.07334   0.58262
           rn4          0.03688   0.02662   0.13967   0.63921
           rch          0.00000   0.00000   0.00000   0.00000   0.37510
           rnh          0.00000   0.00000   0.00000   0.00000   0.00000
           an1          0.02012  -0.75016   0.04258  -0.08486   0.00000
           an2          0.72119  -0.31234  -0.71865   0.05436   0.00000
           an3         -0.02914   1.04797   0.05412  -0.58583   0.00000
           an4          0.05328  -0.03228   0.65851  -0.10009   0.00000
           ach          0.04546   0.00000   0.00000   0.05066   0.00000
           anh         -0.10206   0.05276   0.00000   0.00000   0.00000
                          rnh       an1       an2       an3       an4
           rnh          0.48741
           an1          0.00000   4.53257
           an2          0.00000  -2.68051   6.02300
           an3          0.00000  -0.03573  -3.19618   4.47465
           an4          0.00000  -0.12258  -0.06592  -1.16042   2.58479
           ach          0.00000  -0.10460   0.00000   0.00000   0.07318
           anh          0.00000   0.03519  -0.09059   0.00000   0.00000
                          ach       anh
           ach          0.32000
           anh          0.00000   0.32000
 ITU=  0
     Eigenvalues ---    0.00000   0.13346   0.26445   0.33044   0.37510
     Eigenvalues ---    0.40158   0.48741   0.75609   1.20990   2.99509
     Eigenvalues ---    5.09563   9.64077
 RFO step:  Lambda=-6.12004995D-03 EMin=-6.95624114D-16
 Linear search not attempted -- first point.
 Variable       Old X    -DE/DX   Delta X   Delta X   Delta X     New X
                                 (Linear)    (Quad)   (Total)
   rn1        2.34817   0.02205   0.00000   0.02252   0.02252   2.37069
   rn2        2.51900   0.04210   0.00000   0.05659   0.05659   2.57560
   rn3        2.10629   0.03304   0.00000   0.05977   0.05977   2.16606
   rn4        1.75064   0.03173   0.00000   0.03492   0.03492   1.78556
   rch        2.01785   0.00436   0.00000   0.01144   0.01144   2.02929
   rnh        1.87858   0.01014   0.00000   0.02055   0.02055   1.89912
   an1        1.25389  -0.01835   0.00000   0.00805   0.00805   1.26194
   an2        2.33355  -0.04289   0.00000   0.00534   0.00534   2.33890
   an3        3.39396   0.05619   0.00000   0.00376   0.00376   3.39772
   an4        4.81845  -0.00487   0.00000  -0.01316  -0.01316   4.80529
   ach        2.18209  -0.00039   0.00000  -0.00423  -0.00423   2.17786
   anh        2.10770   0.00012   0.00000  -0.00111  -0.00111   2.10659
         Item               Value     Threshold  Converged?
 Maximum Force            0.056187     0.000450     NO 
 RMS     Force            0.028630     0.000300     NO 
 Maximum Displacement     0.059768     0.001800     NO 
 RMS     Displacement     0.027920     0.001200     NO 
 Predicted change in Energy=-3.088650D-03
 GradGradGradGradGradGradGradGradGradGradGradGradGradGradGradGradGradGrad

 ---------------------------------------------------------------------------------------------------
                            Z-MATRIX (ANGSTROMS AND DEGREES)
   CD    Cent   Atom    N1       Length/X        N2       Alpha/Y        N3        Beta/Z          J
 ---------------------------------------------------------------------------------------------------
      1         X 
      2         X        1   1.000000(     1)
      3      1  C        1   1.000000(     2)      2   90.000(     9)
      4      2  N        1   1.254516(     3)      2   90.000(    10)      3   72.304(    16)      0
      5      3  N        1   1.362947(     4)      2   90.000(    11)      3  134.009(    17)      0
      6      4  N        1   1.146228(     5)      2   90.000(    12)      3  194.675(    18)      0
      7      5  N        1   0.944879(     6)      2   90.000(    13)      3  275.323(    19)      0
      8      6  H        3   1.073856(     7)      4  124.782(    14)      5  180.000(    20)      0
      9      7  H        4   1.004972(     8)      5  120.699(    15)      6  180.000(    21)      0
 ---------------------------------------------------------------------------------------------------
                         Z-Matrix orientation:                         
 ---------------------------------------------------------------------
 Center     Atomic      Atomic             Coordinates (Angstroms)
 Number     Number       Type             X           Y           Z
 ---------------------------------------------------------------------
      1         -1           0        0.000000    0.000000    0.000000
      2         -1           0        0.000000    0.000000    1.000000
      3          6           0        1.000000    0.000000    0.000000
      4          7           0        0.381338   -1.195153    0.000000
      5          7           0       -0.946937   -0.980273    0.000000
      6          7           0       -1.108834    0.290386    0.000000
      7          7           0        0.087655    0.940805    0.000000
      8          1           0        2.064877    0.138572    0.000000
      9          1           0        0.749816   -2.130136    0.000000
 ---------------------------------------------------------------------
                    Distance matrix (angstroms):
                    1          2          3          4          5
     1  X    0.000000
     2  X    1.000000   0.000000
     3  C    1.000000   1.414214   0.000000
     4  N    1.254516   1.604310   1.345784   0.000000
     5  N    1.362947   1.690451   2.179793   1.345543   0.000000
     6  N    1.146228   1.521130   2.128734   2.104148   1.280932
     7  N    0.944879   1.375789   1.310529   2.156053   2.181954
     8  H    2.069522   2.298461   1.073856   2.147819   3.212918
     9  H    2.258252   2.469758   2.144778   1.004972   2.049671
                    6          7          8          9
     6  N    0.000000
     7  N    1.361849   0.000000
     8  H    3.177341   2.133773   0.000000
     9  H    3.051804   3.141518   2.622294   0.000000
 Stoichiometry    CH2N4
 Framework group  CS[SG(CH2N4)]
 Deg. of freedom    11
 Full point group                 CS      NOp   2
 Largest Abelian subgroup         CS      NOp   2
 Largest concise Abelian subgroup C1      NOp   1
                         Standard orientation:                         
 ---------------------------------------------------------------------
 Center     Atomic      Atomic             Coordinates (Angstroms)
 Number     Number       Type             X           Y           Z
 ---------------------------------------------------------------------
      1          6           0        1.065176    0.232198    0.000000
      2          7           0        0.000000    1.054715    0.000000
      3          7           0       -1.113580    0.299450    0.000000
      4          7           0       -0.724220   -0.920872    0.000000
      5          7           0        0.634984   -1.005712    0.000000
      6          1           0        2.089088    0.555879    0.000000
      7          1           0       -0.060434    2.057869    0.000000
 ---------------------------------------------------------------------
 Rotational constants (GHZ):     10.5753702     10.4142525      5.2470965
 Standard basis: CC-pVTZ (5D, 7F)
 There are   142 symmetry adapted cartesian basis functions of A'  symmetry.
 There are    63 symmetry adapted cartesian basis functions of A"  symmetry.
 There are   120 symmetry adapted basis functions of A'  symmetry.
 There are    58 symmetry adapted basis functions of A"  symmetry.
   178 basis functions,   294 primitive gaussians,   205 cartesian basis functions
    18 alpha electrons       18 beta electrons
       nuclear repulsion energy       167.2021235149 Hartrees.
 NAtoms=    7 NActive=    7 NUniq=    7 SFac= 1.00D+00 NAtFMM=   60 NAOKFM=F Big=F
 Integral buffers will be    131072 words long.
 Regular integral format.
 Two-electron integral symmetry is turned on.
 One-electron integrals computed using PRISM.
 NBasis=   178 RedAO= T EigKep=  1.11D-03  NBF=   120    58
 NBsUse=   178 1.00D-06 EigRej= -1.00D+00 NBFU=   120    58
 Initial guess from the checkpoint file:  "/tmp/rdj3/g09-23219/Gau-11484.chk"
 B after Tr=     0.000000    0.000000    0.000000
         Rot=    1.000000    0.000000    0.000000   -0.000759 Ang=  -0.09 deg.
 Initial guess orbital symmetries:
       Occupied  (A') (A') (A') (A') (A') (A') (A') (A') (A') (A')
                 (A') (A") (A') (A') (A") (A') (A") (A')
       Virtual   (A') (A') (A') (A') (A') (A') (A') (A') (A') (A')
                 (A') (A') (A') (A') (A') (A') (A') (A') (A') (A')
                 (A') (A') (A') (A') (A') (A') (A') (A') (A') (A')
                 (A') (A') (A') (A') (A') (A') (A') (A') (A') (A')
                 (A') (A') (A') (A') (A') (A') (A') (A') (A') (A')
                 (A') (A') (A') (A') (A') (A') (A') (A') (A') (A')
                 (A') (A') (A') (A') (A') (A') (A') (A') (A') (A')
                 (A') (A') (A') (A') (A') (A') (A') (A') (A') (A')
                 (A') (A') (A') (A') (A') (A') (A') (A') (A') (A')
                 (A') (A') (A') (A') (A') (A') (A') (A') (A') (A')
                 (A') (A') (A') (A') (A') (A") (A") (A") (A") (A")
                 (A") (A") (A") (A") (A") (A") (A") (A") (A") (A")
                 (A") (A") (A") (A") (A") (A") (A") (A") (A") (A")
                 (A") (A") (A") (A") (A") (A") (A") (A") (A") (A")
                 (A") (A") (A") (A") (A") (A") (A") (A") (A") (A")
                 (A") (A") (A") (A") (A") (A") (A") (A") (A") (A")
 ExpMin= 1.03D-01 ExpMax= 1.14D+04 ExpMxC= 3.89D+02 IAcc=1 IRadAn=         1 AccDes= 0.00D+00
 Harris functional with IExCor=  419 and IRadAn=       1 diagonalized for initial guess.
 HarFok:  IExCor=  419 AccDes= 0.00D+00 IRadAn=         1 IDoV= 1 UseB2=F ITyADJ=14
 ICtDFT=  3500011 ScaDFX=  1.000000  1.000000  1.000000  1.000000
 FoFCou: FMM=F IPFlag=           0 FMFlag=      100000 FMFlg1=           0
         NFxFlg=           0 DoJE=T BraDBF=F KetDBF=T FulRan=T
         wScrn=  0.000000 ICntrl=     500 IOpCl=  0 I1Cent=   200000004 NGrid=           0
         NMat0=    1 NMatS0=      1 NMatT0=    0 NMatD0=    1 NMtDS0=    0 NMtDT0=    0
 Petite list used in FoFCou.
 Keep R1 ints in memory in symmetry-blocked form, NReq=191556701.
 Requested convergence on RMS density matrix=1.00D-08 within 128 cycles.
 Requested convergence on MAX density matrix=1.00D-06.
 Requested convergence on             energy=1.00D-06.
 No special actions if energy rises.
 Integral accuracy reduced to 1.0D-05 until final iterations.
 Initial convergence to 1.0D-05 achieved.  Increase integral accuracy.
 SCF Done:  E(RB2PLYP) =  -257.839789412     A.U. after   11 cycles
            NFock= 11  Conv=0.85D-08     -V/T= 2.0046
 DoSCS=T DFT=T ScalE2(SS,OS)=  0.270000  0.270000
 ExpMin= 1.03D-01 ExpMax= 1.14D+04 ExpMxC= 3.89D+02 IAcc=3 IRadAn=         5 AccDes= 0.00D+00
 HarFok:  IExCor=  205 AccDes= 0.00D+00 IRadAn=         5 IDoV=-2 UseB2=F ITyADJ=14
 ICtDFT= 12500011 ScaDFX=  1.000000  1.000000  1.000000  1.000000
 Range of M.O.s used for correlation:     6   178
 NBasis=   178 NAE=    18 NBE=    18 NFC=     5 NFV=     0
 NROrb=    173 NOA=    13 NOB=    13 NVA=   160 NVB=   160

 **** Warning!!: The largest alpha MO coefficient is  0.10134550D+02

 DoSCS=T DFT=T ScalE2(SS,OS)=  0.270000  0.270000
 Fully direct method using O(ONN) memory.
 JobTyp=1 Pass  1:  I=   6 to  14 NPSUse=  8 ParTrn=T ParDer=T DoDerP=T.
 JobTyp=1 Pass  2:  I=  15 to  18 NPSUse=  8 ParTrn=T ParDer=T DoDerP=T.
 Spin components of T(2) and E(2):
     alpha-alpha T2 =       0.6643639789D-01 E2=     -0.4298551051D-01
     alpha-beta  T2 =       0.3358712990D+00 E2=     -0.2316233738D+00
     beta-beta   T2 =       0.6643639789D-01 E2=     -0.4298551051D-01
 E2(B2PLYP) =    -0.3175943948D+00 E(B2PLYP) =    -0.25815738380688D+03
          IDoAtm=1111111
          Differentiating once with respect to electric field.
                with respect to dipole field.
          Differentiating once with respect to nuclear coordinates.
 Keep R1 ints in memory in symmetry-blocked form, NReq=191410634.
          There are     1 degrees of freedom in the 1st order CPHF.  IDoFFX=0 NUNeed=     1.
 LinEq1:  Iter=  0 NonCon=     1 RMS=2.13D-03 Max=3.62D-02 NDo=     1
 AX will form     1 AO Fock derivatives at one time.
 LinEq1:  Iter=  1 NonCon=     1 RMS=5.58D-04 Max=6.44D-03 NDo=     1
 LinEq1:  Iter=  2 NonCon=     1 RMS=2.33D-04 Max=7.24D-03 NDo=     1
 LinEq1:  Iter=  3 NonCon=     1 RMS=1.11D-04 Max=1.73D-03 NDo=     1
 LinEq1:  Iter=  4 NonCon=     1 RMS=5.62D-05 Max=1.31D-03 NDo=     1
 LinEq1:  Iter=  5 NonCon=     1 RMS=2.38D-05 Max=6.26D-04 NDo=     1
 LinEq1:  Iter=  6 NonCon=     1 RMS=1.29D-05 Max=2.29D-04 NDo=     1
 LinEq1:  Iter=  7 NonCon=     1 RMS=5.00D-06 Max=7.52D-05 NDo=     1
 LinEq1:  Iter=  8 NonCon=     1 RMS=3.28D-06 Max=8.14D-05 NDo=     1
 LinEq1:  Iter=  9 NonCon=     1 RMS=8.66D-07 Max=1.07D-05 NDo=     1
 LinEq1:  Iter= 10 NonCon=     1 RMS=6.74D-07 Max=1.33D-05 NDo=     1
 LinEq1:  Iter= 11 NonCon=     1 RMS=1.61D-07 Max=2.10D-06 NDo=     1
 LinEq1:  Iter= 12 NonCon=     1 RMS=3.07D-08 Max=5.34D-07 NDo=     1
 LinEq1:  Iter= 13 NonCon=     1 RMS=7.06D-09 Max=9.85D-08 NDo=     1
 LinEq1:  Iter= 14 NonCon=     1 RMS=1.61D-09 Max=2.46D-08 NDo=     1
 LinEq1:  Iter= 15 NonCon=     1 RMS=3.08D-10 Max=5.92D-09 NDo=     1
 LinEq1:  Iter= 16 NonCon=     0 RMS=4.71D-11 Max=5.94D-10 NDo=     1
 Linear equations converged to 1.000D-10 1.000D-09 after    16 iterations.
 End of Minotr F.D. properties file   721 does not exist.
 End of Minotr F.D. properties file   722 does not exist.
 End of Minotr F.D. properties file   788 does not exist.
 Calling FoFJK, ICntrl=  10002127 FMM=F ISym2X=1 I1Cent= 0 IOpClX= 0 NMat=1 NMatS=1 NMatT=0.
 ***** Axes restored to original set *****
 -------------------------------------------------------------------
 Center     Atomic                   Forces (Hartrees/Bohr)
 Number     Number              X              Y              Z
 -------------------------------------------------------------------
      1        6           0.001362218   -0.002729631    0.000000000
      2        7           0.002772075    0.003376040    0.000000000
      3        7          -0.003111248   -0.010684633    0.000000000
      4        7          -0.002787648    0.007245304    0.000000000
      5        7           0.001916007    0.002981137    0.000000000
      6        1          -0.000140792    0.000012268    0.000000000
      7        1          -0.000010613   -0.000200485    0.000000000
 -------------------------------------------------------------------
 Cartesian Forces:  Max     0.010684633 RMS     0.003274096
 -----------------------------------------------------------------------------------------------
                       Internal Coordinate Forces (Hartree/Bohr or radian)
  Cent   Atom   N1       Length/X         N2         Alpha/Y        N3         Beta/Z          J
 -----------------------------------------------------------------------------------------------
         X 
         X        1   0.000000(     1)
      1  C        1   0.001200(     2)      2   0.000000(     9)
      2  N        1  -0.002113(     3)      2   0.000000(    10)      3  -0.008499(    16)     0
      3  N        1   0.009795(     4)      2   0.000000(    11)      3  -0.013265(    17)     0
      4  N        1   0.004532(     5)      2   0.000000(    12)      3   0.013652(    18)     0
      5  N        1   0.003146(     6)      2   0.000000(    13)      3   0.002913(    19)     0
      6  H        3  -0.000138(     7)      4   0.000062(    14)      5   0.000000(    20)     0
      7  H        4   0.000183(     8)      5  -0.000158(    15)      6   0.000000(    21)     0
 -----------------------------------------------------------------------------------------------
 Internal  Forces:  Max     0.013652041 RMS     0.005234567

 GradGradGradGradGradGradGradGradGradGradGradGradGradGradGradGradGradGrad
 Berny optimization.
 Search for a local minimum.
 Step number   2 out of a maximum of   22
 All quantities printed in internal units (Hartrees-Bohrs-Radians)
 Update second derivatives using D2CorN and points    1    2
 DE= -3.37D-03 DEPred=-3.09D-03 R= 1.09D+00
 TightC=F SS=  1.41D+00  RLast= 9.67D-02 DXNew= 5.0454D-01 2.9015D-01
 Trust test= 1.09D+00 RLast= 9.67D-02 DXMaxT set to 3.00D-01
 The second derivative matrix:
                          rn1       rn2       rn3       rn4       rch
           rn1          0.65728
           rn2          0.00862   0.64152
           rn3          0.03690   0.03055   0.55600
           rn4          0.03756   0.00011   0.12253   0.62827
           rch          0.00163  -0.00515  -0.00188  -0.00141   0.37535
           rnh          0.00240  -0.01055  -0.00476  -0.00333   0.00019
           an1          0.03138  -0.72837   0.06810  -0.07016   0.00532
           an2          0.73784  -0.27481  -0.67736   0.07834   0.00819
           an3         -0.04509   1.00484   0.00974  -0.61185  -0.00829
           an4          0.04810  -0.03469   0.65188  -0.10362  -0.00198
           ach          0.04485   0.00187   0.00066   0.05116  -0.00010
           anh         -0.10201   0.05378   0.00073   0.00046   0.00008
                          rnh       an1       an2       an3       an4
           rnh          0.48728
           an1          0.00936   4.53993
           an2          0.01459  -2.67235   6.03060
           an3         -0.01498  -0.03988  -3.19740   4.46917
           an4         -0.00325  -0.12988  -0.07613  -1.15144   2.58900
           ach         -0.00008  -0.10657  -0.00303   0.00307   0.07391
           anh          0.00017   0.03474  -0.09134   0.00084   0.00007
                          ach       anh
           ach          0.32004
           anh         -0.00003   0.31998
 ITU=  1  0
     Eigenvalues ---    0.00001   0.12733   0.26551   0.32874   0.37518
     Eigenvalues ---    0.39260   0.48721   0.72824   1.20909   2.98663
     Eigenvalues ---    5.08120   9.63269
 RFO step:  Lambda=-1.23214930D-04 EMin= 6.80888703D-06
 Quartic linear search produced a step of  0.15673.
 Variable       Old X    -DE/DX   Delta X   Delta X   Delta X     New X
                                 (Linear)    (Quad)   (Total)
   rn1        2.37069  -0.00211   0.00353   0.10141   0.10493   2.47563
   rn2        2.57560   0.00980   0.00887   0.09488   0.10375   2.67935
   rn3        2.16606   0.00453   0.00937  -0.03003  -0.02067   2.14539
   rn4        1.78556   0.00315   0.00547  -0.11739  -0.11192   1.67365
   rch        2.02929  -0.00014   0.00179  -0.00186  -0.00006   2.02923
   rnh        1.89912   0.00018   0.00322  -0.00224   0.00098   1.90011
   an1        1.26194  -0.00850   0.00126  -0.04630  -0.04504   1.21690
   an2        2.33890  -0.01326   0.00084  -0.09426  -0.09342   2.24548
   an3        3.39772   0.01365   0.00059  -0.11627  -0.11568   3.28205
   an4        4.80529   0.00291  -0.00206  -0.05304  -0.05510   4.75019
   ach        2.17786   0.00006  -0.00066   0.00142   0.00075   2.17862
   anh        2.10659  -0.00016  -0.00017  -0.00560  -0.00578   2.10082
         Item               Value     Threshold  Converged?
 Maximum Force            0.013652     0.000450     NO 
 RMS     Force            0.006916     0.000300     NO 
 Maximum Displacement     0.115678     0.001800     NO 
 RMS     Displacement     0.071842     0.001200     NO 
 Predicted change in Energy=-1.085361D-04
 GradGradGradGradGradGradGradGradGradGradGradGradGradGradGradGradGradGrad

 ---------------------------------------------------------------------------------------------------
                            Z-MATRIX (ANGSTROMS AND DEGREES)
   CD    Cent   Atom    N1       Length/X        N2       Alpha/Y        N3        Beta/Z          J
 ---------------------------------------------------------------------------------------------------
      1         X 
      2         X        1   1.000000(     1)
      3      1  C        1   1.000000(     2)      2   90.000(     9)
      4      2  N        1   1.310045(     3)      2   90.000(    10)      3   69.723(    16)      0
      5      3  N        1   1.417850(     4)      2   90.000(    11)      3  128.656(    17)      0
      6      4  N        1   1.135291(     5)      2   90.000(    12)      3  188.047(    18)      0
      7      5  N        1   0.885656(     6)      2   90.000(    13)      3  272.166(    19)      0
      8      6  H        3   1.073821(     7)      4  124.825(    14)      5  180.000(    20)      0
      9      7  H        4   1.005492(     8)      5  120.368(    15)      6  180.000(    21)      0
 ---------------------------------------------------------------------------------------------------
                         Z-Matrix orientation:                         
 ---------------------------------------------------------------------
 Center     Atomic      Atomic             Coordinates (Angstroms)
 Number     Number       Type             X           Y           Z
 ---------------------------------------------------------------------
      1         -1           0        0.000000    0.000000    0.000000
      2         -1           0        0.000000    0.000000    1.000000
      3          6           0        1.000000    0.000000    0.000000
      4          7           0        0.454002   -1.228861    0.000000
      5          7           0       -0.885658   -1.107208    0.000000
      6          7           0       -1.124111    0.158933    0.000000
      7          7           0        0.033471    0.885023    0.000000
      8          1           0        2.054557    0.202490    0.000000
      9          1           0        0.881789   -2.138813    0.000000
 ---------------------------------------------------------------------
                    Distance matrix (angstroms):
                    1          2          3          4          5
     1  X    0.000000
     2  X    1.000000   0.000000
     3  C    1.000000   1.414214   0.000000
     4  N    1.310045   1.648095   1.344698   0.000000
     5  N    1.417850   1.735021   2.186690   1.345172   0.000000
     6  N    1.135291   1.512906   2.130049   2.101527   1.288399
     7  N    0.885656   1.335809   1.310513   2.155308   2.194033
     8  H    2.064511   2.293950   1.073821   2.147217   3.218721
     9  H    2.313455   2.520332   2.142077   1.005492   2.046479
                    6          7          8          9
     6  N    0.000000
     7  N    1.366456   0.000000
     8  H    3.178967   2.133223   0.000000
     9  H    3.050127   3.140578   2.618603   0.000000
 Stoichiometry    CH2N4
 Framework group  CS[SG(CH2N4)]
 Deg. of freedom    11
 Full point group                 CS      NOp   2
 Largest Abelian subgroup         CS      NOp   2
 Largest concise Abelian subgroup C1      NOp   1
                         Standard orientation:                         
 ---------------------------------------------------------------------
 Center     Atomic      Atomic             Coordinates (Angstroms)
 Number     Number       Type             X           Y           Z
 ---------------------------------------------------------------------
      1          6           0        1.066313    0.232041    0.000000
      2          7           0        0.000000    1.051303    0.000000
      3          7           0       -1.119160    0.304999    0.000000
      4          7           0       -0.724389   -0.921430    0.000000
      5          7           0        0.639387   -1.006982    0.000000
      6          1           0        2.089648    0.557429    0.000000
      7          1           0       -0.058391    2.055098    0.000000
 ---------------------------------------------------------------------
 Rotational constants (GHZ):     10.5935288     10.3385304      5.2322382
 Standard basis: CC-pVTZ (5D, 7F)
 There are   142 symmetry adapted cartesian basis functions of A'  symmetry.
 There are    63 symmetry adapted cartesian basis functions of A"  symmetry.
 There are   120 symmetry adapted basis functions of A'  symmetry.
 There are    58 symmetry adapted basis functions of A"  symmetry.
   178 basis functions,   294 primitive gaussians,   205 cartesian basis functions
    18 alpha electrons       18 beta electrons
       nuclear repulsion energy       166.9573811097 Hartrees.
 NAtoms=    7 NActive=    7 NUniq=    7 SFac= 1.00D+00 NAtFMM=   60 NAOKFM=F Big=F
 Integral buffers will be    131072 words long.
 Regular integral format.
 Two-electron integral symmetry is turned on.
 One-electron integrals computed using PRISM.
 NBasis=   178 RedAO= T EigKep=  1.13D-03  NBF=   120    58
 NBsUse=   178 1.00D-06 EigRej= -1.00D+00 NBFU=   120    58
 Initial guess from the checkpoint file:  "/tmp/rdj3/g09-23219/Gau-11484.chk"
 B after Tr=     0.000000    0.000000    0.000000
         Rot=    1.000000    0.000000    0.000000    0.000077 Ang=   0.01 deg.
 Initial guess orbital symmetries:
       Occupied  (A') (A') (A') (A') (A') (A') (A') (A') (A') (A')
                 (A') (A") (A') (A') (A") (A') (A') (A")
       Virtual   (A') (A') (A') (A') (A') (A') (A') (A') (A') (A')
                 (A') (A') (A') (A') (A') (A') (A') (A') (A') (A')
                 (A') (A') (A') (A') (A') (A') (A') (A') (A') (A')
                 (A') (A') (A') (A') (A') (A') (A') (A') (A') (A')
                 (A') (A') (A') (A') (A') (A') (A') (A') (A') (A')
                 (A') (A') (A') (A') (A') (A') (A') (A') (A') (A')
                 (A') (A') (A') (A') (A') (A') (A') (A') (A') (A')
                 (A') (A') (A') (A') (A') (A') (A') (A') (A') (A')
                 (A') (A') (A') (A') (A') (A') (A') (A') (A') (A')
                 (A') (A') (A') (A') (A') (A') (A') (A') (A') (A')
                 (A') (A') (A') (A') (A') (A") (A") (A") (A") (A")
                 (A") (A") (A") (A") (A") (A") (A") (A") (A") (A")
                 (A") (A") (A") (A") (A") (A") (A") (A") (A") (A")
                 (A") (A") (A") (A") (A") (A") (A") (A") (A") (A")
                 (A") (A") (A") (A") (A") (A") (A") (A") (A") (A")
                 (A") (A") (A") (A") (A") (A") (A") (A") (A") (A")
 ExpMin= 1.03D-01 ExpMax= 1.14D+04 ExpMxC= 3.89D+02 IAcc=1 IRadAn=         1 AccDes= 0.00D+00
 Harris functional with IExCor=  419 and IRadAn=       1 diagonalized for initial guess.
 HarFok:  IExCor=  419 AccDes= 0.00D+00 IRadAn=         1 IDoV= 1 UseB2=F ITyADJ=14
 ICtDFT=  3500011 ScaDFX=  1.000000  1.000000  1.000000  1.000000
 FoFCou: FMM=F IPFlag=           0 FMFlag=      100000 FMFlg1=           0
         NFxFlg=           0 DoJE=T BraDBF=F KetDBF=T FulRan=T
         wScrn=  0.000000 ICntrl=     500 IOpCl=  0 I1Cent=   200000004 NGrid=           0
         NMat0=    1 NMatS0=      1 NMatT0=    0 NMatD0=    1 NMtDS0=    0 NMtDT0=    0
 Petite list used in FoFCou.
 Keep R1 ints in memory in symmetry-blocked form, NReq=191556701.
 Requested convergence on RMS density matrix=1.00D-08 within 128 cycles.
 Requested convergence on MAX density matrix=1.00D-06.
 Requested convergence on             energy=1.00D-06.
 No special actions if energy rises.
 Integral accuracy reduced to 1.0D-05 until final iterations.
 Initial convergence to 1.0D-05 achieved.  Increase integral accuracy.
 SCF Done:  E(RB2PLYP) =  -257.839342406     A.U. after   10 cycles
            NFock= 10  Conv=0.73D-08     -V/T= 2.0047
 DoSCS=T DFT=T ScalE2(SS,OS)=  0.270000  0.270000
 ExpMin= 1.03D-01 ExpMax= 1.14D+04 ExpMxC= 3.89D+02 IAcc=3 IRadAn=         5 AccDes= 0.00D+00
 HarFok:  IExCor=  205 AccDes= 0.00D+00 IRadAn=         5 IDoV=-2 UseB2=F ITyADJ=14
 ICtDFT= 12500011 ScaDFX=  1.000000  1.000000  1.000000  1.000000
 Range of M.O.s used for correlation:     6   178
 NBasis=   178 NAE=    18 NBE=    18 NFC=     5 NFV=     0
 NROrb=    173 NOA=    13 NOB=    13 NVA=   160 NVB=   160

 **** Warning!!: The largest alpha MO coefficient is  0.10110909D+02

 DoSCS=T DFT=T ScalE2(SS,OS)=  0.270000  0.270000
 Fully direct method using O(ONN) memory.
 JobTyp=1 Pass  1:  I=   6 to  14 NPSUse=  8 ParTrn=T ParDer=T DoDerP=T.
 JobTyp=1 Pass  2:  I=  15 to  18 NPSUse=  8 ParTrn=T ParDer=T DoDerP=T.
 Spin components of T(2) and E(2):
     alpha-alpha T2 =       0.6679019725D-01 E2=     -0.4306166301D-01
     alpha-beta  T2 =       0.3376309556D+00 E2=     -0.2320117941D+00
     beta-beta   T2 =       0.6679019725D-01 E2=     -0.4306166301D-01
 E2(B2PLYP) =    -0.3181351201D+00 E(B2PLYP) =    -0.25815747752629D+03
          IDoAtm=1111111
          Differentiating once with respect to electric field.
                with respect to dipole field.
          Differentiating once with respect to nuclear coordinates.
 Keep R1 ints in memory in symmetry-blocked form, NReq=191410634.
          There are     1 degrees of freedom in the 1st order CPHF.  IDoFFX=0 NUNeed=     1.
 LinEq1:  Iter=  0 NonCon=     1 RMS=2.14D-03 Max=3.58D-02 NDo=     1
 AX will form     1 AO Fock derivatives at one time.
 LinEq1:  Iter=  1 NonCon=     1 RMS=5.59D-04 Max=6.48D-03 NDo=     1
 LinEq1:  Iter=  2 NonCon=     1 RMS=2.35D-04 Max=7.55D-03 NDo=     1
 LinEq1:  Iter=  3 NonCon=     1 RMS=1.14D-04 Max=1.89D-03 NDo=     1
 LinEq1:  Iter=  4 NonCon=     1 RMS=5.69D-05 Max=1.14D-03 NDo=     1
 LinEq1:  Iter=  5 NonCon=     1 RMS=2.34D-05 Max=5.94D-04 NDo=     1
 LinEq1:  Iter=  6 NonCon=     1 RMS=1.20D-05 Max=2.31D-04 NDo=     1
 LinEq1:  Iter=  7 NonCon=     1 RMS=3.78D-06 Max=7.03D-05 NDo=     1
 LinEq1:  Iter=  8 NonCon=     1 RMS=2.88D-06 Max=8.32D-05 NDo=     1
 LinEq1:  Iter=  9 NonCon=     1 RMS=8.47D-07 Max=1.02D-05 NDo=     1
 LinEq1:  Iter= 10 NonCon=     1 RMS=7.13D-07 Max=1.44D-05 NDo=     1
 LinEq1:  Iter= 11 NonCon=     1 RMS=1.71D-07 Max=2.24D-06 NDo=     1
 LinEq1:  Iter= 12 NonCon=     1 RMS=3.35D-08 Max=5.58D-07 NDo=     1
 LinEq1:  Iter= 13 NonCon=     1 RMS=7.65D-09 Max=9.48D-08 NDo=     1
 LinEq1:  Iter= 14 NonCon=     1 RMS=1.74D-09 Max=2.93D-08 NDo=     1
 LinEq1:  Iter= 15 NonCon=     1 RMS=3.25D-10 Max=6.62D-09 NDo=     1
 LinEq1:  Iter= 16 NonCon=     0 RMS=4.97D-11 Max=6.39D-10 NDo=     1
 Linear equations converged to 1.000D-10 1.000D-09 after    16 iterations.
 End of Minotr F.D. properties file   721 does not exist.
 End of Minotr F.D. properties file   722 does not exist.
 End of Minotr F.D. properties file   788 does not exist.
 Calling FoFJK, ICntrl=  10002127 FMM=F ISym2X=1 I1Cent= 0 IOpClX= 0 NMat=1 NMatS=1 NMatT=0.
 ***** Axes restored to original set *****
 -------------------------------------------------------------------
 Center     Atomic                   Forces (Hartrees/Bohr)
 Number     Number              X              Y              Z
 -------------------------------------------------------------------
      1        6           0.000648097   -0.002181908    0.000000000
      2        7           0.003535407   -0.001018335    0.000000000
      3        7           0.000144903   -0.000316165    0.000000000
      4        7          -0.002393279    0.004002336    0.000000000
      5        7          -0.002127234   -0.000422268    0.000000000
      6        1          -0.000029023   -0.000227993    0.000000000
      7        1           0.000221128    0.000164332    0.000000000
 -------------------------------------------------------------------
 Cartesian Forces:  Max     0.004002336 RMS     0.001470608
 -----------------------------------------------------------------------------------------------
                       Internal Coordinate Forces (Hartree/Bohr or radian)
  Cent   Atom   N1       Length/X         N2         Alpha/Y        N3         Beta/Z          J
 -----------------------------------------------------------------------------------------------
         X 
         X        1   0.000000(     1)
      1  C        1   0.000778(     2)      2   0.000000(     9)
      2  N        1   0.001799(     3)      2   0.000000(    10)      3  -0.007896(    16)     0
      3  N        1   0.000325(     4)      2   0.000000(    11)      3  -0.001131(    17)     0
      4  N        1   0.002930(     5)      2   0.000000(    12)      3   0.007783(    18)     0
      5  N        1  -0.000502(     6)      2   0.000000(    13)      3  -0.003531(    19)     0
      6  H        3  -0.000071(     7)      4  -0.000443(    14)      5   0.000000(    20)     0
      7  H        4  -0.000055(     8)      5   0.000513(    15)      6   0.000000(    21)     0
 -----------------------------------------------------------------------------------------------
 Internal  Forces:  Max     0.007896229 RMS     0.002671971

 GradGradGradGradGradGradGradGradGradGradGradGradGradGradGradGradGradGrad
 Berny optimization.
 Search for a local minimum.
 Step number   3 out of a maximum of   22
 All quantities printed in internal units (Hartrees-Bohrs-Radians)
 Update second derivatives using D2CorN and points    1    2    3
 DE= -9.37D-05 DEPred=-1.09D-04 R= 8.63D-01
 TightC=F SS=  1.41D+00  RLast= 2.49D-01 DXNew= 5.0454D-01 7.4661D-01
 Trust test= 8.63D-01 RLast= 2.49D-01 DXMaxT set to 5.05D-01
 The second derivative matrix:
                          rn1       rn2       rn3       rn4       rch
           rn1          0.65476
           rn2          0.00464   0.63430
           rn3          0.03287   0.02443   0.55503
           rn4          0.03919   0.00181   0.12597   0.62793
           rch          0.00199  -0.00496  -0.00194  -0.00153   0.37544
           rnh          0.00280  -0.01055  -0.00498  -0.00342   0.00033
           an1          0.04544  -0.71132   0.07248  -0.07956   0.00622
           an2          0.74512  -0.26488  -0.67139   0.07515   0.00866
           an3         -0.05857   0.98897   0.01041  -0.60211  -0.00971
           an4          0.05220  -0.02948   0.65410  -0.10687  -0.00206
           ach          0.04532   0.00250   0.00073   0.05072  -0.00010
           anh         -0.10258   0.05318   0.00090   0.00096   0.00003
                          rnh       an1       an2       an3       an4
           rnh          0.48749
           an1          0.01117   4.53139
           an2          0.01565  -2.68376   6.02271
           an3         -0.01745  -0.04769  -3.19175   4.49627
           an4         -0.00323  -0.13840  -0.08226  -1.14701   2.58536
           ach         -0.00007  -0.10703  -0.00365   0.00291   0.07364
           anh          0.00008   0.03424  -0.09117   0.00227   0.00023
                          ach       anh
           ach          0.32003
           anh         -0.00005   0.32005
 ITU=  1  1  0
     Eigenvalues ---    0.00032   0.12803   0.26618   0.32828   0.37531
     Eigenvalues ---    0.39375   0.48735   0.72632   1.20902   2.98585
     Eigenvalues ---    5.07846   9.63189
 RFO step:  Lambda=-1.03361156D-04 EMin= 3.18505482D-04
 Quartic linear search produced a step of -0.13291.
 Variable       Old X    -DE/DX   Delta X   Delta X   Delta X     New X
                                 (Linear)    (Quad)   (Total)
   rn1        2.47563   0.00180  -0.01395   0.12040   0.10645   2.58207
   rn2        2.67935   0.00032  -0.01379   0.07763   0.06384   2.74319
   rn3        2.14539   0.00293   0.00275  -0.01538  -0.01263   2.13276
   rn4        1.67365  -0.00050   0.01488  -0.12037  -0.10550   1.56815
   rch        2.02923  -0.00007   0.00001  -0.00056  -0.00055   2.02868
   rnh        1.90011  -0.00005  -0.00013  -0.00021  -0.00034   1.89977
   an1        1.21690  -0.00790   0.00599  -0.05391  -0.04792   1.16898
   an2        2.24548  -0.00113   0.01242  -0.09803  -0.08561   2.15987
   an3        3.28205   0.00778   0.01538  -0.11533  -0.09996   3.18209
   an4        4.75019  -0.00353   0.00732  -0.06073  -0.05340   4.69679
   ach        2.17862  -0.00044  -0.00010  -0.00384  -0.00394   2.17467
   anh        2.10082   0.00051   0.00077   0.00612   0.00689   2.10770
         Item               Value     Threshold  Converged?
 Maximum Force            0.007896     0.000450     NO 
 RMS     Force            0.003528     0.000300     NO 
 Maximum Displacement     0.106449     0.001800     NO 
 RMS     Displacement     0.064050     0.001200     NO 
 Predicted change in Energy=-6.783345D-05
 GradGradGradGradGradGradGradGradGradGradGradGradGradGradGradGradGradGrad

 ---------------------------------------------------------------------------------------------------
                            Z-MATRIX (ANGSTROMS AND DEGREES)
   CD    Cent   Atom    N1       Length/X        N2       Alpha/Y        N3        Beta/Z          J
 ---------------------------------------------------------------------------------------------------
      1         X 
      2         X        1   1.000000(     1)
      3      1  C        1   1.000000(     2)      2   90.000(     9)
      4      2  N        1   1.366375(     3)      2   90.000(    10)      3   66.977(    16)      0
      5      3  N        1   1.451631(     4)      2   90.000(    11)      3  123.751(    17)      0
      6      4  N        1   1.128608(     5)      2   90.000(    12)      3  182.320(    18)      0
      7      5  N        1   0.829829(     6)      2   90.000(    13)      3  269.106(    19)      0
      8      6  H        3   1.073530(     7)      4  124.599(    14)      5  180.000(    20)      0
      9      7  H        4   1.005313(     8)      5  120.763(    15)      6  180.000(    21)      0
 ---------------------------------------------------------------------------------------------------
                         Z-Matrix orientation:                         
 ---------------------------------------------------------------------
 Center     Atomic      Atomic             Coordinates (Angstroms)
 Number     Number       Type             X           Y           Z
 ---------------------------------------------------------------------
      1         -1           0        0.000000    0.000000    0.000000
      2         -1           0        0.000000    0.000000    1.000000
      3          6           0        1.000000    0.000000    0.000000
      4          7           0        0.534380   -1.257545    0.000000
      5          7           0       -0.806510   -1.206970    0.000000
      6          7           0       -1.127682    0.045692    0.000000
      7          7           0       -0.012947    0.829728    0.000000
      8          1           0        2.040351    0.264831    0.000000
      9          1           0        1.015655   -2.140171    0.000000
 ---------------------------------------------------------------------
                    Distance matrix (angstroms):
                    1          2          3          4          5
     1  X    0.000000
     2  X    1.000000   0.000000
     3  C    1.000000   1.414214   0.000000
     4  N    1.366375   1.693216   1.340977   0.000000
     5  N    1.451631   1.762735   2.172614   1.341843   0.000000
     6  N    1.128608   1.507898   2.128173   2.112079   1.293179
     7  N    0.829829   1.299468   1.309393   2.157840   2.185836
     8  H    2.057467   2.287612   1.073530   2.141395   3.204811
     9  H    2.368942   2.571358   2.140228   1.005313   2.047229
                    6          7          8          9
     6  N    0.000000
     7  N    1.362846   0.000000
     8  H    3.175604   2.129587   0.000000
     9  H    3.061354   3.142979   2.614199   0.000000
 Stoichiometry    CH2N4
 Framework group  CS[SG(CH2N4)]
 Deg. of freedom    11
 Full point group                 CS      NOp   2
 Largest Abelian subgroup         CS      NOp   2
 Largest concise Abelian subgroup C1      NOp   1
                         Standard orientation:                         
 ---------------------------------------------------------------------
 Center     Atomic      Atomic             Coordinates (Angstroms)
 Number     Number       Type             X           Y           Z
 ---------------------------------------------------------------------
      1          6           0        1.059522    0.233720    0.000000
      2          7           0        0.000000    1.055689    0.000000
      3          7           0       -1.111936    0.304595    0.000000
      4          7           0       -0.723115   -0.928746    0.000000
      5          7           0        0.637550   -1.005816    0.000000
      6          1           0        2.082820    0.558261    0.000000
      7          1           0       -0.057446    2.059359    0.000000
 ---------------------------------------------------------------------
 Rotational constants (GHZ):     10.5667478     10.4016716      5.2417800
 Standard basis: CC-pVTZ (5D, 7F)
 There are   142 symmetry adapted cartesian basis functions of A'  symmetry.
 There are    63 symmetry adapted cartesian basis functions of A"  symmetry.
 There are   120 symmetry adapted basis functions of A'  symmetry.
 There are    58 symmetry adapted basis functions of A"  symmetry.
   178 basis functions,   294 primitive gaussians,   205 cartesian basis functions
    18 alpha electrons       18 beta electrons
       nuclear repulsion energy       167.0960040945 Hartrees.
 NAtoms=    7 NActive=    7 NUniq=    7 SFac= 1.00D+00 NAtFMM=   60 NAOKFM=F Big=F
 Integral buffers will be    131072 words long.
 Regular integral format.
 Two-electron integral symmetry is turned on.
 One-electron integrals computed using PRISM.
 NBasis=   178 RedAO= T EigKep=  1.12D-03  NBF=   120    58
 NBsUse=   178 1.00D-06 EigRej= -1.00D+00 NBFU=   120    58
 Initial guess from the checkpoint file:  "/tmp/rdj3/g09-23219/Gau-11484.chk"
 B after Tr=     0.000000    0.000000    0.000000
         Rot=    1.000000    0.000000    0.000000   -0.000463 Ang=  -0.05 deg.
 Initial guess orbital symmetries:
       Occupied  (A') (A') (A') (A') (A') (A') (A') (A') (A') (A')
                 (A') (A") (A') (A') (A") (A') (A') (A")
       Virtual   (A') (A') (A') (A') (A') (A') (A') (A') (A') (A')
                 (A') (A') (A') (A') (A') (A') (A') (A') (A') (A')
                 (A') (A') (A') (A') (A') (A') (A') (A') (A') (A')
                 (A') (A') (A') (A') (A') (A') (A') (A') (A') (A')
                 (A') (A') (A') (A') (A') (A') (A') (A') (A') (A')
                 (A') (A') (A') (A') (A') (A') (A') (A') (A') (A')
                 (A') (A') (A') (A') (A') (A') (A') (A') (A') (A')
                 (A') (A') (A') (A') (A') (A') (A') (A') (A') (A')
                 (A') (A') (A') (A') (A') (A') (A') (A') (A') (A')
                 (A') (A') (A') (A') (A') (A') (A') (A') (A') (A')
                 (A') (A') (A') (A') (A') (A") (A") (A") (A") (A")
                 (A") (A") (A") (A") (A") (A") (A") (A") (A") (A")
                 (A") (A") (A") (A") (A") (A") (A") (A") (A") (A")
                 (A") (A") (A") (A") (A") (A") (A") (A") (A") (A")
                 (A") (A") (A") (A") (A") (A") (A") (A") (A") (A")
                 (A") (A") (A") (A") (A") (A") (A") (A") (A") (A")
 ExpMin= 1.03D-01 ExpMax= 1.14D+04 ExpMxC= 3.89D+02 IAcc=1 IRadAn=         1 AccDes= 0.00D+00
 Harris functional with IExCor=  419 and IRadAn=       1 diagonalized for initial guess.
 HarFok:  IExCor=  419 AccDes= 0.00D+00 IRadAn=         1 IDoV= 1 UseB2=F ITyADJ=14
 ICtDFT=  3500011 ScaDFX=  1.000000  1.000000  1.000000  1.000000
 FoFCou: FMM=F IPFlag=           0 FMFlag=      100000 FMFlg1=           0
         NFxFlg=           0 DoJE=T BraDBF=F KetDBF=T FulRan=T
         wScrn=  0.000000 ICntrl=     500 IOpCl=  0 I1Cent=   200000004 NGrid=           0
         NMat0=    1 NMatS0=      1 NMatT0=    0 NMatD0=    1 NMtDS0=    0 NMtDT0=    0
 Petite list used in FoFCou.
 Keep R1 ints in memory in symmetry-blocked form, NReq=191556701.
 Requested convergence on RMS density matrix=1.00D-08 within 128 cycles.
 Requested convergence on MAX density matrix=1.00D-06.
 Requested convergence on             energy=1.00D-06.
 No special actions if energy rises.
 Integral accuracy reduced to 1.0D-05 until final iterations.
 Initial convergence to 1.0D-05 achieved.  Increase integral accuracy.
 SCF Done:  E(RB2PLYP) =  -257.839341420     A.U. after   10 cycles
            NFock= 10  Conv=0.89D-08     -V/T= 2.0047
 DoSCS=T DFT=T ScalE2(SS,OS)=  0.270000  0.270000
 ExpMin= 1.03D-01 ExpMax= 1.14D+04 ExpMxC= 3.89D+02 IAcc=3 IRadAn=         5 AccDes= 0.00D+00
 HarFok:  IExCor=  205 AccDes= 0.00D+00 IRadAn=         5 IDoV=-2 UseB2=F ITyADJ=14
 ICtDFT= 12500011 ScaDFX=  1.000000  1.000000  1.000000  1.000000
 Range of M.O.s used for correlation:     6   178
 NBasis=   178 NAE=    18 NBE=    18 NFC=     5 NFV=     0
 NROrb=    173 NOA=    13 NOB=    13 NVA=   160 NVB=   160

 **** Warning!!: The largest alpha MO coefficient is  0.10087327D+02

 DoSCS=T DFT=T ScalE2(SS,OS)=  0.270000  0.270000
 Fully direct method using O(ONN) memory.
 JobTyp=1 Pass  1:  I=   6 to  14 NPSUse=  8 ParTrn=T ParDer=T DoDerP=T.
 JobTyp=1 Pass  2:  I=  15 to  18 NPSUse=  8 ParTrn=T ParDer=T DoDerP=T.
 Spin components of T(2) and E(2):
     alpha-alpha T2 =       0.6672352232D-01 E2=     -0.4305682591D-01
     alpha-beta  T2 =       0.3372703286D+00 E2=     -0.2319392981D+00
     beta-beta   T2 =       0.6672352232D-01 E2=     -0.4305682591D-01
 E2(B2PLYP) =    -0.3180529500D+00 E(B2PLYP) =    -0.25815739437038D+03
          IDoAtm=1111111
          Differentiating once with respect to electric field.
                with respect to dipole field.
          Differentiating once with respect to nuclear coordinates.
 Keep R1 ints in memory in symmetry-blocked form, NReq=191410634.
          There are     1 degrees of freedom in the 1st order CPHF.  IDoFFX=0 NUNeed=     1.
 LinEq1:  Iter=  0 NonCon=     1 RMS=2.12D-03 Max=3.42D-02 NDo=     1
 AX will form     1 AO Fock derivatives at one time.
 LinEq1:  Iter=  1 NonCon=     1 RMS=5.55D-04 Max=6.13D-03 NDo=     1
 LinEq1:  Iter=  2 NonCon=     1 RMS=2.30D-04 Max=7.38D-03 NDo=     1
 LinEq1:  Iter=  3 NonCon=     1 RMS=1.12D-04 Max=1.95D-03 NDo=     1
 LinEq1:  Iter=  4 NonCon=     1 RMS=5.72D-05 Max=1.26D-03 NDo=     1
 LinEq1:  Iter=  5 NonCon=     1 RMS=2.47D-05 Max=6.89D-04 NDo=     1
 LinEq1:  Iter=  6 NonCon=     1 RMS=1.31D-05 Max=2.43D-04 NDo=     1
 LinEq1:  Iter=  7 NonCon=     1 RMS=5.27D-06 Max=8.28D-05 NDo=     1
 LinEq1:  Iter=  8 NonCon=     1 RMS=3.42D-06 Max=8.71D-05 NDo=     1
 LinEq1:  Iter=  9 NonCon=     1 RMS=9.40D-07 Max=1.22D-05 NDo=     1
 LinEq1:  Iter= 10 NonCon=     1 RMS=7.19D-07 Max=1.29D-05 NDo=     1
 LinEq1:  Iter= 11 NonCon=     1 RMS=1.69D-07 Max=2.36D-06 NDo=     1
 LinEq1:  Iter= 12 NonCon=     1 RMS=3.28D-08 Max=5.45D-07 NDo=     1
 LinEq1:  Iter= 13 NonCon=     1 RMS=7.45D-09 Max=9.26D-08 NDo=     1
 LinEq1:  Iter= 14 NonCon=     1 RMS=1.70D-09 Max=2.83D-08 NDo=     1
 LinEq1:  Iter= 15 NonCon=     1 RMS=3.22D-10 Max=6.33D-09 NDo=     1
 LinEq1:  Iter= 16 NonCon=     0 RMS=4.94D-11 Max=5.13D-10 NDo=     1
 Linear equations converged to 1.000D-10 1.000D-09 after    16 iterations.
 End of Minotr F.D. properties file   721 does not exist.
 End of Minotr F.D. properties file   722 does not exist.
 End of Minotr F.D. properties file   788 does not exist.
 Calling FoFJK, ICntrl=  10002127 FMM=F ISym2X=1 I1Cent= 0 IOpClX= 0 NMat=1 NMatS=1 NMatT=0.
 ***** Axes restored to original set *****
 -------------------------------------------------------------------
 Center     Atomic                   Forces (Hartrees/Bohr)
 Number     Number              X              Y              Z
 -------------------------------------------------------------------
      1        6           0.006943729    0.001661352    0.000000000
      2        7           0.000087291    0.002375947    0.000000000
      3        7          -0.008010164   -0.003208318    0.000000000
      4        7           0.002359731   -0.002997554    0.000000000
      5        7          -0.001415959    0.002041339    0.000000000
      6        1           0.000271438    0.000108112    0.000000000
      7        1          -0.000236066    0.000019123    0.000000000
 -------------------------------------------------------------------
 Cartesian Forces:  Max     0.008010164 RMS     0.002689940
 -----------------------------------------------------------------------------------------------
                       Internal Coordinate Forces (Hartree/Bohr or radian)
  Cent   Atom   N1       Length/X         N2         Alpha/Y        N3         Beta/Z          J
 -----------------------------------------------------------------------------------------------
         X 
         X        1   0.000000(     1)
      1  C        1   0.007187(     2)      2   0.000000(     9)
      2  N        1  -0.002107(     3)      2   0.000000(    10)      3  -0.001959(    16)     0
      3  N        1   0.006992(     4)      2   0.000000(    11)      3   0.013593(    17)     0
      4  N        1  -0.002479(     5)      2   0.000000(    12)      3  -0.006184(    18)     0
      5  N        1   0.002063(     6)      2   0.000000(    13)      3  -0.002170(    19)     0
      6  H        3   0.000290(     7)      4   0.000077(    14)      5   0.000000(    20)     0
      7  H        4  -0.000130(     8)      5  -0.000376(    15)      6   0.000000(    21)     0
 -----------------------------------------------------------------------------------------------
 Internal  Forces:  Max     0.013593464 RMS     0.004066093

 GradGradGradGradGradGradGradGradGradGradGradGradGradGradGradGradGradGrad
 Berny optimization.
 Search for a local minimum.
 Step number   4 out of a maximum of   22
 All quantities printed in internal units (Hartrees-Bohrs-Radians)
 Update second derivatives using D2CorN and points    1    2    4    3
 DE=  8.32D-05 DEPred=-6.78D-05 R=-1.23D+00
 Trust test=-1.23D+00 RLast= 2.22D-01 DXMaxT set to 2.52D-01
 The second derivative matrix:
                          rn1       rn2       rn3       rn4       rch
           rn1          0.65970
           rn2         -0.00169   0.62325
           rn3          0.03541   0.02552   0.55426
           rn4          0.03493   0.00771   0.12381   0.63239
           rch          0.00185  -0.00505  -0.00180  -0.00116   0.37551
           rnh          0.00322  -0.01044  -0.00486  -0.00347   0.00043
           an1          0.04832  -0.70309   0.07271  -0.08071   0.00674
           an2          0.72993  -0.26482  -0.66956   0.09217   0.00937
           an3         -0.05615   0.99585   0.00532  -0.60668  -0.00999
           an4          0.05335  -0.02388   0.65227  -0.10848  -0.00203
           ach          0.04513   0.00281   0.00058   0.05084  -0.00010
           anh         -0.10205   0.05288   0.00111   0.00043  -0.00001
                          rnh       an1       an2       an3       an4
           rnh          0.48765
           an1          0.01181   4.52922
           an2          0.01628  -2.67965   6.04574
           an3         -0.01857  -0.05385  -3.18281   4.48671
           an4         -0.00349  -0.14163  -0.07775  -1.15164   2.58293
           ach         -0.00009  -0.10713  -0.00319   0.00278   0.07364
           anh          0.00007   0.03388  -0.09254   0.00274   0.00012
                          ach       anh
           ach          0.32005
           anh         -0.00008   0.32014
 ITU= -1  1  1  0
     Eigenvalues ---    0.00323   0.12951   0.26792   0.32836   0.37539
     Eigenvalues ---    0.39543   0.48749   0.72637   1.20900   2.98554
     Eigenvalues ---    5.07767   9.63166
 RFO step:  Lambda=-3.78309781D-05 EMin= 3.22669558D-03
 Quartic linear search produced a step of -0.69119.
 Variable       Old X    -DE/DX   Delta X   Delta X   Delta X     New X
                                 (Linear)    (Quad)   (Total)
   rn1        2.58207  -0.00211  -0.07358  -0.00668  -0.08026   2.50182
   rn2        2.74319   0.00699  -0.04412   0.00002  -0.04411   2.69908
   rn3        2.13276  -0.00248   0.00873   0.01026   0.01899   2.15175
   rn4        1.56815   0.00206   0.07292   0.00337   0.07628   1.64443
   rch        2.02868   0.00029   0.00038   0.00014   0.00052   2.02919
   rnh        1.89977  -0.00013   0.00023  -0.00006   0.00017   1.89994
   an1        1.16898  -0.00196   0.03312   0.00254   0.03567   1.20465
[...]
 Traceless Quadrupole moment (field-independent basis, Debye-Ang):
   XX=             -1.0741   YY=              1.5206   ZZ=             -0.4465
   XY=              1.8321   XZ=              0.0000   YZ=              0.0000
 Octapole moment (field-independent basis, Debye-Ang**2):
  XXX=             11.6180  YYY=             22.2837  ZZZ=              0.0000  XYY=             -0.6558
  XXY=              4.5928  XXZ=              0.0000  XZZ=             -0.7655  YZZ=              0.5937
  YYZ=              0.0000  XYZ=              0.0000
 Hexadecapole moment (field-independent basis, Debye-Ang**3):
 XXXX=           -145.4542 YYYY=           -123.1540 ZZZZ=            -26.1944 XXXY=              7.0187
 XXXZ=              0.0000 YYYX=             -0.2956 YYYZ=              0.0000 ZZZX=              0.0000
 ZZZY=              0.0000 XXYY=            -54.6481 XXZZ=            -30.9874 YYZZ=            -29.2443
 XXYZ=              0.0000 YYXZ=              0.0000 ZZXY=             -0.0704
 N-N= 1.668649791309D+02 E-N=-9.365784458645D+02  KE= 2.571831618083D+02
 Symmetry A'   KE= 2.476223507322D+02
 Symmetry A"   KE= 9.560811076106D+00
  Exact polarizability:  41.390   0.893  40.615   0.000   0.000  20.763
 Approx polarizability:  54.094   0.304  56.676   0.000   0.000  27.353
 Calling FoFJK, ICntrl=  10100127 FMM=F ISym2X=1 I1Cent= 0 IOpClX= 0 NMat=1 NMatS=1 NMatT=0.
 Full mass-weighted force constant matrix:
 Low frequencies ---  -12.5639   -6.6938   -0.0006   -0.0002    0.0009    7.3504
 Low frequencies ---  586.1633  694.4389  741.9365
 Diagonal vibrational polarizability:
        1.1735640       1.0845855       7.5859909
 Harmonic frequencies (cm**-1), IR intensities (KM/Mole), Raman scattering
 activities (A**4/AMU), depolarization ratios for plane and unpolarized
 incident light, reduced masses (AMU), force constants (mDyne/A),
 and normal coordinates:
                      1                      2                      3
                     A"                     A"                     A"
 Frequencies --    586.1633               694.4389               741.9365
 Red. masses --      1.6964                 2.0617                 7.9079
 Frc consts  --      0.3434                 0.5858                 2.5648
 IR Inten    --     78.5155                 6.1739                 8.9272
  Atom  AN      X      Y      Z        X      Y      Z        X      Y      Z
     1   6     0.00   0.00  -0.08     0.00   0.00   0.18     0.00   0.00  -0.09
     2   7     0.00   0.00   0.20     0.00   0.00  -0.11     0.00   0.00  -0.12
     3   7     0.00   0.00  -0.08     0.00   0.00   0.10     0.00   0.00   0.41
     4   7     0.00   0.00   0.01     0.00   0.00   0.04     0.00   0.00  -0.48
     5   7     0.00   0.00   0.02     0.00   0.00  -0.17     0.00   0.00   0.32
     6   1     0.00   0.00  -0.22     0.00   0.00   0.55     0.00   0.00  -0.11
     7   1     0.00   0.00  -0.95     0.00   0.00  -0.78     0.00   0.00  -0.67
                      4                      5                      6
                     A"                     A'                     A'
 Frequencies --    871.4683               958.4333              1008.7881
 Red. masses --      1.3728                 5.4247                 6.0719
 Frc consts  --      0.6143                 2.9359                 3.6406
 IR Inten    --     18.4952                 4.8714                 0.2567
  Atom  AN      X      Y      Z        X      Y      Z        X      Y      Z
     1   6     0.00   0.00   0.17     0.05   0.11   0.00    -0.36  -0.08   0.00
     2   7     0.00   0.00  -0.03     0.11   0.08   0.00     0.03   0.39   0.00
     3   7     0.00   0.00   0.00     0.13  -0.14   0.00     0.01  -0.04   0.00
     4   7     0.00   0.00  -0.02     0.14  -0.18   0.00     0.24  -0.02   0.00
     5   7     0.00   0.00  -0.03    -0.42   0.20   0.00     0.02  -0.26   0.00
     6   1     0.00   0.00  -0.98     0.29  -0.69   0.00    -0.28  -0.39   0.00
     7   1     0.00   0.00  -0.05    -0.32   0.05   0.00     0.42   0.43   0.00
                      7                      8                      9
                     A'                     A'                     A'
 Frequencies --   1038.1585              1060.2845              1147.4288
 Red. masses --      5.7641                 3.2867                 1.9641
 Frc consts  --      3.6602                 2.1770                 1.5236
 IR Inten    --     13.7567                28.5896                16.5517
  Atom  AN      X      Y      Z        X      Y      Z        X      Y      Z
     1   6     0.13   0.03   0.00     0.00  -0.03   0.00     0.10  -0.11   0.00
     2   7     0.22   0.22   0.00    -0.09   0.15   0.00    -0.13   0.00   0.00
     3   7    -0.28  -0.27   0.00     0.28  -0.02   0.00    -0.09   0.02   0.00
     4   7    -0.26  -0.03   0.00    -0.23  -0.06   0.00     0.11   0.13   0.00
     5   7     0.16   0.09   0.00     0.09  -0.04   0.00     0.03   0.00   0.00
     6   1     0.34  -0.59   0.00     0.04  -0.17   0.00     0.31  -0.77   0.00
     7   1     0.33   0.24   0.00    -0.88   0.11   0.00    -0.48  -0.01   0.00
                     10                     11                     12
                     A'                     A'                     A'
 Frequencies --   1254.7811              1264.0061              1456.5974
 Red. masses --      4.0147                 3.6942                 3.0018
 Frc consts  --      3.7242                 3.4775                 3.7524
 IR Inten    --     12.2085                 1.1963                 9.6761
  Atom  AN      X      Y      Z        X      Y      Z        X      Y      Z
     1   6    -0.02  -0.01   0.00     0.26   0.07   0.00    -0.18   0.23   0.00
     2   7    -0.09   0.00   0.00     0.02   0.14   0.00     0.20  -0.13   0.00
     3   7    -0.04   0.29   0.00    -0.16   0.12   0.00    -0.06   0.08   0.00
     4   7    -0.02  -0.34   0.00     0.04  -0.15   0.00     0.00   0.00   0.00
     5   7     0.11   0.11   0.00    -0.09  -0.23   0.00     0.06  -0.10   0.00
     6   1     0.19  -0.67   0.00     0.12   0.64   0.00     0.03  -0.50   0.00
     7   1     0.53   0.04   0.00    -0.58   0.13   0.00    -0.74  -0.21   0.00
                     13                     14                     15
                     A'                     A'                     A'
 Frequencies --   1498.1410              3304.2453              3667.8045
 Red. masses --      3.0749                 1.1007                 1.0840
 Frc consts  --      4.0661                 7.0802                 8.5916
 IR Inten    --     16.2391                 1.5571                96.1588
  Atom  AN      X      Y      Z        X      Y      Z        X      Y      Z
     1   6     0.10   0.29   0.00     0.09   0.03   0.00     0.00   0.00   0.00
     2   7    -0.16  -0.03   0.00     0.00   0.00   0.00    -0.01   0.08   0.00
     3   7     0.09  -0.05   0.00     0.00   0.00   0.00     0.00   0.00   0.00
     4   7    -0.05   0.06   0.00     0.00   0.00   0.00     0.00   0.00   0.00
     5   7    -0.04  -0.19   0.00     0.00   0.00   0.00     0.00   0.00   0.00
     6   1     0.36  -0.43   0.00    -0.95  -0.30   0.00    -0.02   0.00   0.00
     7   1     0.71   0.02   0.00     0.01   0.02   0.00     0.06  -1.00   0.00

 -------------------
 - Thermochemistry -
 -------------------
 Temperature   298.150 Kelvin.  Pressure   1.00000 Atm.
 Atom     1 has atomic number  6 and mass  12.00000
 Atom     2 has atomic number  7 and mass  14.00307
 Atom     3 has atomic number  7 and mass  14.00307
 Atom     4 has atomic number  7 and mass  14.00307
 Atom     5 has atomic number  7 and mass  14.00307
 Atom     6 has atomic number  1 and mass   1.00783
 Atom     7 has atomic number  1 and mass   1.00783
 Molecular mass:    70.02795 amu.
 Principal axes and moments of inertia in atomic units:
                           1         2         3
     Eigenvalues --   171.14721 174.13470 345.28191
           X            0.85023   0.52642   0.00000
           Y           -0.52642   0.85023   0.00000
           Z            0.00000   0.00000   1.00000
 This molecule is an asymmetric top.
 Rotational symmetry number  1.
 Rotational temperatures (Kelvin)      0.50608     0.49740     0.25085
 Rotational constants (GHZ):          10.54496    10.36405     5.22686
 Zero-point vibrational energy     122932.3 (Joules/Mol)
                                   29.38152 (Kcal/Mol)
 Warning -- explicit consideration of   1 degrees of freedom as
           vibrations may cause significant error
 Vibrational temperatures:    843.36   999.14  1067.48  1253.85  1378.97
          (Kelvin)           1451.42  1493.68  1525.51  1650.89  1805.35
                             1818.62  2095.72  2155.49  4754.07  5277.15
 
 Zero-point correction=                           0.046822 (Hartree/Particle)
 Thermal correction to Energy=                    0.050292
 Thermal correction to Enthalpy=                  0.051237
 Thermal correction to Gibbs Free Energy=         0.020732
 Sum of electronic and zero-point Energies=           -258.110691
 Sum of electronic and thermal Energies=              -258.107221
 Sum of electronic and thermal Enthalpies=            -258.106277
 Sum of electronic and thermal Free Energies=         -258.136781
 
                     E (Thermal)             CV                S
                      KCal/Mol        Cal/Mol-Kelvin    Cal/Mol-Kelvin
 Total                   31.559             11.343             64.202
 Electronic               0.000              0.000              0.000
 Translational            0.889              2.981             38.656
 Rotational               0.889              2.981             23.846
 Vibrational             29.781              5.381              1.700
 Vibration     1          0.943              1.061              0.474
                       Q            Log10(Q)             Ln(Q)
 Total Bot       0.291036D-09         -9.536054        -21.957575
 Total V=0       0.100168D+13         12.000728         27.632697
 Vib (Bot)       0.347955D-21        -21.458477        -49.409969
 Vib (Bot)    1  0.258359D+00         -0.587776         -1.353405
 Vib (V=0)       0.119758D+01          0.078305          0.180303
 Vib (V=0)    1  0.106280D+01          0.026454          0.060912
 Electronic      0.100000D+01          0.000000          0.000000
 Translational   0.230336D+08          7.362362         16.952466
 Rotational      0.363129D+05          4.560061         10.499928
 ***** Axes restored to original set *****
 -------------------------------------------------------------------
 Center     Atomic                   Forces (Hartrees/Bohr)
 Number     Number              X              Y              Z
 -------------------------------------------------------------------
      1        6           0.000197686   -0.000104426    0.000000000
      2        7           0.000109540    0.000029967    0.000000000
      3        7          -0.000090238   -0.000035721    0.000000000
      4        7           0.000002618    0.000139642    0.000000000
      5        7          -0.000236368   -0.000028876    0.000000000
      6        1           0.000004316   -0.000006685    0.000000000
      7        1           0.000012444    0.000006100    0.000000000
 -------------------------------------------------------------------
 Cartesian Forces:  Max     0.000236368 RMS     0.000084167
 -----------------------------------------------------------------------------------------------
                       Internal Coordinate Forces (Hartree/Bohr or radian)
  Cent   Atom   N1       Length/X         N2         Alpha/Y        N3         Beta/Z          J
 -----------------------------------------------------------------------------------------------
         X 
         X        1   0.000000(     1)
      1  C        1   0.000207(     2)      2   0.000000(     9)
      2  N        1  -0.000005(     3)      2   0.000000(    10)      3  -0.000314(    16)     0
      3  N        1   0.000093(     4)      2   0.000000(    11)      3   0.000112(    17)     0
      4  N        1   0.000018(     5)      2   0.000000(    12)      3   0.000298(    18)     0
      5  N        1  -0.000038(     6)      2   0.000000(    13)      3  -0.000395(    19)     0
      6  H        3   0.000003(     7)      4  -0.000015(    14)      5   0.000000(    20)     0
      7  H        4   0.000000(     8)      5   0.000026(    15)      6   0.000000(    21)     0
 -----------------------------------------------------------------------------------------------
 Internal  Forces:  Max     0.000395406 RMS     0.000139834

 GradGradGradGradGradGradGradGradGradGradGradGradGradGradGradGradGradGrad
 Berny optimization.
 Search for a local minimum.
 Step number   1 out of a maximum of    2
 All quantities printed in internal units (Hartrees-Bohrs-Radians)
 Second derivative matrix not updated -- analytic derivatives used.
 The second derivative matrix:
                          rn1       rn2       rn3       rn4       rch
           rn1          0.58076
           rn2         -0.05674   0.56110
           rn3          0.06846  -0.03147   0.52759
           rn4          0.09900   0.08026  -0.00951   0.54182
           rch         -0.00304  -0.00166   0.00045  -0.00365   0.38255
           rnh          0.01048  -0.00810  -0.00004  -0.00036   0.00025
           an1          0.12035  -0.34467  -0.21895   0.13445   0.01263
           an2          0.23595  -0.08883  -0.35969  -0.15602   0.00255
           an3          0.22687   0.44003   0.19953  -0.23577  -0.00055
           an4         -0.11883   0.14667   0.26210  -0.16719  -0.01362
           ach          0.03627   0.01250  -0.01401   0.02894   0.00251
           anh         -0.05112   0.01960   0.02496  -0.02008  -0.00113
                          rnh       an1       an2       an3       an4
           rnh          0.47728
           an1         -0.01130   2.66498
           an2          0.01398  -1.10330   2.92088
           an3         -0.00171  -0.33429  -1.35305   2.07461
           an4         -0.00137  -0.23424  -0.20653  -0.24932   1.23700
           ach          0.00049  -0.00021  -0.02159  -0.00758   0.08113
           anh         -0.00052  -0.03261  -0.01446   0.00946  -0.00411
                          ach       anh
           ach          0.21506
           anh          0.00112   0.20906
 ITU=  0
     Eigenvalues ---    0.00004   0.15776   0.20915   0.27345   0.38262
     Eigenvalues ---    0.47665   0.61088   0.66199   0.78550   1.57874
     Eigenvalues ---    2.95947   4.29646
 Quadratic step=6.058D-01 exceeds max=3.000D-01 adjusted using Lamda=-3.578D-05.
 Angle between NR and scaled steps=   0.06 degrees.
 Angle between quadratic step and forces=  87.91 degrees.
 Linear search not attempted -- first point.
 Variable       Old X    -DE/DX   Delta X   Delta X   Delta X     New X
                                 (Linear)    (Quad)   (Total)
   rn1        2.46937  -0.00001   0.00000   0.13286   0.13286   2.60223
   rn2        2.67057   0.00009   0.00000   0.11035   0.11035   2.78092
   rn3        2.15089   0.00002   0.00000  -0.02115  -0.02115   2.12974
   rn4        1.68213  -0.00004   0.00000  -0.14179  -0.14179   1.54034
   rch        2.02903   0.00000   0.00000  -0.00001  -0.00001   2.02902
   rnh        1.89986   0.00000   0.00000   0.00000   0.00000   1.89986
   an1        1.21731  -0.00031   0.00000  -0.05521  -0.05521   1.16209
   an2        2.25165   0.00011   0.00000  -0.10837  -0.10837   2.14328
   an3        3.29284   0.00030   0.00000  -0.14011  -0.14011   3.15272
   an4        4.75137  -0.00040   0.00000  -0.07212  -0.07212   4.67925
   ach        2.17796  -0.00001   0.00000   0.00015   0.00015   2.17810
   anh        2.10260   0.00003   0.00000  -0.00001  -0.00001   2.10259
         Item               Value     Threshold  Converged?
 Maximum Force            0.000395     0.000450     YES
 RMS     Force            0.000175     0.000300     YES
 Maximum Displacement     0.141791     0.001800     NO 
 RMS     Displacement     0.086606     0.001200     NO 
 Predicted change in Energy=-4.919276D-06
 GradGradGradGradGradGradGradGradGradGradGradGradGradGradGradGradGradGrad

 1\1\GINC-N366\Freq\RB2PLYP-FC\CC-pVTZ\C1H2N4\RDJ3\26-Nov-2013\1\\#N Ge
 om=AllCheck Guess=TCheck SCRF=Check GenChk RB2PLYP(FC)/CC-pVTZ Freq\\1
 H-tetrazole CH2N4 casno=288948 state=1 config=1 method=56 basis=6\\0,1
 \X\X,1,1.\C,1,1.,2,90.\N,1,rn1,2,90.,3,an1,0\N,1,rn2,2,90.,3,an2,0\N,1
 ,rn3,2,90.,3,an3,0\N,1,rn4,2,90.,3,an4,0\H,3,rch,4,ach,5,180.,0\H,4,rn
 h,5,anh,6,180.,0\\rn1=1.30673406\rn2=1.41320709\rn3=1.1382045\rn4=0.89
 014424\rch=1.07371674\rnh=1.00536098\an1=69.7464507\an2=129.01011379\a
 n3=188.66557785\an4=272.233174\ach=124.78785561\anh=120.47028751\\Vers
 ion=EM64L-G09RevD.01\State=1-A'\HF=-257.8391834\MP2=-258.1575131\RMSD=
 1.135e-09\RMSF=8.417e-05\ZeroPoint=0.0468224\Thermal=0.0502923\Dipole=
 1.7291844,-1.1747509,0.\DipoleDeriv=0.1787962,0.0611803,0.,-0.0883394,
 0.4420587,0.,0.,0.,0.074219,-0.266391,0.2701772,0.,0.2261125,-0.316937
 6,0.,0.,0.,-0.1100781,0.1708232,-0.3290228,0.,-0.2981443,-0.2330762,0.
 ,0.,0.,-0.1028054,0.0254934,0.1493693,0.,0.2134943,0.0216384,0.,0.,0.,
 -0.1493723,-0.3644263,-0.1182835,0.,-0.0349334,-0.3085208,0.,0.,0.,-0.
 2085121,0.0560072,0.0067929,0.,0.0029324,0.1151753,0.,0.,0.,0.172328,0
 .1996972,-0.0402134,0.,-0.0211221,0.2796624,0.,0.,0.,0.3242209\Polar=4
 1.9620652,-0.1644537,40.0425527,0.,0.,20.7627403\Quadrupole=0.7783945,
 -0.4464611,-0.3319335,-1.5526113,0.,0.\PG=CS [SG(C1H2N4)]\NImag=0\\0.9
 4766284,0.04126478,0.60974097,0.,0.,0.14371922,-0.15777021,-0.06955760
 ,0.,0.58119069,-0.09502107,-0.28715843,0.,-0.13788103,0.98141569,0.,0.
 ,-0.06402487,0.,0.,0.09342170,-0.08648878,-0.09061570,0.,-0.21567917,-
 0.04167886,0.,0.43673636,-0.00368677,-0.03043211,0.,-0.00173494,-0.106
 59406,0.,0.06640979,0.55092443,0.,0.,0.02126003,0.,0.,-0.06911126,0.,0
 .,0.11561080,-0.12094556,0.05774731,0.,-0.08367639,0.03831630,0.,-0.11
 576401,0.00396043,0.,0.49813702,-0.03601388,0.02789750,0.,0.10875232,-
 0.08792946,0.,0.07269365,-0.30965113,0.,-0.10040485,0.47787599,0.,0.,0
 .01932651,0.,0.,0.02664807,0.,0.,-0.09745436,0.,0.,0.12484734,-0.24309
 908,0.13286526,0.,0.01203259,0.09053244,0.,-0.01946566,-0.10174063,0.,
 -0.16456889,-0.04889006,0.,0.42960098,0.13361704,-0.24797822,0.,-0.017
 22747,-0.09868352,0.,-0.00511407,-0.10309978,0.,-0.00070547,-0.1079721
 9,0.,-0.09515441,0.54940801,0.,0.,-0.08034470,0.,0.,0.02215512,0.,0.,0
 .03570339,0.,0.,-0.09043755,0.,0.,0.11045113,-0.35611114,-0.06070729,0
 .,-0.00016504,0.00233979,0.,0.00039850,0.00274284,0.,-0.00169690,0.000
 33083,0.,-0.01261216,-0.00575052,0.,0.37067768,-0.05688716,-0.06757707
 ,0.,-0.03290374,0.00060872,0.,-0.00070042,-0.00668584,0.,0.00635911,-0
 .00274360,0.,0.02235255,0.01247446,0.,0.06149971,0.06410878,0.,0.,-0.0
 3092225,0.,0.,-0.00217733,0.,0.,0.00616072,0.,0.,0.00901269,0.,0.,-0.0
 0472987,0.,0.,0.02361236,0.01675192,-0.01099676,0.,-0.13593247,0.14339
 244,0.,0.00026275,0.03404928,0.,-0.01148528,0.00353200,0.,-0.00188778,
 -0.00966509,0.,-0.00049094,0.00027994,0.,0.13278180,0.01672707,-0.0044
 9265,0.,0.15055246,-0.40165894,0.,-0.00099438,0.00553848,0.,-0.0052728
 3,0.00252289,0.,0.00003486,-0.00414878,0.,-0.00045537,-0.00018546,0.,-
 0.16059181,0.40242445,0.,0.,-0.00901394,0.,0.,-0.00691142,0.,0.,-0.012
 16932,0.,0.,0.00805731,0.,0.,0.00720248,0.,0.,-0.00095632,0.,0.,0.0137
 9121\\-0.00019769,0.00010443,0.,-0.00010954,-0.00002997,0.,0.00009024,
 0.00003572,0.,-0.00000262,-0.00013964,0.,0.00023637,0.00002888,0.,-0.0
 0000432,0.00000669,0.,-0.00001244,-0.00000610,0.\\\@


 MEMORIES ARE LIKE AN ENGLISH GRAMMER LESSON -
 PRESENT TENSE, AND PAST PERFECT.
 Job cpu time:       0 days  1 hours 49 minutes 56.9 seconds.
 File lengths (MBytes):  RWF=   4590 Int=      0 D2E=      0 Chk=      4 Scr=      1
 Normal termination of Gaussian 09 at Tue Nov 26 09:02:46 2013.
