 Entering Gaussian System, Link 0=g09
 Initial command:
 /usr/local/gaussian/g09.d01.em64t.legacy.linda/g09/l1.exe "/tmp/rdj3/g09-18029/Gau-8801.inp" -scrdir="/tmp/rdj3/g09-18029/"
 Entering Link 1 = /usr/local/gaussian/g09.d01.em64t.legacy.linda/g09/l1.exe PID=      8802.
  
 Copyright (c) 1988,1990,1992,1993,1995,1998,2003,2009,2013,
            Gaussian, Inc.  All Rights Reserved.
  
 This is part of the Gaussian(R) 09 program.  It is based on
 the Gaussian(R) 03 system (copyright 2003, Gaussian, Inc.),
 the Gaussian(R) 98 system (copyright 1998, Gaussian, Inc.),
 the Gaussian(R) 94 system (copyright 1995, Gaussian, Inc.),
 the Gaussian 92(TM) system (copyright 1992, Gaussian, Inc.),
 the Gaussian 90(TM) system (copyright 1990, Gaussian, Inc.),
 the Gaussian 88(TM) system (copyright 1988, Gaussian, Inc.),
 the Gaussian 86(TM) system (copyright 1986, Carnegie Mellon
 University), and the Gaussian 82(TM) system (copyright 1983,
 Carnegie Mellon University). Gaussian is a federally registered
 trademark of Gaussian, Inc.
  
 This software contains proprietary and confidential information,
 including trade secrets, belonging to Gaussian, Inc.
  
 This software is provided under written license and may be
 used, copied, transmitted, or stored only in accord with that
 written license.
  
 The following legend is applicable only to US Government
 contracts under FAR:
  
                    RESTRICTED RIGHTS LEGEND
  
 Use, reproduction and disclosure by the US Government is
 subject to restrictions as set forth in subparagraphs (a)
 and (c) of the Commercial Computer Software - Restricted
 Rights clause in FAR 52.227-19.
  
 Gaussian, Inc.
 340 Quinnipiac St., Bldg. 40, Wallingford CT 06492
  
  
 ---------------------------------------------------------------
 Warning -- This program may not be used in any manner that
 competes with the business of Gaussian, Inc. or will provide
 assistance to any competitor of Gaussian, Inc.  The licensee
 of this program is prohibited from giving any competitor of
 Gaussian, Inc. access to this program.  By using this program,
 the user acknowledges that Gaussian, Inc. is engaged in the
 business of creating and licensing software in the field of
 computational chemistry and represents and warrants to the
 licensee that it is not a competitor of Gaussian, Inc. and that
 it will not use this program in any manner prohibited above.
 ---------------------------------------------------------------
  

 Cite this work as:
 Gaussian 09, Revision D.01,
 M. J. Frisch, G. W. Trucks, H. B. Schlegel, G. E. Scuseria, 
 M. A. Robb, J. R. Cheeseman, G. Scalmani, V. Barone, B. Mennucci, 
 G. A. Petersson, H. Nakatsuji, M. Caricato, X. Li, H. P. Hratchian, 
 A. F. Izmaylov, J. Bloino, G. Zheng, J. L. Sonnenberg, M. Hada, 
 M. Ehara, K. Toyota, R. Fukuda, J. Hasegawa, M. Ishida, T. Nakajima, 
 Y. Honda, O. Kitao, H. Nakai, T. Vreven, J. A. Montgomery, Jr., 
 J. E. Peralta, F. Ogliaro, M. Bearpark, J. J. Heyd, E. Brothers, 
 K. N. Kudin, V. N. Staroverov, T. Keith, R. Kobayashi, J. Normand, 
 K. Raghavachari, A. Rendell, J. C. Burant, S. S. Iyengar, J. Tomasi, 
 M. Cossi, N. Rega, J. M. Millam, M. Klene, J. E. Knox, J. B. Cross, 
 V. Bakken, C. Adamo, J. Jaramillo, R. Gomperts, R. E. Stratmann, 
 O. Yazyev, A. J. Austin, R. Cammi, C. Pomelli, J. W. Ochterski, 
 R. L. Martin, K. Morokuma, V. G. Zakrzewski, G. A. Voth, 
 P. Salvador, J. J. Dannenberg, S. Dapprich, A. D. Daniels, 
 O. Farkas, J. B. Foresman, J. V. Ortiz, J. Cioslowski, 
 and D. J. Fox, Gaussian, Inc., Wallingford CT, 2013.
 
 ******************************************
 Gaussian 09:  EM64L-G09RevD.01 24-Apr-2013
                16-Dec-2013 
 ******************************************
 %Nproc=8
 Will use up to    8 processors via shared memory.
 %mem=436000000
 -------------------------------
 #B2PLYP/STO-3G opt freq density
 -------------------------------
 1/18=20,19=15,38=1/1,3;
 2/9=110,12=2,17=6,18=5,40=1/2;
 3/6=3,11=9,16=1,25=1,30=1,71=1,74=-47/1,2,3;
 4//1;
 5/5=2,38=5/2;
 8/6=4,10=1/1;
 9/15=2,16=-3/6;
 10/5=1/2;
 6/7=2,8=2,9=2,10=2,22=-1/1;
 7/12=2/1,2,3,16;
 1/18=20,19=15/3(2);
 2/9=110/2;
 99//99;
 2/9=110/2;
 3/6=3,11=9,16=1,25=1,30=1,71=1,74=-47/1,2,3;
 4/5=5,16=3,69=1/1;
 5/5=2,38=5/2;
 8/6=4,10=1/1;
 9/15=2,16=-3/6;
 10/5=1/2;
 7/12=2/1,2,3,16;
 1/18=20,19=15/3(-8);
 2/9=110/2;
 6/7=2,8=2,9=2,10=2,22=-1/1;
 99//99;
 -------------------------------------------------------------------
 1H-tetrazole CH2N4 casno=288948 state=1 config=1 method=56 basis=20
 -------------------------------------------------------------------
 Symbolic Z-matrix:
 Charge =  0 Multiplicity = 1
 X
 X                    1     1. 
 C                    1     1.       2     90. 
 N                    1    rn1      2     90.      3    an1      0
 N                    1    rn2      2     90.      3    an2      0
 N                    1    rn3      2     90.      3    an3      0
 N                    1    rn4      2     90.      3    an4      0
 H                    3    rch      4    ach      5     180.     0
 H                    4    rnh      5    anh      6     180.     0
       Variables:
  rn1                   1.2426                   
  rn2                   1.333                    
  rn3                   1.1146                   
  rn4                   0.9264                   
  rch                   1.0678                   
  rnh                   0.9941                   
  an1                  71.8427                   
  an2                 133.7028                   
  an3                 194.4597                   
  an4                 276.0768                   
  ach                 125.0248                   
  anh                 120.7626                   
 

 GradGradGradGradGradGradGradGradGradGradGradGradGradGradGradGradGradGrad
 Berny optimization.
 Initialization pass.
                           ----------------------------
                           !    Initial Parameters    !
                           ! (Angstroms and Degrees)  !
 --------------------------                            --------------------------
 ! Name  Definition              Value          Derivative Info.                !
 --------------------------------------------------------------------------------
 ! R1    R(1,2)                  1.3303         estimate D2E/DX2                !
 ! R2    R(1,5)                  1.2892         estimate D2E/DX2                !
 ! R3    R(1,6)                  1.0678         estimate D2E/DX2                !
 ! R4    R(2,3)                  1.3261         estimate D2E/DX2                !
 ! R5    R(2,7)                  0.9941         estimate D2E/DX2                !
 ! R6    R(3,4)                  1.252          estimate D2E/DX2                !
 ! R7    R(4,5)                  1.3414         estimate D2E/DX2                !
 ! A1    A(2,1,5)              108.177          estimate D2E/DX2                !
 ! A2    A(2,1,6)              125.0248         estimate D2E/DX2                !
 ! A3    A(5,1,6)              126.7982         estimate D2E/DX2                !
 ! A4    A(1,2,3)              108.008          estimate D2E/DX2                !
 ! A5    A(1,2,7)              131.2294         estimate D2E/DX2                !
 ! A6    A(3,2,7)              120.7626         estimate D2E/DX2                !
 ! A7    A(2,3,4)              106.684          estimate D2E/DX2                !
 ! A8    A(3,4,5)              111.3724         estimate D2E/DX2                !
 ! A9    A(1,5,4)              105.7586         estimate D2E/DX2                !
 ! D1    D(5,1,2,3)              0.0            estimate D2E/DX2                !
 ! D2    D(5,1,2,7)            180.0            estimate D2E/DX2                !
 ! D3    D(6,1,2,3)            180.0            estimate D2E/DX2                !
 ! D4    D(6,1,2,7)              0.0            estimate D2E/DX2                !
 ! D5    D(2,1,5,4)              0.0            estimate D2E/DX2                !
 ! D6    D(6,1,5,4)            180.0            estimate D2E/DX2                !
 ! D7    D(1,2,3,4)              0.0            estimate D2E/DX2                !
 ! D8    D(7,2,3,4)            180.0            estimate D2E/DX2                !
 ! D9    D(2,3,4,5)              0.0            estimate D2E/DX2                !
 ! D10   D(3,4,5,1)              0.0            estimate D2E/DX2                !
 --------------------------------------------------------------------------------
 Trust Radius=3.00D-01 FncErr=1.00D-07 GrdErr=1.00D-07
 Number of steps in this run=     36 maximum allowed number of steps=    100.
 GradGradGradGradGradGradGradGradGradGradGradGradGradGradGradGradGradGrad

                          Input orientation:                          
 ---------------------------------------------------------------------
 Center     Atomic      Atomic             Coordinates (Angstroms)
 Number     Number       Type             X           Y           Z
 ---------------------------------------------------------------------
      1          6           0        1.000000    0.000000    0.000000
      2          7           0        0.387228   -1.180724    0.000000
      3          7           0       -0.920993   -0.963670    0.000000
      4          7           0       -1.079293    0.278314    0.000000
      5          7           0        0.098070    0.921194    0.000000
      6          1           0        2.058429    0.141157    0.000000
      7          1           0        0.749017   -2.106652    0.000000
 ---------------------------------------------------------------------
                    Distance matrix (angstroms):
                    1          2          3          4          5
     1  C    0.000000
     2  N    1.330263   0.000000
     3  N    2.149157   1.326105   0.000000
     4  N    2.097837   2.068690   1.252032   0.000000
     5  N    1.289216   2.121715   2.142710   1.341447   0.000000
     6  H    1.067800   2.130794   3.177672   3.140719   2.109850
     7  H    2.121551   0.994100   2.023695   3.005127   3.097029
                    6          7
     6  H    0.000000
     7  H    2.601385   0.000000
 Stoichiometry    CH2N4
 Framework group  CS[SG(CH2N4)]
 Deg. of freedom    11
 Full point group                 CS      NOp   2
 Largest Abelian subgroup         CS      NOp   2
 Largest concise Abelian subgroup C1      NOp   1
                         Standard orientation:                         
 ---------------------------------------------------------------------
 Center     Atomic      Atomic             Coordinates (Angstroms)
 Number     Number       Type             X           Y           Z
 ---------------------------------------------------------------------
      1          6           0        1.052733    0.225621    0.000000
      2          7           0        0.000000    1.038857    0.000000
      3          7           0       -1.095416    0.291448    0.000000
      4          7           0       -0.716382   -0.901832    0.000000
      5          7           0        0.622191   -0.989579    0.000000
      6          1           0        2.072287    0.542964    0.000000
      7          1           0       -0.061439    2.031056    0.000000
 ---------------------------------------------------------------------
 Rotational constants (GHZ):     10.9201517     10.7345054      5.4132664
 Standard basis: STO-3G (5D, 7F)
 There are    22 symmetry adapted cartesian basis functions of A'  symmetry.
 There are     5 symmetry adapted cartesian basis functions of A"  symmetry.
 There are    22 symmetry adapted basis functions of A'  symmetry.
 There are     5 symmetry adapted basis functions of A"  symmetry.
    27 basis functions,    81 primitive gaussians,    27 cartesian basis functions
    18 alpha electrons       18 beta electrons
       nuclear repulsion energy       169.8308489506 Hartrees.
 NAtoms=    7 NActive=    7 NUniq=    7 SFac= 1.00D+00 NAtFMM=   60 NAOKFM=F Big=F
 Integral buffers will be    131072 words long.
 Regular integral format.
 Two-electron integral symmetry is turned on.
 One-electron integrals computed using PRISM.
 NBasis=    27 RedAO= T EigKep=  2.71D-01  NBF=    22     5
 NBsUse=    27 1.00D-06 EigRej= -1.00D+00 NBFU=    22     5
 ExpMin= 1.69D-01 ExpMax= 9.91D+01 ExpMxC= 9.91D+01 IAcc=1 IRadAn=         1 AccDes= 0.00D+00
 Harris functional with IExCor=  419 and IRadAn=       1 diagonalized for initial guess.
 HarFok:  IExCor=  419 AccDes= 0.00D+00 IRadAn=         1 IDoV= 1 UseB2=F ITyADJ=14
 ICtDFT=  3500011 ScaDFX=  1.000000  1.000000  1.000000  1.000000
 FoFCou: FMM=F IPFlag=           0 FMFlag=      100000 FMFlg1=           0
         NFxFlg=           0 DoJE=T BraDBF=F KetDBF=T FulRan=T
         wScrn=  0.000000 ICntrl=     500 IOpCl=  0 I1Cent=   200000004 NGrid=           0
         NMat0=    1 NMatS0=      1 NMatT0=    0 NMatD0=    1 NMtDS0=    0 NMtDT0=    0
 Petite list used in FoFCou.
 Initial guess orbital symmetries:
       Occupied  (A') (A') (A') (A') (A') (A') (A') (A') (A') (A')
                 (A') (A') (A") (A') (A") (A") (A') (A')
       Virtual   (A") (A") (A') (A') (A') (A') (A') (A') (A')
 The electronic state of the initial guess is 1-A'.
 Keep R1 ints in memory in symmetry-blocked form, NReq=953772.
 Requested convergence on RMS density matrix=1.00D-08 within 128 cycles.
 Requested convergence on MAX density matrix=1.00D-06.
 Requested convergence on             energy=1.00D-06.
 No special actions if energy rises.
 Integral accuracy reduced to 1.0D-05 until final iterations.
 Initial convergence to 1.0D-05 achieved.  Increase integral accuracy.
 SCF Done:  E(RB2PLYP) =  -254.382509342     A.U. after   14 cycles
            NFock= 14  Conv=0.47D-08     -V/T= 2.0140
 DoSCS=T DFT=T ScalE2(SS,OS)=  0.270000  0.270000
 ExpMin= 1.69D-01 ExpMax= 9.91D+01 ExpMxC= 9.91D+01 IAcc=3 IRadAn=         5 AccDes= 0.00D+00
 HarFok:  IExCor=  205 AccDes= 0.00D+00 IRadAn=         5 IDoV=-2 UseB2=F ITyADJ=14
 ICtDFT= 12500011 ScaDFX=  1.000000  1.000000  1.000000  1.000000
 Range of M.O.s used for correlation:     6    27
 NBasis=    27 NAE=    18 NBE=    18 NFC=     5 NFV=     0
 NROrb=     22 NOA=    13 NOB=    13 NVA=     9 NVB=     9
 DoSCS=T DFT=T ScalE2(SS,OS)=  0.270000  0.270000
 Fully direct method using O(ONN) memory.
 JobTyp=1 Pass  1:  I=   6 to  18 NPSUse=  8 ParTrn=T ParDer=T DoDerP=T.
 Spin components of T(2) and E(2):
     alpha-alpha T2 =       0.2617638432D-01 E2=     -0.1178942436D-01
     alpha-beta  T2 =       0.1715634256D+00 E2=     -0.7672214374D-01
     beta-beta   T2 =       0.2617638432D-01 E2=     -0.1178942436D-01
 E2(B2PLYP) =    -0.1003009925D+00 E(B2PLYP) =    -0.25448281033402D+03
          IDoAtm=1111111
          Differentiating once with respect to electric field.
                with respect to dipole field.
          Differentiating once with respect to nuclear coordinates.
 Keep R1 ints in memory in symmetry-blocked form, NReq=933384.
          There are     1 degrees of freedom in the 1st order CPHF.  IDoFFX=0 NUNeed=     1.
 LinEq1:  Iter=  0 NonCon=     1 RMS=5.80D-03 Max=2.94D-02 NDo=     1
 AX will form     1 AO Fock derivatives at one time.
 LinEq1:  Iter=  1 NonCon=     1 RMS=1.56D-03 Max=8.47D-03 NDo=     1
 LinEq1:  Iter=  2 NonCon=     1 RMS=4.79D-04 Max=3.89D-03 NDo=     1
 LinEq1:  Iter=  3 NonCon=     1 RMS=1.42D-04 Max=9.22D-04 NDo=     1
 LinEq1:  Iter=  4 NonCon=     1 RMS=5.91D-05 Max=3.48D-04 NDo=     1
 LinEq1:  Iter=  5 NonCon=     1 RMS=2.43D-05 Max=2.09D-04 NDo=     1
 LinEq1:  Iter=  6 NonCon=     1 RMS=6.06D-06 Max=3.09D-05 NDo=     1
 LinEq1:  Iter=  7 NonCon=     1 RMS=1.76D-06 Max=1.27D-05 NDo=     1
 LinEq1:  Iter=  8 NonCon=     1 RMS=6.43D-07 Max=3.54D-06 NDo=     1
 LinEq1:  Iter=  9 NonCon=     1 RMS=1.07D-07 Max=4.21D-07 NDo=     1
 LinEq1:  Iter= 10 NonCon=     1 RMS=1.24D-08 Max=5.58D-08 NDo=     1
 LinEq1:  Iter= 11 NonCon=     1 RMS=1.36D-09 Max=5.46D-09 NDo=     1
 LinEq1:  Iter= 12 NonCon=     1 RMS=1.46D-10 Max=6.19D-10 NDo=     1
 LinEq1:  Iter= 13 NonCon=     0 RMS=1.09D-11 Max=4.42D-11 NDo=     1
 Linear equations converged to 1.000D-10 1.000D-09 after    13 iterations.
 End of Minotr F.D. properties file   721 does not exist.
 End of Minotr F.D. properties file   722 does not exist.
 End of Minotr F.D. properties file   788 does not exist.

 **********************************************************************

            Population analysis using the MP2 density.

 **********************************************************************

 Orbital symmetries:
       Occupied  (A') (A') (A') (A') (A') (A') (A') (A') (A') (A')
                 (A') (A") (A') (A') (A") (A") (A') (A')
       Virtual   (A") (A") (A') (A') (A') (A') (A') (A') (A')
 The electronic state is 1-A'.
 Alpha  occ. eigenvalues --  -14.82025 -14.75417 -14.72291 -14.68676 -10.55944
 Alpha  occ. eigenvalues --   -1.29493  -1.05543  -1.00184  -0.74226  -0.72318
 Alpha  occ. eigenvalues --   -0.65196  -0.54674  -0.53461  -0.38980  -0.33479
 Alpha  occ. eigenvalues --   -0.31308  -0.29483  -0.28026
 Alpha virt. eigenvalues --    0.13712   0.19613   0.39112   0.39528   0.49814
 Alpha virt. eigenvalues --    0.53946   0.61168   0.75622   0.78557
          Condensed to atoms (all electrons):
               1          2          3          4          5          6
     1  C    4.835847   0.395930  -0.070585  -0.062675   0.444152   0.390766
     2  N    0.395930   6.324336   0.294092  -0.069691  -0.064172  -0.020878
     3  N   -0.070585   0.294092   6.538265   0.357663  -0.047213   0.001373
     4  N   -0.062675  -0.069691   0.357663   6.549985   0.291038   0.002170
     5  N    0.444152  -0.064172  -0.047213   0.291038   6.564284  -0.018760
     6  H    0.390766  -0.020878   0.001373   0.002170  -0.018760   0.518219
     7  H   -0.024239   0.344462  -0.023912   0.002956   0.001923  -0.000805
               7
     1  C   -0.024239
     2  N    0.344462
     3  N   -0.023912
     4  N    0.002956
     5  N    0.001923
     6  H   -0.000805
     7  H    0.421875
 Mulliken charges:
               1
     1  C    0.090804
     2  N   -0.204080
     3  N   -0.049683
     4  N   -0.071446
     5  N   -0.171252
     6  H    0.127916
     7  H    0.277741
 Sum of Mulliken charges =   0.00000
 Mulliken charges with hydrogens summed into heavy atoms:
               1
     1  C    0.218720
     2  N    0.073661
     3  N   -0.049683
     4  N   -0.071446
     5  N   -0.171252
 Electronic spatial extent (au):  <R**2>=            240.9108
 Charge=              0.0000 electrons
 Dipole moment (field-independent basis, Debye):
    X=              2.1813    Y=              4.4975    Z=              0.0000  Tot=              4.9986
 Quadrupole moment (field-independent basis, Debye-Ang):
   XX=            -27.8691   YY=            -25.2247   ZZ=            -25.6301
   XY=              1.4398   XZ=              0.0000   YZ=              0.0000
 Traceless Quadrupole moment (field-independent basis, Debye-Ang):
   XX=             -1.6278   YY=              1.0166   ZZ=              0.6112
   XY=              1.4398   XZ=              0.0000   YZ=              0.0000
 Octapole moment (field-independent basis, Debye-Ang**2):
  XXX=              8.0783  YYY=             18.1599  ZZZ=              0.0000  XYY=             -0.7795
  XXY=              3.3802  XXZ=              0.0000  XZZ=             -1.1053  YZZ=             -0.2801
  YYZ=              0.0000  XYZ=              0.0000
 Hexadecapole moment (field-independent basis, Debye-Ang**3):
 XXXX=           -127.7299 YYYY=           -106.2050 ZZZZ=            -17.1658 XXXY=              4.3018
 XXXZ=              0.0000 YYYX=             -1.4199 YYYZ=              0.0000 ZZZX=              0.0000
 ZZZY=              0.0000 XXYY=            -46.6113 XXZZ=            -25.1280 YYZZ=            -23.5838
 XXYZ=              0.0000 YYXZ=              0.0000 ZZXY=             -0.4839
 N-N= 1.698308489506D+02 E-N=-9.324530086341D+02  KE= 2.510639064844D+02
 Symmetry A'   KE= 2.412364587635D+02
 Symmetry A"   KE= 9.827447720902D+00
 Calling FoFJK, ICntrl=  10002127 FMM=F ISym2X=1 I1Cent= 0 IOpClX= 0 NMat=1 NMatS=1 NMatT=0.
 ***** Axes restored to original set *****
 -------------------------------------------------------------------
 Center     Atomic                   Forces (Hartrees/Bohr)
 Number     Number              X              Y              Z
 -------------------------------------------------------------------
      1        6           0.090272276   -0.002424942    0.000000000
      2        7           0.056988455   -0.046086303    0.000000000
      3        7          -0.096927476   -0.158509652    0.000000000
      4        7          -0.124565590    0.120472686    0.000000000
      5        7           0.028203319    0.136173036    0.000000000
      6        1           0.023825464    0.001649991    0.000000000
      7        1           0.022203551   -0.051274816    0.000000000
 -------------------------------------------------------------------
 Cartesian Forces:  Max     0.158509652 RMS     0.069387833

 GradGradGradGradGradGradGradGradGradGradGradGradGradGradGradGradGradGrad
 Berny optimization.
 FormGI is forming the generalized inverse of G from B-inverse, IUseBI=4.
 Internal  Forces:  Max     0.171378160 RMS     0.056443259
 Search for a local minimum.
 Step number   1 out of a maximum of   36
 All quantities printed in internal units (Hartrees-Bohrs-Radians)
 Mixed Optimization -- RFO/linear search
 Second derivative matrix not updated -- first step.
 ITU=  0
     Eigenvalues ---    0.02505   0.02639   0.02674   0.02834   0.16000
     Eigenvalues ---    0.16000   0.22605   0.24688   0.37510   0.48741
     Eigenvalues ---    0.50870   0.56601   0.58498   0.66939   0.78934
 RFO step:  Lambda=-1.07047099D-01 EMin= 2.50488176D-02
 Linear search not attempted -- first point.
 Maximum step size (   0.300) exceeded in Quadratic search.
    -- Step size scaled by   0.798
 Iteration  1 RMS(Cart)=  0.06145916 RMS(Int)=  0.00023584
 Iteration  2 RMS(Cart)=  0.00015733 RMS(Int)=  0.00019147
 Iteration  3 RMS(Cart)=  0.00000003 RMS(Int)=  0.00019147
 ClnCor:  largest displacement from symmetrization is 1.50D-11 for atom     1.
 Variable       Old X    -DE/DX   Delta X   Delta X   Delta X     New X
                                 (Linear)    (Quad)   (Total)
    R1        2.51383   0.09451   0.00000   0.10194   0.10169   2.61553
    R2        2.43626   0.11401   0.00000   0.10876   0.10857   2.54484
    R3        2.01785   0.02383   0.00000   0.03945   0.03945   2.05730
    R4        2.50598   0.11912   0.00000   0.13430   0.13433   2.64030
    R5        1.87858   0.05584   0.00000   0.07496   0.07496   1.95354
    R6        2.36600   0.17138   0.00000   0.15128   0.15155   2.51755
    R7        2.53497   0.11381   0.00000   0.13772   0.13786   2.67282
    A1        1.88804   0.01464   0.00000   0.01529   0.01485   1.90289
    A2        2.18209  -0.00885   0.00000  -0.01222  -0.01200   2.17010
    A3        2.21305  -0.00579   0.00000  -0.00307  -0.00285   2.21019
    A4        1.88509   0.00707   0.00000   0.00592   0.00568   1.89077
    A5        2.29039  -0.00543   0.00000  -0.00862  -0.00850   2.28188
    A6        2.10770  -0.00164   0.00000   0.00271   0.00283   2.11053
    A7        1.86199  -0.01170   0.00000  -0.01178  -0.01142   1.85057
    A8        1.94382  -0.01229   0.00000  -0.00803  -0.00756   1.93626
    A9        1.84584   0.00229   0.00000  -0.00139  -0.00155   1.84429
    D1        0.00000   0.00000   0.00000   0.00000   0.00000   0.00000
    D2        3.14159   0.00000   0.00000   0.00000   0.00000   3.14159
    D3        3.14159   0.00000   0.00000   0.00000   0.00000   3.14159
    D4        0.00000   0.00000   0.00000   0.00000   0.00000   0.00000
    D5        0.00000   0.00000   0.00000   0.00000   0.00000   0.00000
    D6        3.14159   0.00000   0.00000   0.00000   0.00000   3.14159
    D7        0.00000   0.00000   0.00000   0.00000   0.00000   0.00000
    D8        3.14159   0.00000   0.00000   0.00000   0.00000   3.14159
    D9        0.00000   0.00000   0.00000   0.00000   0.00000   0.00000
   D10        0.00000   0.00000   0.00000   0.00000   0.00000   0.00000
         Item               Value     Threshold  Converged?
 Maximum Force            0.171378     0.000450     NO 
 RMS     Force            0.056443     0.000300     NO 
 Maximum Displacement     0.130517     0.001800     NO 
 RMS     Displacement     0.061421     0.001200     NO 
 Predicted change in Energy=-5.614222D-02
 GradGradGradGradGradGradGradGradGradGradGradGradGradGradGradGradGradGrad

                          Input orientation:                          
 ---------------------------------------------------------------------
 Center     Atomic      Atomic             Coordinates (Angstroms)
 Number     Number       Type             X           Y           Z
 ---------------------------------------------------------------------
      1          6           0        1.030728    0.015529    0.000000
      2          7           0        0.397355   -1.215125    0.000000
      3          7           0       -0.983010   -0.998964    0.000000
      4          7           0       -1.148360    0.322966    0.000000
      5          7           0        0.099676    0.988493    0.000000
      6          1           0        2.111047    0.150171    0.000000
      7          1           0        0.785021   -2.173452    0.000000
 ---------------------------------------------------------------------
                    Distance matrix (angstroms):
                    1          2          3          4          5
     1  C    0.000000
     2  N    1.384078   0.000000
     3  N    2.254848   1.397188   0.000000
     4  N    2.200669   2.180587   1.332231   0.000000
     5  N    1.346670   2.223634   2.263227   1.414397   0.000000
     6  H    1.088676   2.191066   3.300561   3.263984   2.179082
     7  H    2.202728   1.033768   2.122583   3.157541   3.235367
                    6          7
     6  H    0.000000
     7  H    2.675363   0.000000
 Stoichiometry    CH2N4
 Framework group  CS[SG(CH2N4)]
 Deg. of freedom    11
 Full point group                 CS      NOp   2
 Largest Abelian subgroup         CS      NOp   2
 Largest concise Abelian subgroup C1      NOp   1
                         Standard orientation:                         
 ---------------------------------------------------------------------
 Center     Atomic      Atomic             Coordinates (Angstroms)
 Number     Number       Type             X           Y           Z
 ---------------------------------------------------------------------
      1          6           0        1.096332    0.244433    0.000000
      2          7           0        0.000000    1.089257    0.000000
      3          7           0       -1.157649    0.306963    0.000000
      4          7           0       -0.745534   -0.959923    0.000000
      5          7           0        0.667026   -1.031975    0.000000
      6          1           0        2.131460    0.581665    0.000000
      7          1           0       -0.056350    2.121487    0.000000
 ---------------------------------------------------------------------
 Rotational constants (GHZ):      9.8948197      9.7394323      4.9082556
 Standard basis: STO-3G (5D, 7F)
 There are    22 symmetry adapted cartesian basis functions of A'  symmetry.
 There are     5 symmetry adapted cartesian basis functions of A"  symmetry.
 There are    22 symmetry adapted basis functions of A'  symmetry.
 There are     5 symmetry adapted basis functions of A"  symmetry.
    27 basis functions,    81 primitive gaussians,    27 cartesian basis functions
    18 alpha electrons       18 beta electrons
       nuclear repulsion energy       161.7314744481 Hartrees.
 NAtoms=    7 NActive=    7 NUniq=    7 SFac= 1.00D+00 NAtFMM=   60 NAOKFM=F Big=F
 Integral buffers will be    131072 words long.
 Regular integral format.
 Two-electron integral symmetry is turned on.
 One-electron integrals computed using PRISM.
 NBasis=    27 RedAO= T EigKep=  3.20D-01  NBF=    22     5
 NBsUse=    27 1.00D-06 EigRej= -1.00D+00 NBFU=    22     5
 Initial guess from the checkpoint file:  "/tmp/rdj3/g09-18029/Gau-8802.chk"
 B after Tr=     0.000000    0.000000    0.000000
         Rot=    0.999995    0.000000    0.000000   -0.003109 Ang=  -0.36 deg.
 Initial guess orbital symmetries:
       Occupied  (A') (A') (A') (A') (A') (A') (A') (A') (A') (A')
                 (A') (A") (A') (A') (A") (A") (A') (A')
       Virtual   (A') (A') (A') (A') (A') (A') (A') (A") (A")
 ExpMin= 1.69D-01 ExpMax= 9.91D+01 ExpMxC= 9.91D+01 IAcc=1 IRadAn=         1 AccDes= 0.00D+00
 Harris functional with IExCor=  419 and IRadAn=       1 diagonalized for initial guess.
 HarFok:  IExCor=  419 AccDes= 0.00D+00 IRadAn=         1 IDoV= 1 UseB2=F ITyADJ=14
 ICtDFT=  3500011 ScaDFX=  1.000000  1.000000  1.000000  1.000000
 FoFCou: FMM=F IPFlag=           0 FMFlag=      100000 FMFlg1=           0
         NFxFlg=           0 DoJE=T BraDBF=F KetDBF=T FulRan=T
         wScrn=  0.000000 ICntrl=     500 IOpCl=  0 I1Cent=   200000004 NGrid=           0
         NMat0=    1 NMatS0=      1 NMatT0=    0 NMatD0=    1 NMtDS0=    0 NMtDT0=    0
 Petite list used in FoFCou.
 Keep R1 ints in memory in symmetry-blocked form, NReq=953772.
 Requested convergence on RMS density matrix=1.00D-08 within 128 cycles.
 Requested convergence on MAX density matrix=1.00D-06.
 Requested convergence on             energy=1.00D-06.
 No special actions if energy rises.
 Integral accuracy reduced to 1.0D-05 until final iterations.
 Initial convergence to 1.0D-05 achieved.  Increase integral accuracy.
 SCF Done:  E(RB2PLYP) =  -254.419486468     A.U. after   14 cycles
            NFock= 14  Conv=0.64D-08     -V/T= 2.0160
 DoSCS=T DFT=T ScalE2(SS,OS)=  0.270000  0.270000
 ExpMin= 1.69D-01 ExpMax= 9.91D+01 ExpMxC= 9.91D+01 IAcc=3 IRadAn=         5 AccDes= 0.00D+00
 HarFok:  IExCor=  205 AccDes= 0.00D+00 IRadAn=         5 IDoV=-2 UseB2=F ITyADJ=14
 ICtDFT= 12500011 ScaDFX=  1.000000  1.000000  1.000000  1.000000
 Range of M.O.s used for correlation:     6    27
 NBasis=    27 NAE=    18 NBE=    18 NFC=     5 NFV=     0
 NROrb=     22 NOA=    13 NOB=    13 NVA=     9 NVB=     9
 DoSCS=T DFT=T ScalE2(SS,OS)=  0.270000  0.270000
 Fully direct method using O(ONN) memory.
 JobTyp=1 Pass  1:  I=   6 to  18 NPSUse=  8 ParTrn=T ParDer=T DoDerP=T.
 Spin components of T(2) and E(2):
     alpha-alpha T2 =       0.3367846585D-01 E2=     -0.1365372248D-01
     alpha-beta  T2 =       0.2173099010D+00 E2=     -0.8771205623D-01
     beta-beta   T2 =       0.3367846585D-01 E2=     -0.1365372248D-01
 E2(B2PLYP) =    -0.1150195012D+00 E(B2PLYP) =    -0.25453450596902D+03
          IDoAtm=1111111
          Differentiating once with respect to electric field.
                with respect to dipole field.
          Differentiating once with respect to nuclear coordinates.
 Keep R1 ints in memory in symmetry-blocked form, NReq=933384.
          There are     1 degrees of freedom in the 1st order CPHF.  IDoFFX=0 NUNeed=     1.
 LinEq1:  Iter=  0 NonCon=     1 RMS=6.98D-03 Max=3.26D-02 NDo=     1
 AX will form     1 AO Fock derivatives at one time.
 LinEq1:  Iter=  1 NonCon=     1 RMS=2.10D-03 Max=9.58D-03 NDo=     1
 LinEq1:  Iter=  2 NonCon=     1 RMS=7.49D-04 Max=6.37D-03 NDo=     1
 LinEq1:  Iter=  3 NonCon=     1 RMS=3.15D-04 Max=1.77D-03 NDo=     1
 LinEq1:  Iter=  4 NonCon=     1 RMS=1.36D-04 Max=8.34D-04 NDo=     1
 LinEq1:  Iter=  5 NonCon=     1 RMS=7.57D-05 Max=5.87D-04 NDo=     1
 LinEq1:  Iter=  6 NonCon=     1 RMS=1.58D-05 Max=8.18D-05 NDo=     1
 LinEq1:  Iter=  7 NonCon=     1 RMS=6.12D-06 Max=3.83D-05 NDo=     1
 LinEq1:  Iter=  8 NonCon=     1 RMS=2.47D-06 Max=1.49D-05 NDo=     1
 LinEq1:  Iter=  9 NonCon=     1 RMS=3.53D-07 Max=1.47D-06 NDo=     1
 LinEq1:  Iter= 10 NonCon=     1 RMS=3.93D-08 Max=1.17D-07 NDo=     1
 LinEq1:  Iter= 11 NonCon=     1 RMS=3.88D-09 Max=2.35D-08 NDo=     1
 LinEq1:  Iter= 12 NonCon=     1 RMS=2.78D-10 Max=1.22D-09 NDo=     1
 LinEq1:  Iter= 13 NonCon=     0 RMS=3.52D-11 Max=1.66D-10 NDo=     1
 Linear equations converged to 1.000D-10 1.000D-09 after    13 iterations.
 End of Minotr F.D. properties file   721 does not exist.
 End of Minotr F.D. properties file   722 does not exist.
 End of Minotr F.D. properties file   788 does not exist.
 Calling FoFJK, ICntrl=  10002127 FMM=F ISym2X=1 I1Cent= 0 IOpClX= 0 NMat=1 NMatS=1 NMatT=0.
 ***** Axes restored to original set *****
 -------------------------------------------------------------------
 Center     Atomic                   Forces (Hartrees/Bohr)
 Number     Number              X              Y              Z
 -------------------------------------------------------------------
      1        6           0.013096064   -0.005009695    0.000000000
      2        7           0.019646425   -0.002555023    0.000000000
      3        7          -0.030412790   -0.049825869    0.000000000
      4        7          -0.032867894    0.030263697    0.000000000
      5        7           0.018459133    0.038288513    0.000000000
      6        1           0.006358238   -0.000165749    0.000000000
      7        1           0.005720823   -0.010995875    0.000000000
 -------------------------------------------------------------------
 Cartesian Forces:  Max     0.049825869 RMS     0.019510315

 GradGradGradGradGradGradGradGradGradGradGradGradGradGradGradGradGradGrad
 Berny optimization.
 Using GEDIIS/GDIIS optimizer.
 FormGI is forming the generalized inverse of G from B-inverse, IUseBI=4.
 Internal  Forces:  Max     0.047916292 RMS     0.014995399
 Search for a local minimum.
 Step number   2 out of a maximum of   36
 All quantities printed in internal units (Hartrees-Bohrs-Radians)
 Mixed Optimization -- RFO/linear search
 Update second derivatives using D2CorX and points    1    2
 DE= -5.17D-02 DEPred=-5.61D-02 R= 9.21D-01
 TightC=F SS=  1.41D+00  RLast= 3.00D-01 DXNew= 5.0454D-01 8.9999D-01
 Trust test= 9.21D-01 RLast= 3.00D-01 DXMaxT set to 5.05D-01
 ITU=  1  0
 Use linear search instead of GDIIS.
     Eigenvalues ---    0.02504   0.02637   0.02677   0.02835   0.15998
     Eigenvalues ---    0.16000   0.22595   0.24553   0.37593   0.49169
     Eigenvalues ---    0.50822   0.56634   0.61137   0.68942   0.80575
 RFO step:  Lambda=-1.66520523D-03 EMin= 2.50397670D-02
 Quartic linear search produced a step of  0.48863.
 Iteration  1 RMS(Cart)=  0.03196201 RMS(Int)=  0.00044400
 Iteration  2 RMS(Cart)=  0.00048431 RMS(Int)=  0.00018188
 Iteration  3 RMS(Cart)=  0.00000012 RMS(Int)=  0.00018188
 ClnCor:  largest displacement from symmetrization is 3.10D-11 for atom     1.
 Variable       Old X    -DE/DX   Delta X   Delta X   Delta X     New X
                                 (Linear)    (Quad)   (Total)
    R1        2.61553   0.01696   0.04969  -0.01926   0.03022   2.64575
    R2        2.54484   0.02330   0.05305  -0.01422   0.03863   2.58346
    R3        2.05730   0.00629   0.01928   0.00465   0.02392   2.08122
    R4        2.64030   0.03191   0.06564   0.00554   0.07124   2.71154
    R5        1.95354   0.01234   0.03663  -0.00228   0.03435   1.98788
    R6        2.51755   0.04792   0.07405   0.00653   0.08084   2.59839
    R7        2.67282   0.03545   0.06736   0.02209   0.08954   2.76237
    A1        1.90289   0.00740   0.00726   0.01435   0.02119   1.92409
    A2        2.17010  -0.00468  -0.00586  -0.01437  -0.02003   2.15007
    A3        2.21019  -0.00272  -0.00139   0.00002  -0.00117   2.20903
    A4        1.89077   0.00621   0.00277   0.02097   0.02358   1.91435
    A5        2.28188  -0.00426  -0.00415  -0.01881  -0.02288   2.25900
    A6        2.11053  -0.00196   0.00138  -0.00216  -0.00070   2.10984
    A7        1.85057  -0.00985  -0.00558  -0.03648  -0.04164   1.80893
    A8        1.93626  -0.00025  -0.00369   0.02822   0.02493   1.96119
    A9        1.84429  -0.00351  -0.00076  -0.02706  -0.02806   1.81622
    D1        0.00000   0.00000   0.00000   0.00000   0.00000   0.00000
    D2        3.14159   0.00000   0.00000   0.00000   0.00000   3.14159
    D3        3.14159   0.00000   0.00000   0.00000   0.00000   3.14159
    D4        0.00000   0.00000   0.00000   0.00000   0.00000   0.00000
    D5        0.00000   0.00000   0.00000   0.00000   0.00000   0.00000
    D6        3.14159   0.00000   0.00000   0.00000   0.00000   3.14159
    D7        0.00000   0.00000   0.00000   0.00000   0.00000   0.00000
    D8        3.14159   0.00000   0.00000   0.00000   0.00000   3.14159
    D9        0.00000   0.00000   0.00000   0.00000   0.00000   0.00000
   D10        0.00000   0.00000   0.00000   0.00000   0.00000   0.00000
         Item               Value     Threshold  Converged?
 Maximum Force            0.047916     0.000450     NO 
 RMS     Force            0.014995     0.000300     NO 
 Maximum Displacement     0.081908     0.001800     NO 
 RMS     Displacement     0.031909     0.001200     NO 
 Predicted change in Energy=-3.934625D-03
 GradGradGradGradGradGradGradGradGradGradGradGradGradGradGradGradGradGrad

                          Input orientation:                          
 ---------------------------------------------------------------------
 Center     Atomic      Atomic             Coordinates (Angstroms)
 Number     Number       Type             X           Y           Z
 ---------------------------------------------------------------------
      1          6           0        1.036925    0.024037    0.000000
      2          7           0        0.396070   -1.220751    0.000000
      3          7           0       -1.026354   -1.032055    0.000000
      4          7           0       -1.172165    0.335200    0.000000
      5          7           0        0.113017    1.031699    0.000000
      6          1           0        2.132329    0.138187    0.000000
      7          1           0        0.812635   -2.186700    0.000000
 ---------------------------------------------------------------------
                    Distance matrix (angstroms):
                    1          2          3          4          5
     1  C    0.000000
     2  N    1.400068   0.000000
     3  N    2.317854   1.434885   0.000000
     4  N    2.230896   2.209149   1.375008   0.000000
     5  N    1.367109   2.270165   2.357382   1.461781   0.000000
     6  H    1.101336   2.204838   3.368493   3.310361   2.208163
     7  H    2.222085   1.051943   2.171424   3.209269   3.293563
                    6          7
     6  H    0.000000
     7  H    2.673330   0.000000
 Stoichiometry    CH2N4
 Framework group  CS[SG(CH2N4)]
 Deg. of freedom    11
 Full point group                 CS      NOp   2
 Largest Abelian subgroup         CS      NOp   2
 Largest concise Abelian subgroup C1      NOp   1
                         Standard orientation:                         
 ---------------------------------------------------------------------
 Center     Atomic      Atomic             Coordinates (Angstroms)
 Number     Number       Type             X           Y           Z
 ---------------------------------------------------------------------
      1          6           0        1.110887    0.248806    0.000000
      2          7           0        0.000000    1.100934    0.000000
      3          7           0       -1.205776    0.323117    0.000000
      4          7           0       -0.754008   -0.975556    0.000000
      5          7           0        0.705512   -1.056820    0.000000
      6          1           0        2.150206    0.613163    0.000000
      7          1           0       -0.035619    2.152274    0.000000
 ---------------------------------------------------------------------
 Rotational constants (GHZ):      9.6229869      9.1450732      4.6889726
 Standard basis: STO-3G (5D, 7F)
 There are    22 symmetry adapted cartesian basis functions of A'  symmetry.
 There are     5 symmetry adapted cartesian basis functions of A"  symmetry.
 There are    22 symmetry adapted basis functions of A'  symmetry.
 There are     5 symmetry adapted basis functions of A"  symmetry.
    27 basis functions,    81 primitive gaussians,    27 cartesian basis functions
    18 alpha electrons       18 beta electrons
       nuclear repulsion energy       158.1011585100 Hartrees.
 NAtoms=    7 NActive=    7 NUniq=    7 SFac= 1.00D+00 NAtFMM=   60 NAOKFM=F Big=F
 Integral buffers will be    131072 words long.
 Regular integral format.
 Two-electron integral symmetry is turned on.
 One-electron integrals computed using PRISM.
 NBasis=    27 RedAO= T EigKep=  3.39D-01  NBF=    22     5
 NBsUse=    27 1.00D-06 EigRej= -1.00D+00 NBFU=    22     5
 Initial guess from the checkpoint file:  "/tmp/rdj3/g09-18029/Gau-8802.chk"
 B after Tr=     0.000000    0.000000    0.000000
         Rot=    0.999999    0.000000    0.000000   -0.001541 Ang=  -0.18 deg.
 Initial guess orbital symmetries:
       Occupied  (A') (A') (A') (A') (A') (A') (A') (A') (A') (A')
                 (A') (A') (A") (A') (A") (A') (A") (A')
       Virtual   (A') (A') (A') (A') (A') (A') (A') (A") (A")
 ExpMin= 1.69D-01 ExpMax= 9.91D+01 ExpMxC= 9.91D+01 IAcc=1 IRadAn=         1 AccDes= 0.00D+00
 Harris functional with IExCor=  419 and IRadAn=       1 diagonalized for initial guess.
 HarFok:  IExCor=  419 AccDes= 0.00D+00 IRadAn=         1 IDoV= 1 UseB2=F ITyADJ=14
 ICtDFT=  3500011 ScaDFX=  1.000000  1.000000  1.000000  1.000000
 FoFCou: FMM=F IPFlag=           0 FMFlag=      100000 FMFlg1=           0
         NFxFlg=           0 DoJE=T BraDBF=F KetDBF=T FulRan=T
         wScrn=  0.000000 ICntrl=     500 IOpCl=  0 I1Cent=   200000004 NGrid=           0
         NMat0=    1 NMatS0=      1 NMatT0=    0 NMatD0=    1 NMtDS0=    0 NMtDT0=    0
 Petite list used in FoFCou.
 Keep R1 ints in memory in symmetry-blocked form, NReq=953772.
 Requested convergence on RMS density matrix=1.00D-08 within 128 cycles.
 Requested convergence on MAX density matrix=1.00D-06.
 Requested convergence on             energy=1.00D-06.
 No special actions if energy rises.
 Integral accuracy reduced to 1.0D-05 until final iterations.
 Initial convergence to 1.0D-05 achieved.  Increase integral accuracy.
 SCF Done:  E(RB2PLYP) =  -254.416650129     A.U. after   14 cycles
            NFock= 14  Conv=0.56D-08     -V/T= 2.0165
 DoSCS=T DFT=T ScalE2(SS,OS)=  0.270000  0.270000
 ExpMin= 1.69D-01 ExpMax= 9.91D+01 ExpMxC= 9.91D+01 IAcc=3 IRadAn=         5 AccDes= 0.00D+00
 HarFok:  IExCor=  205 AccDes= 0.00D+00 IRadAn=         5 IDoV=-2 UseB2=F ITyADJ=14
 ICtDFT= 12500011 ScaDFX=  1.000000  1.000000  1.000000  1.000000
 Range of M.O.s used for correlation:     6    27
 NBasis=    27 NAE=    18 NBE=    18 NFC=     5 NFV=     0
 NROrb=     22 NOA=    13 NOB=    13 NVA=     9 NVB=     9
 DoSCS=T DFT=T ScalE2(SS,OS)=  0.270000  0.270000
 Fully direct method using O(ONN) memory.
 JobTyp=1 Pass  1:  I=   6 to  18 NPSUse=  8 ParTrn=T ParDer=T DoDerP=T.
 Spin components of T(2) and E(2):
     alpha-alpha T2 =       0.3836869731D-01 E2=     -0.1473452360D-01
     alpha-beta  T2 =       0.2454142791D+00 E2=     -0.9398931080D-01
     beta-beta   T2 =       0.3836869731D-01 E2=     -0.1473452360D-01
 E2(B2PLYP) =    -0.1234583580D+00 E(B2PLYP) =    -0.25454010848750D+03
          IDoAtm=1111111
          Differentiating once with respect to electric field.
                with respect to dipole field.
          Differentiating once with respect to nuclear coordinates.
 Keep R1 ints in memory in symmetry-blocked form, NReq=933384.
          There are     1 degrees of freedom in the 1st order CPHF.  IDoFFX=0 NUNeed=     1.
 LinEq1:  Iter=  0 NonCon=     1 RMS=7.68D-03 Max=3.63D-02 NDo=     1
 AX will form     1 AO Fock derivatives at one time.
 LinEq1:  Iter=  1 NonCon=     1 RMS=2.45D-03 Max=1.03D-02 NDo=     1
 LinEq1:  Iter=  2 NonCon=     1 RMS=1.03D-03 Max=9.51D-03 NDo=     1
 LinEq1:  Iter=  3 NonCon=     1 RMS=6.32D-04 Max=4.28D-03 NDo=     1
 LinEq1:  Iter=  4 NonCon=     1 RMS=2.18D-04 Max=1.08D-03 NDo=     1
 LinEq1:  Iter=  5 NonCon=     1 RMS=1.48D-04 Max=1.00D-03 NDo=     1
 LinEq1:  Iter=  6 NonCon=     1 RMS=2.71D-05 Max=1.44D-04 NDo=     1
 LinEq1:  Iter=  7 NonCon=     1 RMS=1.43D-05 Max=1.11D-04 NDo=     1
 LinEq1:  Iter=  8 NonCon=     1 RMS=5.50D-06 Max=3.20D-05 NDo=     1
 LinEq1:  Iter=  9 NonCon=     1 RMS=1.16D-06 Max=5.27D-06 NDo=     1
 LinEq1:  Iter= 10 NonCon=     1 RMS=1.30D-07 Max=5.06D-07 NDo=     1
 LinEq1:  Iter= 11 NonCon=     1 RMS=1.35D-08 Max=6.61D-08 NDo=     1
 LinEq1:  Iter= 12 NonCon=     1 RMS=1.67D-09 Max=9.43D-09 NDo=     1
 LinEq1:  Iter= 13 NonCon=     1 RMS=1.35D-10 Max=7.02D-10 NDo=     1
 LinEq1:  Iter= 14 NonCon=     0 RMS=9.65D-12 Max=5.26D-11 NDo=     1
 Linear equations converged to 1.000D-10 1.000D-09 after    14 iterations.
 End of Minotr F.D. properties file   721 does not exist.
 End of Minotr F.D. properties file   722 does not exist.
 End of Minotr F.D. properties file   788 does not exist.
 Calling FoFJK, ICntrl=  10002127 FMM=F ISym2X=1 I1Cent= 0 IOpClX= 0 NMat=1 NMatS=1 NMatT=0.
 ***** Axes restored to original set *****
 -------------------------------------------------------------------
 Center     Atomic                   Forces (Hartrees/Bohr)
 Number     Number              X              Y              Z
 -------------------------------------------------------------------
      1        6          -0.000828077   -0.004807314    0.000000000
      2        7           0.007510851   -0.003743378    0.000000000
      3        7           0.006734650    0.001821135    0.000000000
      4        7          -0.011911456    0.008333091    0.000000000
      5        7           0.002222806   -0.004885800    0.000000000
      6        1          -0.003254720   -0.000938844    0.000000000
      7        1          -0.000474053    0.004221110    0.000000000
 -------------------------------------------------------------------
 Cartesian Forces:  Max     0.011911456 RMS     0.004432273

 GradGradGradGradGradGradGradGradGradGradGradGradGradGradGradGradGradGrad
 Berny optimization.
 Using GEDIIS/GDIIS optimizer.
 FormGI is forming the generalized inverse of G from B-inverse, IUseBI=4.
 Internal  Forces:  Max     0.011340955 RMS     0.003736103
 Search for a local minimum.
 Step number   3 out of a maximum of   36
 All quantities printed in internal units (Hartrees-Bohrs-Radians)
 Mixed Optimization -- RFO/linear search
 Update second derivatives using D2CorX and points    1    2    3
 DE= -5.60D-03 DEPred=-3.93D-03 R= 1.42D+00
 TightC=F SS=  1.41D+00  RLast= 1.70D-01 DXNew= 8.4853D-01 5.0964D-01
 Trust test= 1.42D+00 RLast= 1.70D-01 DXMaxT set to 5.10D-01
 ITU=  1  1  0
 Use linear search instead of GDIIS.
     Eigenvalues ---    0.02502   0.02635   0.02677   0.02836   0.15829
     Eigenvalues ---    0.16001   0.22496   0.27010   0.37754   0.41507
     Eigenvalues ---    0.49367   0.54430   0.60875   0.67323   0.73627
 RFO step:  Lambda=-1.06760680D-03 EMin= 2.50235573D-02
 Quartic linear search produced a step of -0.05279.
 Iteration  1 RMS(Cart)=  0.01291763 RMS(Int)=  0.00013642
 Iteration  2 RMS(Cart)=  0.00011016 RMS(Int)=  0.00004128
 Iteration  3 RMS(Cart)=  0.00000000 RMS(Int)=  0.00004128
 ClnCor:  largest displacement from symmetrization is 6.63D-13 for atom     1.
 Variable       Old X    -DE/DX   Delta X   Delta X   Delta X     New X
                                 (Linear)    (Quad)   (Total)
    R1        2.64575  -0.00800  -0.00160  -0.01016  -0.01181   2.63393
    R2        2.58346   0.00116  -0.00204   0.00576   0.00371   2.58717
    R3        2.08122  -0.00333  -0.00126  -0.00584  -0.00710   2.07412
    R4        2.71154   0.00176  -0.00376   0.01109   0.00731   2.71885
    R5        1.98788  -0.00406  -0.00181  -0.00403  -0.00585   1.98204
    R6        2.59839   0.00442  -0.00427   0.01554   0.01132   2.60971
    R7        2.76237   0.00138  -0.00473   0.01338   0.00870   2.77107
    A1        1.92409   0.00151  -0.00112   0.00513   0.00393   1.92802
    A2        2.15007  -0.00138   0.00106  -0.00720  -0.00610   2.14397
    A3        2.20903  -0.00013   0.00006   0.00207   0.00217   2.21119
    A4        1.91435  -0.00349  -0.00124  -0.01492  -0.01625   1.89810
    A5        2.25900   0.00052   0.00121  -0.00090   0.00035   2.25935
    A6        2.10984   0.00297   0.00004   0.01582   0.01591   2.12574
    A7        1.80893   0.00779   0.00220   0.02784   0.03006   1.83899
    A8        1.96119  -0.01134  -0.00132  -0.03584  -0.03704   1.92415
    A9        1.81622   0.00554   0.00148   0.01779   0.01930   1.83552
    D1        0.00000   0.00000   0.00000   0.00000   0.00000   0.00000
    D2        3.14159   0.00000   0.00000   0.00000   0.00000   3.14159
    D3        3.14159   0.00000   0.00000   0.00000   0.00000   3.14159
    D4        0.00000   0.00000   0.00000   0.00000   0.00000   0.00000
    D5        0.00000   0.00000   0.00000   0.00000   0.00000   0.00000
    D6        3.14159   0.00000   0.00000   0.00000   0.00000   3.14159
    D7        0.00000   0.00000   0.00000   0.00000   0.00000   0.00000
    D8        3.14159   0.00000   0.00000   0.00000   0.00000   3.14159
    D9        0.00000   0.00000   0.00000   0.00000   0.00000   0.00000
   D10        0.00000   0.00000   0.00000   0.00000   0.00000   0.00000
         Item               Value     Threshold  Converged?
 Maximum Force            0.011341     0.000450     NO 
 RMS     Force            0.003736     0.000300     NO 
 Maximum Displacement     0.037306     0.001800     NO 
 RMS     Displacement     0.012923     0.001200     NO 
 Predicted change in Energy=-5.500726D-04
 GradGradGradGradGradGradGradGradGradGradGradGradGradGradGradGradGradGrad

                          Input orientation:                          
 ---------------------------------------------------------------------
 Center     Atomic      Atomic             Coordinates (Angstroms)
 Number     Number       Type             X           Y           Z
 ---------------------------------------------------------------------
      1          6           0        1.036254    0.017203    0.000000
      2          7           0        0.404815   -1.225381    0.000000
      3          7           0       -1.019280   -1.020538    0.000000
      4          7           0       -1.191906    0.349628    0.000000
      5          7           0        0.109661    1.025064    0.000000
      6          1           0        2.128014    0.130071    0.000000
      7          1           0        0.824900   -2.186429    0.000000
 ---------------------------------------------------------------------
                    Distance matrix (angstroms):
                    1          2          3          4          5
     1  C    0.000000
     2  N    1.393818   0.000000
     3  N    2.302635   1.438752   0.000000
     4  N    2.252821   2.242804   1.380999   0.000000
     5  N    1.369072   2.269717   2.336450   1.466386   0.000000
     6  H    1.097579   2.192411   3.351025   3.327172   2.207887
     7  H    2.213744   1.048850   2.181812   3.240231   3.290175
                    6          7
     6  H    0.000000
     7  H    2.657871   0.000000
 Stoichiometry    CH2N4
 Framework group  CS[SG(CH2N4)]
 Deg. of freedom    11
 Full point group                 CS      NOp   2
 Largest Abelian subgroup         CS      NOp   2
 Largest concise Abelian subgroup C1      NOp   1
                         Standard orientation:                         
 ---------------------------------------------------------------------
 Center     Atomic      Atomic             Coordinates (Angstroms)
 Number     Number       Type             X           Y           Z
 ---------------------------------------------------------------------
      1          6           0        1.106390    0.263065    0.000000
      2          7           0        0.000000    1.110785    0.000000
      3          7           0       -1.195752    0.310670    0.000000
      4          7           0       -0.759347   -0.999562    0.000000
      5          7           0        0.706296   -1.046241    0.000000
      6          1           0        2.139729    0.633055    0.000000
      7          1           0       -0.036453    2.159001    0.000000
 ---------------------------------------------------------------------
 Rotational constants (GHZ):      9.4128684      9.2893399      4.6753481
 Standard basis: STO-3G (5D, 7F)
 There are    22 symmetry adapted cartesian basis functions of A'  symmetry.
 There are     5 symmetry adapted cartesian basis functions of A"  symmetry.
 There are    22 symmetry adapted basis functions of A'  symmetry.
 There are     5 symmetry adapted basis functions of A"  symmetry.
    27 basis functions,    81 primitive gaussians,    27 cartesian basis functions
    18 alpha electrons       18 beta electrons
       nuclear repulsion energy       157.8726492411 Hartrees.
 NAtoms=    7 NActive=    7 NUniq=    7 SFac= 1.00D+00 NAtFMM=   60 NAOKFM=F Big=F
 Integral buffers will be    131072 words long.
 Regular integral format.
 Two-electron integral symmetry is turned on.
 One-electron integrals computed using PRISM.
 NBasis=    27 RedAO= T EigKep=  3.38D-01  NBF=    22     5
 NBsUse=    27 1.00D-06 EigRej= -1.00D+00 NBFU=    22     5
 Initial guess from the checkpoint file:  "/tmp/rdj3/g09-18029/Gau-8802.chk"
 B after Tr=     0.000000    0.000000    0.000000
         Rot=    0.999995    0.000000    0.000000   -0.003257 Ang=  -0.37 deg.
 Initial guess orbital symmetries:
       Occupied  (A') (A') (A') (A') (A') (A') (A') (A') (A') (A')
                 (A') (A') (A") (A') (A') (A") (A') (A")
       Virtual   (A') (A') (A') (A') (A') (A') (A') (A") (A")
 ExpMin= 1.69D-01 ExpMax= 9.91D+01 ExpMxC= 9.91D+01 IAcc=1 IRadAn=         1 AccDes= 0.00D+00
 Harris functional with IExCor=  419 and IRadAn=       1 diagonalized for initial guess.
 HarFok:  IExCor=  419 AccDes= 0.00D+00 IRadAn=         1 IDoV= 1 UseB2=F ITyADJ=14
 ICtDFT=  3500011 ScaDFX=  1.000000  1.000000  1.000000  1.000000
 FoFCou: FMM=F IPFlag=           0 FMFlag=      100000 FMFlg1=           0
         NFxFlg=           0 DoJE=T BraDBF=F KetDBF=T FulRan=T
         wScrn=  0.000000 ICntrl=     500 IOpCl=  0 I1Cent=   200000004 NGrid=           0
         NMat0=    1 NMatS0=      1 NMatT0=    0 NMatD0=    1 NMtDS0=    0 NMtDT0=    0
 Petite list used in FoFCou.
 Keep R1 ints in memory in symmetry-blocked form, NReq=953772.
 Requested convergence on RMS density matrix=1.00D-08 within 128 cycles.
 Requested convergence on MAX density matrix=1.00D-06.
 Requested convergence on             energy=1.00D-06.
 No special actions if energy rises.
 Integral accuracy reduced to 1.0D-05 until final iterations.
 Initial convergence to 1.0D-05 achieved.  Increase integral accuracy.
 SCF Done:  E(RB2PLYP) =  -254.416220450     A.U. after   13 cycles
            NFock= 13  Conv=0.53D-08     -V/T= 2.0165
 DoSCS=T DFT=T ScalE2(SS,OS)=  0.270000  0.270000
 ExpMin= 1.69D-01 ExpMax= 9.91D+01 ExpMxC= 9.91D+01 IAcc=3 IRadAn=         5 AccDes= 0.00D+00
 HarFok:  IExCor=  205 AccDes= 0.00D+00 IRadAn=         5 IDoV=-2 UseB2=F ITyADJ=14
 ICtDFT= 12500011 ScaDFX=  1.000000  1.000000  1.000000  1.000000
 Range of M.O.s used for correlation:     6    27
 NBasis=    27 NAE=    18 NBE=    18 NFC=     5 NFV=     0
 NROrb=     22 NOA=    13 NOB=    13 NVA=     9 NVB=     9
 DoSCS=T DFT=T ScalE2(SS,OS)=  0.270000  0.270000
 Fully direct method using O(ONN) memory.
 JobTyp=1 Pass  1:  I=   6 to  18 NPSUse=  8 ParTrn=T ParDer=T DoDerP=T.
 Spin components of T(2) and E(2):
     alpha-alpha T2 =       0.3872648500D-01 E2=     -0.1480822441D-01
     alpha-beta  T2 =       0.2475821056D+00 E2=     -0.9440776593D-01
     beta-beta   T2 =       0.3872648500D-01 E2=     -0.1480822441D-01
 E2(B2PLYP) =    -0.1240242148D+00 E(B2PLYP) =    -0.25454024466490D+03
          IDoAtm=1111111
          Differentiating once with respect to electric field.
                with respect to dipole field.
          Differentiating once with respect to nuclear coordinates.
 Keep R1 ints in memory in symmetry-blocked form, NReq=933384.
          There are     1 degrees of freedom in the 1st order CPHF.  IDoFFX=0 NUNeed=     1.
 LinEq1:  Iter=  0 NonCon=     1 RMS=7.64D-03 Max=3.39D-02 NDo=     1
 AX will form     1 AO Fock derivatives at one time.
 LinEq1:  Iter=  1 NonCon=     1 RMS=2.38D-03 Max=8.54D-03 NDo=     1
 LinEq1:  Iter=  2 NonCon=     1 RMS=9.64D-04 Max=8.58D-03 NDo=     1
 LinEq1:  Iter=  3 NonCon=     1 RMS=5.39D-04 Max=2.95D-03 NDo=     1
 LinEq1:  Iter=  4 NonCon=     1 RMS=2.14D-04 Max=1.18D-03 NDo=     1
 LinEq1:  Iter=  5 NonCon=     1 RMS=1.49D-04 Max=1.01D-03 NDo=     1
 LinEq1:  Iter=  6 NonCon=     1 RMS=2.77D-05 Max=1.48D-04 NDo=     1
 LinEq1:  Iter=  7 NonCon=     1 RMS=1.49D-05 Max=1.05D-04 NDo=     1
 LinEq1:  Iter=  8 NonCon=     1 RMS=5.38D-06 Max=3.15D-05 NDo=     1
 LinEq1:  Iter=  9 NonCon=     1 RMS=1.01D-06 Max=4.94D-06 NDo=     1
 LinEq1:  Iter= 10 NonCon=     1 RMS=1.26D-07 Max=4.77D-07 NDo=     1
 LinEq1:  Iter= 11 NonCon=     1 RMS=1.36D-08 Max=6.40D-08 NDo=     1
 LinEq1:  Iter= 12 NonCon=     1 RMS=1.70D-09 Max=9.30D-09 NDo=     1
 LinEq1:  Iter= 13 NonCon=     1 RMS=1.42D-10 Max=7.26D-10 NDo=     1
 LinEq1:  Iter= 14 NonCon=     0 RMS=9.62D-12 Max=4.33D-11 NDo=     1
 Linear equations converged to 1.000D-10 1.000D-09 after    14 iterations.
 End of Minotr F.D. properties file   721 does not exist.
 End of Minotr F.D. properties file   722 does not exist.
 End of Minotr F.D. properties file   788 does not exist.
 Calling FoFJK, ICntrl=  10002127 FMM=F ISym2X=1 I1Cent= 0 IOpClX= 0 NMat=1 NMatS=1 NMatT=0.
 ***** Axes restored to original set *****
 -------------------------------------------------------------------
 Center     Atomic                   Forces (Hartrees/Bohr)
 Number     Number              X              Y              Z
 -------------------------------------------------------------------
      1        6          -0.004069975    0.001423843    0.000000000
      2        7          -0.003440556    0.004719155    0.000000000
      3        7          -0.003497116   -0.005442854    0.000000000
      4        7           0.009235965   -0.004389679    0.000000000
      5        7           0.003335354    0.001783460    0.000000000
      6        1          -0.000383280    0.000755664    0.000000000
      7        1          -0.001180391    0.001150410    0.000000000
 -------------------------------------------------------------------
 Cartesian Forces:  Max     0.009235965 RMS     0.003213563

 GradGradGradGradGradGradGradGradGradGradGradGradGradGradGradGradGradGrad
 Berny optimization.
 Using GEDIIS/GDIIS optimizer.
 FormGI is forming the generalized inverse of G from B-inverse, IUseBI=4.
 Internal  Forces:  Max     0.008155558 RMS     0.003044274
 Search for a local minimum.
 Step number   4 out of a maximum of   36
 All quantities printed in internal units (Hartrees-Bohrs-Radians)
 Mixed Optimization -- RFO/linear search
 Update second derivatives using D2CorX and points    1    2    3    4
 DE= -1.36D-04 DEPred=-5.50D-04 R= 2.48D-01
 Trust test= 2.48D-01 RLast= 6.10D-02 DXMaxT set to 5.10D-01
 ITU=  0  1  1  0
 Use linear search instead of GDIIS.
     Eigenvalues ---    0.02501   0.02634   0.02683   0.02838   0.15892
     Eigenvalues ---    0.16027   0.22412   0.36871   0.38715   0.46836
     Eigenvalues ---    0.48984   0.54902   0.60312   0.72295   0.74819
 RFO step:  Lambda=-6.49362768D-05 EMin= 2.50063637D-02
 Quartic linear search produced a step of -0.43003.
 Iteration  1 RMS(Cart)=  0.00599517 RMS(Int)=  0.00002981
 Iteration  2 RMS(Cart)=  0.00002197 RMS(Int)=  0.00001408
 Iteration  3 RMS(Cart)=  0.00000000 RMS(Int)=  0.00001408
 ClnCor:  largest displacement from symmetrization is 1.81D-12 for atom     1.
 Variable       Old X    -DE/DX   Delta X   Delta X   Delta X     New X
                                 (Linear)    (Quad)   (Total)
    R1        2.63393   0.00080   0.00508  -0.00545  -0.00035   2.63359
    R2        2.58717  -0.00586  -0.00159  -0.00361  -0.00520   2.58197
    R3        2.07412  -0.00030   0.00305  -0.00430  -0.00125   2.07288
    R4        2.71885  -0.00361  -0.00314  -0.00138  -0.00452   2.71433
    R5        1.98204  -0.00153   0.00251  -0.00515  -0.00263   1.97941
    R6        2.60971  -0.00119  -0.00487   0.00273  -0.00215   2.60756
    R7        2.77107  -0.00077  -0.00374   0.00134  -0.00242   2.76865
    A1        1.92802   0.00127  -0.00169   0.00346   0.00180   1.92982
    A2        2.14397   0.00018   0.00262  -0.00067   0.00194   2.14591
    A3        2.21119  -0.00145  -0.00093  -0.00279  -0.00374   2.20746
    A4        1.89810   0.00399   0.00699   0.00074   0.00776   1.90585
    A5        2.25935  -0.00138  -0.00015  -0.00170  -0.00187   2.25748
    A6        2.12574  -0.00261  -0.00684   0.00096  -0.00589   2.11985
    A7        1.83899  -0.00804  -0.01293  -0.00193  -0.01486   1.82413
    A8        1.92415   0.00816   0.01593  -0.00002   0.01587   1.94002
    A9        1.83552  -0.00537  -0.00830  -0.00225  -0.01056   1.82496
    D1        0.00000   0.00000   0.00000   0.00000   0.00000   0.00000
    D2        3.14159   0.00000   0.00000   0.00000   0.00000   3.14159
    D3        3.14159   0.00000   0.00000   0.00000   0.00000   3.14159
    D4        0.00000   0.00000   0.00000   0.00000   0.00000   0.00000
    D5        0.00000   0.00000   0.00000   0.00000   0.00000   0.00000
    D6        3.14159   0.00000   0.00000   0.00000   0.00000   3.14159
    D7        0.00000   0.00000   0.00000   0.00000   0.00000   0.00000
    D8        3.14159   0.00000   0.00000   0.00000   0.00000   3.14159
    D9        0.00000   0.00000   0.00000   0.00000   0.00000   0.00000
   D10        0.00000   0.00000   0.00000   0.00000   0.00000   0.00000
         Item               Value     Threshold  Converged?
 Maximum Force            0.008156     0.000450     NO 
 RMS     Force            0.003044     0.000300     NO 
 Maximum Displacement     0.018560     0.001800     NO 
 RMS     Displacement     0.005997     0.001200     NO 
 Predicted change in Energy=-2.078851D-04
 GradGradGradGradGradGradGradGradGradGradGradGradGradGradGradGradGradGrad

                          Input orientation:                          
 ---------------------------------------------------------------------
 Center     Atomic      Atomic             Coordinates (Angstroms)
 Number     Number       Type             X           Y           Z
 ---------------------------------------------------------------------
      1          6           0        1.034742    0.018588    0.000000
      2          7           0        0.401229   -1.222732    0.000000
      3          7           0       -1.021706   -1.026796    0.000000
      4          7           0       -1.182085    0.343713    0.000000
      5          7           0        0.113571    1.027683    0.000000
      6          1           0        2.125822    0.131610    0.000000
      7          1           0        0.820883   -2.182448    0.000000
 ---------------------------------------------------------------------
                    Distance matrix (angstroms):
                    1          2          3          4          5
     1  C    0.000000
     2  N    1.393633   0.000000
     3  N    2.306904   1.436363   0.000000
     4  N    2.240542   2.227248   1.379860   0.000000
     5  N    1.366319   2.268725   2.347283   1.465108   0.000000
     6  H    1.096918   2.192821   3.353929   3.314700   2.202748
     7  H    2.211402   1.047456   2.175010   3.223875   3.287132
                    6          7
     6  H    0.000000
     7  H    2.656639   0.000000
 Stoichiometry    CH2N4
 Framework group  CS[SG(CH2N4)]
 Deg. of freedom    11
 Full point group                 CS      NOp   2
 Largest Abelian subgroup         CS      NOp   2
 Largest concise Abelian subgroup C1      NOp   1
                         Standard orientation:                         
 ---------------------------------------------------------------------
 Center     Atomic      Atomic             Coordinates (Angstroms)
 Number     Number       Type             X           Y           Z
 ---------------------------------------------------------------------
      1          6           0        1.105688    0.257187    0.000000
      2          7           0        0.000000    1.105520    0.000000
      3          7           0       -1.200446    0.316808    0.000000
      4          7           0       -0.755973   -0.989506    0.000000
      5          7           0        0.707887   -1.049940    0.000000
      6          1           0        2.139360    0.624272    0.000000
      7          1           0       -0.033761    2.152432    0.000000
 ---------------------------------------------------------------------
 Rotational constants (GHZ):      9.5190901      9.2316684      4.6865882
 Standard basis: STO-3G (5D, 7F)
 There are    22 symmetry adapted cartesian basis functions of A'  symmetry.
 There are     5 symmetry adapted cartesian basis functions of A"  symmetry.
 There are    22 symmetry adapted basis functions of A'  symmetry.
 There are     5 symmetry adapted basis functions of A"  symmetry.
    27 basis functions,    81 primitive gaussians,    27 cartesian basis functions
    18 alpha electrons       18 beta electrons
       nuclear repulsion energy       158.0661299042 Hartrees.
 NAtoms=    7 NActive=    7 NUniq=    7 SFac= 1.00D+00 NAtFMM=   60 NAOKFM=F Big=F
 Integral buffers will be    131072 words long.
 Regular integral format.
 Two-electron integral symmetry is turned on.
 One-electron integrals computed using PRISM.
 NBasis=    27 RedAO= T EigKep=  3.36D-01  NBF=    22     5
 NBsUse=    27 1.00D-06 EigRej= -1.00D+00 NBFU=    22     5
 Initial guess from the checkpoint file:  "/tmp/rdj3/g09-18029/Gau-8802.chk"
 B after Tr=     0.000000    0.000000    0.000000
         Rot=    0.999999    0.000000    0.000000    0.001187 Ang=   0.14 deg.
 Initial guess orbital symmetries:
       Occupied  (A') (A') (A') (A') (A') (A') (A') (A') (A') (A')
                 (A') (A') (A") (A') (A') (A") (A') (A")
       Virtual   (A') (A') (A') (A') (A') (A') (A') (A") (A")
 Keep R1 ints in memory in symmetry-blocked form, NReq=953772.
 Requested convergence on RMS density matrix=1.00D-08 within 128 cycles.
 Requested convergence on MAX density matrix=1.00D-06.
 Requested convergence on             energy=1.00D-06.
 No special actions if energy rises.
 SCF Done:  E(RB2PLYP) =  -254.416809766     A.U. after   11 cycles
            NFock= 11  Conv=0.62D-08     -V/T= 2.0165
 DoSCS=T DFT=T ScalE2(SS,OS)=  0.270000  0.270000
 ExpMin= 1.69D-01 ExpMax= 9.91D+01 ExpMxC= 9.91D+01 IAcc=3 IRadAn=         5 AccDes= 0.00D+00
 HarFok:  IExCor=  205 AccDes= 0.00D+00 IRadAn=         5 IDoV=-2 UseB2=F ITyADJ=14
 ICtDFT= 12500011 ScaDFX=  1.000000  1.000000  1.000000  1.000000
 Range of M.O.s used for correlation:     6    27
 NBasis=    27 NAE=    18 NBE=    18 NFC=     5 NFV=     0
 NROrb=     22 NOA=    13 NOB=    13 NVA=     9 NVB=     9
 DoSCS=T DFT=T ScalE2(SS,OS)=  0.270000  0.270000
 Fully direct method using O(ONN) memory.
 JobTyp=1 Pass  1:  I=   6 to  18 NPSUse=  8 ParTrn=T ParDer=T DoDerP=T.
 Spin components of T(2) and E(2):
     alpha-alpha T2 =       0.3851527839D-01 E2=     -0.1476070749D-01
     alpha-beta  T2 =       0.2462798304D+00 E2=     -0.9412840190D-01
     beta-beta   T2 =       0.3851527839D-01 E2=     -0.1476070749D-01
 E2(B2PLYP) =    -0.1236498169D+00 E(B2PLYP) =    -0.25454045958336D+03
          IDoAtm=1111111
          Differentiating once with respect to electric field.
                with respect to dipole field.
          Differentiating once with respect to nuclear coordinates.
 Keep R1 ints in memory in symmetry-blocked form, NReq=933384.
          There are     1 degrees of freedom in the 1st order CPHF.  IDoFFX=0 NUNeed=     1.
 LinEq1:  Iter=  0 NonCon=     1 RMS=7.63D-03 Max=3.44D-02 NDo=     1
 AX will form     1 AO Fock derivatives at one time.
 LinEq1:  Iter=  1 NonCon=     1 RMS=2.39D-03 Max=9.17D-03 NDo=     1
 LinEq1:  Iter=  2 NonCon=     1 RMS=9.88D-04 Max=9.06D-03 NDo=     1
 LinEq1:  Iter=  3 NonCon=     1 RMS=5.88D-04 Max=3.64D-03 NDo=     1
 LinEq1:  Iter=  4 NonCon=     1 RMS=2.16D-04 Max=1.12D-03 NDo=     1
 LinEq1:  Iter=  5 NonCon=     1 RMS=1.49D-04 Max=9.65D-04 NDo=     1
 LinEq1:  Iter=  6 NonCon=     1 RMS=2.74D-05 Max=1.49D-04 NDo=     1
 LinEq1:  Iter=  7 NonCon=     1 RMS=1.47D-05 Max=1.10D-04 NDo=     1
 LinEq1:  Iter=  8 NonCon=     1 RMS=5.49D-06 Max=3.18D-05 NDo=     1
 LinEq1:  Iter=  9 NonCon=     1 RMS=1.11D-06 Max=5.23D-06 NDo=     1
 LinEq1:  Iter= 10 NonCon=     1 RMS=1.28D-07 Max=4.96D-07 NDo=     1
 LinEq1:  Iter= 11 NonCon=     1 RMS=1.34D-08 Max=6.33D-08 NDo=     1
 LinEq1:  Iter= 12 NonCon=     1 RMS=1.67D-09 Max=9.50D-09 NDo=     1
 LinEq1:  Iter= 13 NonCon=     1 RMS=1.37D-10 Max=7.06D-10 NDo=     1
 LinEq1:  Iter= 14 NonCon=     0 RMS=9.52D-12 Max=4.76D-11 NDo=     1
 Linear equations converged to 1.000D-10 1.000D-09 after    14 iterations.
 End of Minotr F.D. properties file   721 does not exist.
 End of Minotr F.D. properties file   722 does not exist.
 End of Minotr F.D. properties file   788 does not exist.
 Calling FoFJK, ICntrl=  10002127 FMM=F ISym2X=1 I1Cent= 0 IOpClX= 0 NMat=1 NMatS=1 NMatT=0.
 ***** Axes restored to original set *****
 -------------------------------------------------------------------
 Center     Atomic                   Forces (Hartrees/Bohr)
 Number     Number              X              Y              Z
 -------------------------------------------------------------------
      1        6          -0.001178397   -0.000259604    0.000000000
      2        7          -0.000315902    0.001045163    0.000000000
      3        7           0.000524687   -0.000663282    0.000000000
      4        7          -0.000100955    0.000428549    0.000000000
      5        7           0.000775575   -0.000807830    0.000000000
      6        1           0.000274983    0.000125767    0.000000000
      7        1           0.000020010    0.000131237    0.000000000
 -------------------------------------------------------------------
 Cartesian Forces:  Max     0.001178397 RMS     0.000484051

 GradGradGradGradGradGradGradGradGradGradGradGradGradGradGradGradGradGrad
 Berny optimization.
 Using GEDIIS/GDIIS optimizer.
 FormGI is forming the generalized inverse of G from B-inverse, IUseBI=4.
 Internal  Forces:  Max     0.000984288 RMS     0.000312448
 Search for a local minimum.
 Step number   5 out of a maximum of   36
 All quantities printed in internal units (Hartrees-Bohrs-Radians)
 Mixed Optimization -- En-DIIS/RFO-DIIS
 Update second derivatives using D2CorX and points    1    2    3    4    5
 DE= -2.15D-04 DEPred=-2.08D-04 R= 1.03D+00
 TightC=F SS=  1.41D+00  RLast= 2.77D-02 DXNew= 8.5710D-01 8.3245D-02
 Trust test= 1.03D+00 RLast= 2.77D-02 DXMaxT set to 5.10D-01
 ITU=  1  0  1  1  0
 Use linear search instead of GDIIS.
     Eigenvalues ---    0.02501   0.02634   0.02681   0.02837   0.15867
     Eigenvalues ---    0.15990   0.22564   0.37622   0.39260   0.47239
     Eigenvalues ---    0.48697   0.54030   0.58078   0.71105   0.73234
 RFO step:  Lambda=-4.69515204D-06 EMin= 2.50116817D-02
 Quartic linear search produced a step of  0.02587.
 Iteration  1 RMS(Cart)=  0.00063509 RMS(Int)=  0.00000026
 Iteration  2 RMS(Cart)=  0.00000021 RMS(Int)=  0.00000014
 ClnCor:  largest displacement from symmetrization is 1.43D-13 for atom     1.
 Variable       Old X    -DE/DX   Delta X   Delta X   Delta X     New X
                                 (Linear)    (Quad)   (Total)
    R1        2.63359  -0.00082  -0.00001  -0.00166  -0.00167   2.63191
    R2        2.58197  -0.00098  -0.00013  -0.00141  -0.00154   2.58043
    R3        2.07288   0.00029  -0.00003   0.00076   0.00073   2.07360
    R4        2.71433  -0.00054  -0.00012  -0.00079  -0.00090   2.71343
    R5        1.97941  -0.00011  -0.00007  -0.00024  -0.00031   1.97910
    R6        2.60756   0.00031  -0.00006   0.00069   0.00063   2.60819
    R7        2.76865   0.00001  -0.00006   0.00026   0.00020   2.76885
    A1        1.92982   0.00011   0.00005  -0.00022  -0.00018   1.92964
    A2        2.14591   0.00004   0.00005   0.00069   0.00074   2.14665
    A3        2.20746  -0.00015  -0.00010  -0.00047  -0.00056   2.20689
    A4        1.90585   0.00035   0.00020   0.00087   0.00107   1.90692
    A5        2.25748  -0.00024  -0.00005  -0.00097  -0.00102   2.25646
    A6        2.11985  -0.00011  -0.00015   0.00010  -0.00005   2.11980
    A7        1.82413  -0.00030  -0.00038  -0.00032  -0.00070   1.82342
    A8        1.94002  -0.00028   0.00041  -0.00100  -0.00059   1.93943
    A9        1.82496   0.00011  -0.00027   0.00068   0.00040   1.82536
    D1        0.00000   0.00000   0.00000   0.00000   0.00000   0.00000
    D2        3.14159   0.00000   0.00000   0.00000   0.00000   3.14159
    D3        3.14159   0.00000   0.00000   0.00000   0.00000   3.14159
    D4        0.00000   0.00000   0.00000   0.00000   0.00000   0.00000
    D5        0.00000   0.00000   0.00000   0.00000   0.00000   0.00000
    D6        3.14159   0.00000   0.00000   0.00000   0.00000   3.14159
    D7        0.00000   0.00000   0.00000   0.00000   0.00000   0.00000
    D8        3.14159   0.00000   0.00000   0.00000   0.00000   3.14159
    D9        0.00000   0.00000   0.00000   0.00000   0.00000   0.00000
   D10        0.00000   0.00000   0.00000   0.00000   0.00000   0.00000
         Item               Value     Threshold  Converged?
 Maximum Force            0.000984     0.000450     NO 
 RMS     Force            0.000312     0.000300     NO 
 Maximum Displacement     0.001936     0.001800     NO 
 RMS     Displacement     0.000635     0.001200     YES
 Predicted change in Energy=-2.486292D-06
 GradGradGradGradGradGradGradGradGradGradGradGradGradGradGradGradGradGrad

                          Input orientation:                          
 ---------------------------------------------------------------------
 Center     Atomic      Atomic             Coordinates (Angstroms)
 Number     Number       Type             X           Y           Z
 ---------------------------------------------------------------------
      1          6           0        1.034472    0.018158    0.000000
      2          7           0        0.400835   -1.222105    0.000000
      3          7           0       -1.021754   -1.027151    0.000000
      4          7           0       -1.182092    0.343699    0.000000
      5          7           0        0.114102    1.026877    0.000000
      6          1           0        2.125899    0.131565    0.000000
      7          1           0        0.820994   -2.181424    0.000000
 ---------------------------------------------------------------------
                    Distance matrix (angstroms):
                    1          2          3          4          5
     1  C    0.000000
     2  N    1.392748   0.000000
     3  N    2.306672   1.435885   0.000000
     4  N    2.240342   2.226522   1.380195   0.000000
     5  N    1.365502   2.267187   2.347168   1.465213   0.000000
     6  H    1.097303   2.192777   3.354153   3.314786   2.202025
     7  H    2.209917   1.047295   2.174412   3.223135   3.285253
                    6          7
     6  H    0.000000
     7  H    2.655691   0.000000
 Stoichiometry    CH2N4
 Framework group  CS[SG(CH2N4)]
 Deg. of freedom    11
 Full point group                 CS      NOp   2
 Largest Abelian subgroup         CS      NOp   2
 Largest concise Abelian subgroup C1      NOp   1
                         Standard orientation:                         
 ---------------------------------------------------------------------
 Center     Atomic      Atomic             Coordinates (Angstroms)
 Number     Number       Type             X           Y           Z
 ---------------------------------------------------------------------
      1          6           0        1.105346    0.257334    0.000000
      2          7           0        0.000000    1.104659    0.000000
      3          7           0       -1.200555    0.316983    0.000000
      4          7           0       -0.755899   -0.989623    0.000000
      5          7           0        0.708106   -1.049111    0.000000
      6          1           0        2.139497    0.624219    0.000000
      7          1           0       -0.033134    2.151429    0.000000
 ---------------------------------------------------------------------
 Rotational constants (GHZ):      9.5258119      9.2340988      4.6888437
 Standard basis: STO-3G (5D, 7F)
 There are    22 symmetry adapted cartesian basis functions of A'  symmetry.
 There are     5 symmetry adapted cartesian basis functions of A"  symmetry.
 There are    22 symmetry adapted basis functions of A'  symmetry.
 There are     5 symmetry adapted basis functions of A"  symmetry.
    27 basis functions,    81 primitive gaussians,    27 cartesian basis functions
    18 alpha electrons       18 beta electrons
       nuclear repulsion energy       158.1025560162 Hartrees.
 NAtoms=    7 NActive=    7 NUniq=    7 SFac= 1.00D+00 NAtFMM=   60 NAOKFM=F Big=F
 Integral buffers will be    131072 words long.
 Regular integral format.
 Two-electron integral symmetry is turned on.
 One-electron integrals computed using PRISM.
 NBasis=    27 RedAO= T EigKep=  3.36D-01  NBF=    22     5
 NBsUse=    27 1.00D-06 EigRej= -1.00D+00 NBFU=    22     5
 Initial guess from the checkpoint file:  "/tmp/rdj3/g09-18029/Gau-8802.chk"
 B after Tr=     0.000000    0.000000    0.000000
         Rot=    1.000000    0.000000    0.000000   -0.000048 Ang=  -0.01 deg.
 Initial guess orbital symmetries:
       Occupied  (A') (A') (A') (A') (A') (A') (A') (A') (A') (A')
                 (A') (A') (A") (A') (A') (A") (A') (A")
       Virtual   (A') (A') (A') (A') (A') (A') (A') (A") (A")
 Keep R1 ints in memory in symmetry-blocked form, NReq=953772.
 Requested convergence on RMS density matrix=1.00D-08 within 128 cycles.
 Requested convergence on MAX density matrix=1.00D-06.
 Requested convergence on             energy=1.00D-06.
 No special actions if energy rises.
 SCF Done:  E(RB2PLYP) =  -254.416871303     A.U. after    9 cycles
            NFock=  9  Conv=0.83D-08     -V/T= 2.0164
 DoSCS=T DFT=T ScalE2(SS,OS)=  0.270000  0.270000
 ExpMin= 1.69D-01 ExpMax= 9.91D+01 ExpMxC= 9.91D+01 IAcc=3 IRadAn=         5 AccDes= 0.00D+00
 HarFok:  IExCor=  205 AccDes= 0.00D+00 IRadAn=         5 IDoV=-2 UseB2=F ITyADJ=14
 ICtDFT= 12500011 ScaDFX=  1.000000  1.000000  1.000000  1.000000
 Range of M.O.s used for correlation:     6    27
 NBasis=    27 NAE=    18 NBE=    18 NFC=     5 NFV=     0
 NROrb=     22 NOA=    13 NOB=    13 NVA=     9 NVB=     9
 DoSCS=T DFT=T ScalE2(SS,OS)=  0.270000  0.270000
 Fully direct method using O(ONN) memory.
 JobTyp=1 Pass  1:  I=   6 to  18 NPSUse=  8 ParTrn=T ParDer=T DoDerP=T.
 Spin components of T(2) and E(2):
     alpha-alpha T2 =       0.3848228907D-01 E2=     -0.1475266544D-01
     alpha-beta  T2 =       0.2460929559D+00 E2=     -0.9408564989D-01
     beta-beta   T2 =       0.3848228907D-01 E2=     -0.1475266544D-01
 E2(B2PLYP) =    -0.1235909808D+00 E(B2PLYP) =    -0.25454046228328D+03
          IDoAtm=1111111
          Differentiating once with respect to electric field.
                with respect to dipole field.
          Differentiating once with respect to nuclear coordinates.
 Keep R1 ints in memory in symmetry-blocked form, NReq=933384.
          There are     1 degrees of freedom in the 1st order CPHF.  IDoFFX=0 NUNeed=     1.
 LinEq1:  Iter=  0 NonCon=     1 RMS=7.61D-03 Max=3.43D-02 NDo=     1
 AX will form     1 AO Fock derivatives at one time.
 LinEq1:  Iter=  1 NonCon=     1 RMS=2.38D-03 Max=9.11D-03 NDo=     1
[...]
 Symmetry A'   KE= 2.406100986534D+02
 Symmetry A"   KE= 9.926238663354D+00
  Exact polarizability:  24.769   1.326  25.858   0.000   0.000   6.254
 Approx polarizability:  41.559  -0.709  48.915   0.000   0.000   5.828
 Calling FoFJK, ICntrl=  10100127 FMM=F ISym2X=1 I1Cent= 0 IOpClX= 0 NMat=1 NMatS=1 NMatT=0.
 Full mass-weighted force constant matrix:
 Low frequencies ---   -8.1666    0.0002    0.0004    0.0005    9.9684   11.1971
 Low frequencies ---  444.2303  639.2435  649.8077
 Diagonal vibrational polarizability:
        1.0213002       0.8362062      13.1475945
 Harmonic frequencies (cm**-1), IR intensities (KM/Mole), Raman scattering
 activities (A**4/AMU), depolarization ratios for plane and unpolarized
 incident light, reduced masses (AMU), force constants (mDyne/A),
 and normal coordinates:
                      1                      2                      3
                     A"                     A"                     A"
 Frequencies --    444.2303               639.2435               649.8076
 Red. masses --      1.8576                 2.1473                 7.8113
 Frc consts  --      0.2160                 0.5170                 1.9433
 IR Inten    --     83.2723                13.6637                 7.8750
  Atom  AN      X      Y      Z        X      Y      Z        X      Y      Z
     1   6     0.00   0.00  -0.09     0.00   0.00   0.20     0.00   0.00  -0.17
     2   7     0.00   0.00   0.22     0.00   0.00  -0.11     0.00   0.00  -0.06
     3   7     0.00   0.00  -0.10     0.00   0.00   0.12     0.00   0.00   0.37
     4   7     0.00   0.00   0.03     0.00   0.00   0.01     0.00   0.00  -0.48
     5   7     0.00   0.00   0.01     0.00   0.00  -0.16     0.00   0.00   0.36
     6   1     0.00   0.00  -0.16     0.00   0.00   0.42     0.00   0.00  -0.06
     7   1     0.00   0.00  -0.95     0.00   0.00  -0.85     0.00   0.00  -0.68
                      4                      5                      6
                     A"                     A'                     A'
 Frequencies --    839.3767               896.0460               955.1477
 Red. masses --      1.2454                 6.8890                 5.5261
 Frc consts  --      0.5170                 3.2589                 2.9703
 IR Inten    --     10.2122                 3.1502                 0.1202
  Atom  AN      X      Y      Z        X      Y      Z        X      Y      Z
     1   6     0.00   0.00  -0.14     0.01   0.12   0.00    -0.36  -0.08   0.00
     2   7     0.00   0.00   0.01     0.11   0.09   0.00     0.01   0.36   0.00
     3   7     0.00   0.00   0.00     0.22  -0.16   0.00     0.04  -0.04   0.00
     4   7     0.00   0.00   0.03     0.14  -0.22   0.00     0.20  -0.03   0.00
     5   7     0.00   0.00   0.01    -0.48   0.22   0.00     0.04  -0.23   0.00
     6   1     0.00   0.00   0.99     0.26  -0.61   0.00    -0.29  -0.33   0.00
     7   1     0.00   0.00   0.05    -0.31   0.08   0.00     0.53   0.40   0.00
                      7                      8                      9
                     A'                     A'                     A'
 Frequencies --   1007.0762              1026.6182              1130.1326
 Red. masses --      8.0613                 2.8229                 1.9520
 Frc consts  --      4.8170                 1.7529                 1.4689
 IR Inten    --     15.3811                13.6285                 6.7987
  Atom  AN      X      Y      Z        X      Y      Z        X      Y      Z
     1   6    -0.06  -0.04   0.00    -0.07  -0.05   0.00     0.06  -0.09   0.00
     2   7    -0.10  -0.31   0.00    -0.15  -0.04   0.00    -0.06   0.03   0.00
     3   7    -0.16   0.21   0.00     0.29   0.11   0.00    -0.06  -0.11   0.00
     4   7     0.53   0.16   0.00     0.00   0.04   0.00     0.06   0.20   0.00
     5   7    -0.24  -0.03   0.00     0.00  -0.08   0.00     0.02   0.01   0.00
     6   1    -0.20   0.31   0.00    -0.19   0.25   0.00     0.30  -0.77   0.00
     7   1     0.48  -0.31   0.00    -0.87  -0.07   0.00    -0.49   0.03   0.00
                     10                     11                     12
                     A'                     A'                     A'
 Frequencies --   1175.2954              1241.4888              1463.9384
 Red. masses --      4.1344                 2.9642                 3.5641
 Frc consts  --      3.3648                 2.6918                 4.5003
 IR Inten    --      1.2247                 1.7613                13.3739
  Atom  AN      X      Y      Z        X      Y      Z        X      Y      Z
     1   6     0.14  -0.04   0.00     0.19   0.10   0.00    -0.23   0.24   0.00
     2   7    -0.09   0.09   0.00     0.06   0.12   0.00     0.26  -0.14   0.00
     3   7    -0.14   0.30   0.00    -0.10  -0.07   0.00    -0.07   0.05   0.00
     4   7     0.07  -0.29   0.00     0.03   0.04   0.00     0.00   0.01   0.00
     5   7     0.05  -0.04   0.00    -0.12  -0.24   0.00     0.06  -0.08   0.00
     6   1     0.37  -0.62   0.00     0.01   0.73   0.00    -0.02  -0.44   0.00
     7   1    -0.48   0.10   0.00    -0.54   0.13   0.00    -0.74  -0.21   0.00
                     13                     14                     15
                     A'                     A'                     A'
 Frequencies --   1494.4234              3537.2052              3773.0019
 Red. masses --      2.9202                 1.1004                 1.0865
 Frc consts  --      3.8424                 8.1118                 9.1130
 IR Inten    --     33.2479                31.5892                83.5144
  Atom  AN      X      Y      Z        X      Y      Z        X      Y      Z
     1   6     0.06   0.29   0.00     0.09   0.03   0.00     0.01   0.00   0.00
     2   7    -0.16  -0.06   0.00     0.00   0.00   0.00     0.00   0.08   0.00
     3   7     0.10   0.00   0.00     0.00   0.00   0.00     0.00   0.00   0.00
     4   7    -0.05   0.03   0.00     0.00   0.00   0.00     0.00   0.00   0.00
     5   7    -0.02  -0.18   0.00     0.00   0.00   0.00     0.00   0.00   0.00
     6   1     0.38  -0.53   0.00    -0.94  -0.33   0.00    -0.04  -0.01   0.00
     7   1     0.64  -0.04   0.00     0.00   0.05   0.00     0.03  -1.00   0.00

 -------------------
 - Thermochemistry -
 -------------------
 Temperature   298.150 Kelvin.  Pressure   1.00000 Atm.
 Atom     1 has atomic number  6 and mass  12.00000
 Atom     2 has atomic number  7 and mass  14.00307
 Atom     3 has atomic number  7 and mass  14.00307
 Atom     4 has atomic number  7 and mass  14.00307
 Atom     5 has atomic number  7 and mass  14.00307
 Atom     6 has atomic number  1 and mass   1.00783
 Atom     7 has atomic number  1 and mass   1.00783
 Molecular mass:    70.02795 amu.
 Principal axes and moments of inertia in atomic units:
                           1         2         3
     Eigenvalues --   189.45799 195.44313 384.90113
           X            0.90250   0.43068   0.00000
           Y           -0.43068   0.90250   0.00000
           Z            0.00000   0.00000   1.00000
 This molecule is an asymmetric top.
 Rotational symmetry number  1.
 Rotational temperatures (Kelvin)      0.45717     0.44317     0.22503
 Rotational constants (GHZ):           9.52581     9.23410     4.68884
 Zero-point vibrational energy     121259.7 (Joules/Mol)
                                   28.98175 (Kcal/Mol)
 Warning -- explicit consideration of   1 degrees of freedom as
           vibrations may cause significant error
 Vibrational temperatures:    639.15   919.73   934.93  1207.67  1289.21
          (Kelvin)           1374.24  1448.96  1477.07  1626.01  1690.99
                             1786.22  2106.28  2150.14  5089.24  5428.50
 
 Zero-point correction=                           0.046185 (Hartree/Particle)
 Thermal correction to Energy=                    0.049862
 Thermal correction to Enthalpy=                  0.050806
 Thermal correction to Gibbs Free Energy=         0.019844
 Sum of electronic and zero-point Energies=           -254.494277
 Sum of electronic and thermal Energies=              -254.490600
 Sum of electronic and thermal Enthalpies=            -254.489656
 Sum of electronic and thermal Free Energies=         -254.520619
 
                     E (Thermal)             CV                S
                      KCal/Mol        Cal/Mol-Kelvin    Cal/Mol-Kelvin
 Total                   31.289             12.272             65.166
 Electronic               0.000              0.000              0.000
 Translational            0.889              2.981             38.656
 Rotational               0.889              2.981             24.170
 Vibrational             29.511              6.310              2.340
 Vibration     1          0.804              1.374              0.813
                       Q            Log10(Q)             Ln(Q)
 Total Bot       0.745665D-09         -9.127456        -21.016744
 Total V=0       0.130705D+13         12.116292         27.898793
 Vib (Bot)       0.757520D-21        -21.120606        -48.631992
 Vib (Bot)    1  0.387834D+00         -0.411354         -0.947178
 Vib (V=0)       0.132783D+01          0.123142          0.283544
 Vib (V=0)    1  0.113278D+01          0.054147          0.124678
 Electronic      0.100000D+01          0.000000          0.000000
 Translational   0.230336D+08          7.362362         16.952466
 Rotational      0.427354D+05          4.630788         10.662783
 ***** Axes restored to original set *****
 -------------------------------------------------------------------
 Center     Atomic                   Forces (Hartrees/Bohr)
 Number     Number              X              Y              Z
 -------------------------------------------------------------------
      1        6          -0.000193343    0.000032473    0.000000000
      2        7          -0.000208293   -0.000036889    0.000000000
      3        7           0.000358482   -0.000297677    0.000000000
      4        7          -0.000021588    0.000342141    0.000000000
      5        7           0.000091073   -0.000032221    0.000000000
      6        1          -0.000050419    0.000019910    0.000000000
      7        1           0.000024088   -0.000027737    0.000000000
 -------------------------------------------------------------------
 Cartesian Forces:  Max     0.000358482 RMS     0.000143336
 FormGI is forming the generalized inverse of G from B-inverse, IUseBI=4.

 GradGradGradGradGradGradGradGradGradGradGradGradGradGradGradGradGradGrad
 Berny optimization.
 Internal  Forces:  Max     0.000314829 RMS     0.000096161
 Search for a local minimum.
 Step number   1 out of a maximum of    2
 All quantities printed in internal units (Hartrees-Bohrs-Radians)
 Second derivative matrix not updated -- analytic derivatives used.
 ITU=  0
     Eigenvalues ---    0.00580   0.02532   0.06129   0.07022   0.10289
     Eigenvalues ---    0.10946   0.18058   0.25035   0.33628   0.37142
     Eigenvalues ---    0.43715   0.44862   0.50470   0.54714   0.59187
 Angle between quadratic step and forces=  16.88 degrees.
 Linear search not attempted -- first point.
 Iteration  1 RMS(Cart)=  0.00022161 RMS(Int)=  0.00000002
 Iteration  2 RMS(Cart)=  0.00000002 RMS(Int)=  0.00000001
 ClnCor:  largest displacement from symmetrization is 7.31D-14 for atom     5.
 Variable       Old X    -DE/DX   Delta X   Delta X   Delta X     New X
                                 (Linear)    (Quad)   (Total)
    R1        2.63191   0.00001   0.00000   0.00006   0.00006   2.63197
    R2        2.58043  -0.00010   0.00000  -0.00030  -0.00030   2.58013
    R3        2.07360  -0.00005   0.00000  -0.00010  -0.00010   2.07350
    R4        2.71343  -0.00027   0.00000  -0.00087  -0.00087   2.71256
    R5        1.97910   0.00003   0.00000   0.00006   0.00006   1.97916
    R6        2.60819   0.00031   0.00000   0.00096   0.00096   2.60915
    R7        2.76885  -0.00007   0.00000  -0.00022  -0.00022   2.76863
    A1        1.92964   0.00015   0.00000   0.00021   0.00021   1.92985
    A2        2.14665  -0.00005   0.00000   0.00003   0.00003   2.14669
    A3        2.20689  -0.00010   0.00000  -0.00025  -0.00025   2.20665
    A4        1.90692  -0.00006   0.00000  -0.00001  -0.00001   1.90691
    A5        2.25646   0.00002   0.00000  -0.00008  -0.00008   2.25638
    A6        2.11980   0.00004   0.00000   0.00009   0.00009   2.11989
    A7        1.82342   0.00004   0.00000   0.00010   0.00010   1.82352
    A8        1.93943  -0.00007   0.00000  -0.00031  -0.00031   1.93912
    A9        1.82536  -0.00006   0.00000   0.00001   0.00001   1.82538
    D1        0.00000   0.00000   0.00000   0.00000   0.00000   0.00000
    D2        3.14159   0.00000   0.00000   0.00000   0.00000   3.14159
    D3        3.14159   0.00000   0.00000   0.00000   0.00000   3.14159
    D4        0.00000   0.00000   0.00000   0.00000   0.00000   0.00000
    D5        0.00000   0.00000   0.00000   0.00000   0.00000   0.00000
    D6        3.14159   0.00000   0.00000   0.00000   0.00000   3.14159
    D7        0.00000   0.00000   0.00000   0.00000   0.00000   0.00000
    D8        3.14159   0.00000   0.00000   0.00000   0.00000   3.14159
    D9        0.00000   0.00000   0.00000   0.00000   0.00000   0.00000
   D10        0.00000   0.00000   0.00000   0.00000   0.00000   0.00000
         Item               Value     Threshold  Converged?
 Maximum Force            0.000315     0.000450     YES
 RMS     Force            0.000096     0.000300     YES
 Maximum Displacement     0.000614     0.001800     YES
 RMS     Displacement     0.000222     0.001200     YES
 Predicted change in Energy=-3.365634D-07
 Optimization completed.
    -- Stationary point found.
                           ----------------------------
                           !   Optimized Parameters   !
                           ! (Angstroms and Degrees)  !
 --------------------------                            --------------------------
 ! Name  Definition              Value          Derivative Info.                !
 --------------------------------------------------------------------------------
 ! R1    R(1,2)                  1.3927         -DE/DX =    0.0                 !
 ! R2    R(1,5)                  1.3655         -DE/DX =   -0.0001              !
 ! R3    R(1,6)                  1.0973         -DE/DX =    0.0                 !
 ! R4    R(2,3)                  1.4359         -DE/DX =   -0.0003              !
 ! R5    R(2,7)                  1.0473         -DE/DX =    0.0                 !
 ! R6    R(3,4)                  1.3802         -DE/DX =    0.0003              !
 ! R7    R(4,5)                  1.4652         -DE/DX =   -0.0001              !
 ! A1    A(2,1,5)              110.5602         -DE/DX =    0.0001              !
 ! A2    A(2,1,6)              122.9942         -DE/DX =   -0.0001              !
 ! A3    A(5,1,6)              126.4456         -DE/DX =   -0.0001              !
 ! A4    A(1,2,3)              109.2587         -DE/DX =   -0.0001              !
 ! A5    A(1,2,7)              129.2857         -DE/DX =    0.0                 !
 ! A6    A(3,2,7)              121.4556         -DE/DX =    0.0                 !
 ! A7    A(2,3,4)              104.4745         -DE/DX =    0.0                 !
 ! A8    A(3,4,5)              111.121          -DE/DX =   -0.0001              !
 ! A9    A(1,5,4)              104.5857         -DE/DX =   -0.0001              !
 ! D1    D(5,1,2,3)              0.0            -DE/DX =    0.0                 !
 ! D2    D(5,1,2,7)            180.0            -DE/DX =    0.0                 !
 ! D3    D(6,1,2,3)            180.0            -DE/DX =    0.0                 !
 ! D4    D(6,1,2,7)              0.0            -DE/DX =    0.0                 !
 ! D5    D(2,1,5,4)              0.0            -DE/DX =    0.0                 !
 ! D6    D(6,1,5,4)            180.0            -DE/DX =    0.0                 !
 ! D7    D(1,2,3,4)              0.0            -DE/DX =    0.0                 !
 ! D8    D(7,2,3,4)            180.0            -DE/DX =    0.0                 !
 ! D9    D(2,3,4,5)              0.0            -DE/DX =    0.0                 !
 ! D10   D(3,4,5,1)              0.0            -DE/DX =    0.0                 !
 --------------------------------------------------------------------------------
 GradGradGradGradGradGradGradGradGradGradGradGradGradGradGradGradGradGrad

 1\1\GINC-N963\Freq\RB2PLYP-FC\STO-3G\C1H2N4\RDJ3\16-Dec-2013\0\\#N Geo
 m=AllCheck Guess=TCheck SCRF=Check GenChk RB2PLYP(FC)/STO-3G Freq\\1H-
 tetrazole CH2N4 casno=288948 state=1 config=1 method=56 basis=20\\0,1\
 C,1.0344722598,0.0181576143,0.\N,0.4008349366,-1.2221051726,0.\N,-1.02
 1753794,-1.0271508425,0.\N,-1.1820915523,0.3436991903,0.\N,0.114101583
 8,1.026876624,0.\H,2.1258993685,0.131565232,0.\H,0.8209939854,-2.18142
 39997,0.\\Version=EM64L-G09RevD.01\State=1-A'\HF=-254.4168713\MP2=-254
 .5404623\RMSD=2.071e-09\RMSF=1.433e-04\ZeroPoint=0.0461854\Thermal=0.0
 498618\Dipole=1.4751361,-1.1978078,0.\DipoleDeriv=0.0245636,0.1620529,
 0.,-0.1298728,0.2483002,0.,0.,0.,0.106871,-0.3825917,0.1047686,0.,0.18
 09523,-0.3404668,0.,0.,0.,-0.2065244,0.240717,-0.2047628,0.,-0.0376547
 ,-0.0795867,0.,0.,0.,-0.0516908,0.1878008,-0.1150323,0.,-0.0119404,-0.
 1923726,0.,0.,0.,-0.1502075,-0.4561487,0.0413488,0.,-0.0186391,-0.0079
 348,0.,0.,0.,-0.1611879,0.1943578,0.010304,0.,0.0431143,0.1023883,0.,0
 .,0.,0.1233443,0.1913011,0.0013207,0.,-0.0259595,0.2696725,0.,0.,0.,0.
 3393952\Polar=25.9997777,-1.2586108,24.6276464,0.,0.,6.2540385\Quadrup
 ole=0.3308494,-0.4543856,0.1235363,-1.6104133,0.,0.\PG=CS [SG(C1H2N4)]
 \NImag=0\\0.98920750,0.02853075,0.62202574,0.,0.,0.11881684,-0.1737833
 7,-0.07132976,0.,0.61201803,-0.13071067,-0.30561470,0.,-0.11534255,1.0
 1426866,0.,0.,-0.04498229,0.,0.,0.05857470,-0.07483296,-0.08859675,0.,
 -0.25762314,-0.02707167,0.,0.44607944,0.00668487,-0.01485954,0.,0.0098
 2954,-0.09253688,0.,0.05347092,0.45817068,0.,0.,0.01443622,0.,0.,-0.04
 547816,0.,0.,0.08359393,-0.10560915,0.06579571,0.,-0.05484879,0.024184
 84,0.,-0.10613776,-0.01627935,0.,0.43250986,-0.02237637,0.02368969,0.,
 0.08512127,-0.08657993,0.,0.05996575,-0.27065153,0.,-0.07506508,0.4225
 0660,0.,0.,0.01289329,0.,0.,0.01639519,0.,0.,-0.07204469,0.,0.,0.09543
 884,-0.22206194,0.12130214,0.,0.01673524,0.08472751,0.,-0.02134011,-0.
 08501803,0.,-0.15339143,-0.04934486,0.,0.38647815,0.13121428,-0.265115
 01,0.,-0.02526492,-0.09368727,0.,0.00340906,-0.07746500,0.,0.00062410,
 -0.08882923,0.,-0.09284372,0.51585919,0.,0.,-0.06323182,0.,0.,0.018726
 25,0.,0.,0.02682508,0.,0.,-0.07014998,0.,0.,0.08764871,-0.42715677,-0.
 04179701,0.,-0.00284505,0.00724787,0.,0.00250468,0.00328609,0.,-0.0009
 9074,-0.00085207,0.,-0.00574725,-0.00770012,0.,0.43327795,-0.03450467,
 -0.05959822,0.,-0.03558580,0.00127219,0.,0.00080341,-0.00688530,0.,0.0
 0506673,-0.00368896,0.,0.02356453,0.01179245,0.,0.04035824,0.05684684,
 0.,0.,-0.02792027,0.,0.,-0.00267100,0.,0.,0.00489897,0.,0.,0.00994646,
 0.,0.,-0.00599526,0.,0.,0.02266629,0.01423670,-0.01390507,0.,-0.139652
 92,0.15696466,0.,0.01134985,0.02802596,0.,-0.01153198,0.00255136,0.,-0
 .00067266,-0.00943868,0.,0.00095720,0.00029756,0.,0.12531381,0.0211618
 0,-0.00052795,0.,0.15257222,-0.43712206,0.,-0.00198072,0.00422757,0.,-
 0.00432695,0.00355336,0.,-0.00238756,-0.00255513,0.,-0.00054300,0.0002
 6102,0.,-0.16449578,0.43216320,0.,0.,-0.01001197,0.,0.,-0.00056469,0.,
 0.,-0.01223135,0.,0.,0.00752090,0.,0.,0.00617703,0.,0.,-0.00092519,0.,
 0.,0.01003528\\0.00019334,-0.00003247,0.,0.00020829,0.00003689,0.,-0.0
 0035848,0.00029768,0.,0.00002159,-0.00034214,0.,-0.00009107,0.00003222
 ,0.,0.00005042,-0.00001991,0.,-0.00002409,0.00002774,0.\\\@


 NO MATTER HOW THIN YOU SLICE IT, IT'S STILL BALONEY

                                   -- ALFRED E. SMITH
 Job cpu time:       0 days  0 hours  0 minutes 45.9 seconds.
 File lengths (MBytes):  RWF=     15 Int=      0 D2E=      0 Chk=      1 Scr=      1
 Normal termination of Gaussian 09 at Mon Dec 16 15:47:34 2013.
