 Entering Gaussian System, Link 0=g09
 Initial command:
 /usr/local/gaussian/g09.d01.em64t.legacy.linda/g09/l1.exe "/tmp/rdj3/g09-23219/Gau-22912.inp" -scrdir="/tmp/rdj3/g09-23219/"
 Entering Link 1 = /usr/local/gaussian/g09.d01.em64t.legacy.linda/g09/l1.exe PID=     22913.
  
 Copyright (c) 1988,1990,1992,1993,1995,1998,2003,2009,2013,
            Gaussian, Inc.  All Rights Reserved.
  
 This is part of the Gaussian(R) 09 program.  It is based on
 the Gaussian(R) 03 system (copyright 2003, Gaussian, Inc.),
 the Gaussian(R) 98 system (copyright 1998, Gaussian, Inc.),
 the Gaussian(R) 94 system (copyright 1995, Gaussian, Inc.),
 the Gaussian 92(TM) system (copyright 1992, Gaussian, Inc.),
 the Gaussian 90(TM) system (copyright 1990, Gaussian, Inc.),
 the Gaussian 88(TM) system (copyright 1988, Gaussian, Inc.),
 the Gaussian 86(TM) system (copyright 1986, Carnegie Mellon
 University), and the Gaussian 82(TM) system (copyright 1983,
 Carnegie Mellon University). Gaussian is a federally registered
 trademark of Gaussian, Inc.
  
 This software contains proprietary and confidential information,
 including trade secrets, belonging to Gaussian, Inc.
  
 This software is provided under written license and may be
 used, copied, transmitted, or stored only in accord with that
 written license.
  
 The following legend is applicable only to US Government
 contracts under FAR:
  
                    RESTRICTED RIGHTS LEGEND
  
 Use, reproduction and disclosure by the US Government is
 subject to restrictions as set forth in subparagraphs (a)
 and (c) of the Commercial Computer Software - Restricted
 Rights clause in FAR 52.227-19.
  
 Gaussian, Inc.
 340 Quinnipiac St., Bldg. 40, Wallingford CT 06492
  
  
 ---------------------------------------------------------------
 Warning -- This program may not be used in any manner that
 competes with the business of Gaussian, Inc. or will provide
 assistance to any competitor of Gaussian, Inc.  The licensee
 of this program is prohibited from giving any competitor of
 Gaussian, Inc. access to this program.  By using this program,
 the user acknowledges that Gaussian, Inc. is engaged in the
 business of creating and licensing software in the field of
 computational chemistry and represents and warrants to the
 licensee that it is not a competitor of Gaussian, Inc. and that
 it will not use this program in any manner prohibited above.
 ---------------------------------------------------------------
  

 Cite this work as:
 Gaussian 09, Revision D.01,
 M. J. Frisch, G. W. Trucks, H. B. Schlegel, G. E. Scuseria, 
 M. A. Robb, J. R. Cheeseman, G. Scalmani, V. Barone, B. Mennucci, 
 G. A. Petersson, H. Nakatsuji, M. Caricato, X. Li, H. P. Hratchian, 
 A. F. Izmaylov, J. Bloino, G. Zheng, J. L. Sonnenberg, M. Hada, 
 M. Ehara, K. Toyota, R. Fukuda, J. Hasegawa, M. Ishida, T. Nakajima, 
 Y. Honda, O. Kitao, H. Nakai, T. Vreven, J. A. Montgomery, Jr., 
 J. E. Peralta, F. Ogliaro, M. Bearpark, J. J. Heyd, E. Brothers, 
 K. N. Kudin, V. N. Staroverov, T. Keith, R. Kobayashi, J. Normand, 
 K. Raghavachari, A. Rendell, J. C. Burant, S. S. Iyengar, J. Tomasi, 
 M. Cossi, N. Rega, J. M. Millam, M. Klene, J. E. Knox, J. B. Cross, 
 V. Bakken, C. Adamo, J. Jaramillo, R. Gomperts, R. E. Stratmann, 
 O. Yazyev, A. J. Austin, R. Cammi, C. Pomelli, J. W. Ochterski, 
 R. L. Martin, K. Morokuma, V. G. Zakrzewski, G. A. Voth, 
 P. Salvador, J. J. Dannenberg, S. Dapprich, A. D. Daniels, 
 O. Farkas, J. B. Foresman, J. V. Ortiz, J. Cioslowski, 
 and D. J. Fox, Gaussian, Inc., Wallingford CT, 2013.
 
 ******************************************
 Gaussian 09:  EM64L-G09RevD.01 24-Apr-2013
                26-Nov-2013 
 ******************************************
 %Nproc=8
 Will use up to    8 processors via shared memory.
 %mem=436000000
 ----------------------------------------
 #HSEh1PBE/6-31G(2df,p) opt=z-matrix freq
 ----------------------------------------
 1/10=7,14=-1,18=40,26=3,38=1/1,3;
 2/12=2,17=6,18=5,29=3,40=1/2;
 3/5=1,6=6,7=104,11=2,16=1,25=1,30=1,71=1,74=-51/1,2,3;
 4//1;
 5/5=2,38=5/2;
 6/7=2,8=2,9=2,10=2,28=1/1;
 7/29=1/1,2,3,16;
 1/10=7,14=-1,18=40,26=3/3(2);
 2/29=3/2;
 99//99;
 2/29=3/2;
 3/5=1,6=6,7=104,11=2,16=1,25=1,30=1,71=1,74=-51/1,2,3;
 4/5=5,16=3,69=1/1;
 5/5=2,38=5/2;
 7//1,2,3,16;
 1/14=-1,18=40,26=3/3(-5);
 2/29=3/2;
 6/7=2,8=2,9=2,10=2,19=2,28=1/1;
 99/9=1/99;
 -------------------------------------------------------------------
 1H-tetrazole CH2N4 casno=288948 state=1 config=1 method=57 basis=19
 -------------------------------------------------------------------
 Symbolic Z-matrix:
 Charge =  0 Multiplicity = 1
 X
 X                    1     1. 
 C                    1     1.       2     90. 
 N                    1    rn1      2     90.      3    an1      0
 N                    1    rn2      2     90.      3    an2      0
 N                    1    rn3      2     90.      3    an3      0
 N                    1    rn4      2     90.      3    an4      0
 H                    3    rch      4    ach      5     180.     0
 H                    4    rnh      5    anh      6     180.     0
       Variables:
  rn1                   1.2426                   
  rn2                   1.333                    
  rn3                   1.1146                   
  rn4                   0.9264                   
  rch                   1.0678                   
  rnh                   0.9941                   
  an1                  71.8427                   
  an2                 133.7028                   
  an3                 194.4597                   
  an4                 276.0768                   
  ach                 125.0248                   
  anh                 120.7626                   
 

 GradGradGradGradGradGradGradGradGradGradGradGradGradGradGradGradGradGrad
 Berny optimization.
 Initialization pass.
                       ----------------------------
                       !    Initial Parameters    !
                       ! (Angstroms and Degrees)  !
 ----------------------                            ----------------------
 !      Name          Value   Derivative information (Atomic Units)     !
 ------------------------------------------------------------------------
 !       rn1         1.2426   estimate D2E/DX2                          !
 !       rn2         1.333    estimate D2E/DX2                          !
 !       rn3         1.1146   estimate D2E/DX2                          !
 !       rn4         0.9264   estimate D2E/DX2                          !
 !       rch         1.0678   estimate D2E/DX2                          !
 !       rnh         0.9941   estimate D2E/DX2                          !
 !       an1        71.8427   estimate D2E/DX2                          !
 !       an2       133.7028   estimate D2E/DX2                          !
 !       an3       194.4597   estimate D2E/DX2                          !
 !       an4       276.0768   estimate D2E/DX2                          !
 !       ach       125.0248   estimate D2E/DX2                          !
 !       anh       120.7626   estimate D2E/DX2                          !
 ------------------------------------------------------------------------
 Trust Radius=3.00D-01 FncErr=1.00D-07 GrdErr=1.00D-06
 Number of steps in this run=     22 maximum allowed number of steps=    100.
 GradGradGradGradGradGradGradGradGradGradGradGradGradGradGradGradGradGrad

 ---------------------------------------------------------------------------------------------------
                            Z-MATRIX (ANGSTROMS AND DEGREES)
   CD    Cent   Atom    N1       Length/X        N2       Alpha/Y        N3        Beta/Z          J
 ---------------------------------------------------------------------------------------------------
      1         X 
      2         X        1   1.000000(     1)
      3      1  C        1   1.000000(     2)      2   90.000(     9)
      4      2  N        1   1.242600(     3)      2   90.000(    10)      3   71.843(    16)      0
      5      3  N        1   1.333000(     4)      2   90.000(    11)      3  133.703(    17)      0
      6      4  N        1   1.114600(     5)      2   90.000(    12)      3  194.460(    18)      0
      7      5  N        1   0.926400(     6)      2   90.000(    13)      3  276.077(    19)      0
      8      6  H        3   1.067800(     7)      4  125.025(    14)      5  180.000(    20)      0
      9      7  H        4   0.994100(     8)      5  120.763(    15)      6  180.000(    21)      0
 ---------------------------------------------------------------------------------------------------
                         Z-Matrix orientation:                         
 ---------------------------------------------------------------------
 Center     Atomic      Atomic             Coordinates (Angstroms)
 Number     Number       Type             X           Y           Z
 ---------------------------------------------------------------------
      1         -1           0        0.000000    0.000000    0.000000
      2         -1           0        0.000000    0.000000    1.000000
      3          6           0        1.000000    0.000000    0.000000
      4          7           0        0.387228   -1.180724    0.000000
      5          7           0       -0.920993   -0.963670    0.000000
      6          7           0       -1.079293    0.278314    0.000000
      7          7           0        0.098070    0.921194    0.000000
      8          1           0        2.058429    0.141157    0.000000
      9          1           0        0.749017   -2.106652    0.000000
 ---------------------------------------------------------------------
                    Distance matrix (angstroms):
                    1          2          3          4          5
     1  X    0.000000
     2  X    1.000000   0.000000
     3  C    1.000000   1.414214   0.000000
     4  N    1.242600   1.595009   1.330263   0.000000
     5  N    1.333000   1.666400   2.149157   1.326105   0.000000
     6  N    1.114600   1.497442   2.097837   2.068690   1.252032
     7  N    0.926400   1.363164   1.289216   2.121715   2.142710
     8  H    2.063263   2.292827   1.067800   2.130794   3.177672
     9  H    2.235847   2.449288   2.121551   0.994100   2.023695
                    6          7          8          9
     6  N    0.000000
     7  N    1.341447   0.000000
     8  H    3.140719   2.109850   0.000000
     9  H    3.005127   3.097029   2.601385   0.000000
 Stoichiometry    CH2N4
 Framework group  CS[SG(CH2N4)]
 Deg. of freedom    11
 Full point group                 CS      NOp   2
 Largest Abelian subgroup         CS      NOp   2
 Largest concise Abelian subgroup C1      NOp   1
                         Standard orientation:                         
 ---------------------------------------------------------------------
 Center     Atomic      Atomic             Coordinates (Angstroms)
 Number     Number       Type             X           Y           Z
 ---------------------------------------------------------------------
      1          6           0        1.052733    0.225621    0.000000
      2          7           0        0.000000    1.038857    0.000000
      3          7           0       -1.095416    0.291448    0.000000
      4          7           0       -0.716382   -0.901832    0.000000
      5          7           0        0.622191   -0.989579    0.000000
      6          1           0        2.072287    0.542964    0.000000
      7          1           0       -0.061439    2.031056    0.000000
 ---------------------------------------------------------------------
 Rotational constants (GHZ):     10.9201517     10.7345054      5.4132664
 Standard basis: 6-31G(2df,p) (6D, 7F)
 There are   113 symmetry adapted cartesian basis functions of A'  symmetry.
 There are    52 symmetry adapted cartesian basis functions of A"  symmetry.
 There are   103 symmetry adapted basis functions of A'  symmetry.
 There are    47 symmetry adapted basis functions of A"  symmetry.
   150 basis functions,   234 primitive gaussians,   165 cartesian basis functions
    18 alpha electrons       18 beta electrons
       nuclear repulsion energy       169.8308489506 Hartrees.
 NAtoms=    7 NActive=    7 NUniq=    7 SFac= 1.00D+00 NAtFMM=   60 NAOKFM=F Big=F
 Integral buffers will be    131072 words long.
 Raffenetti 2 integral format.
 Two-electron integral symmetry is turned on.
 One-electron integrals computed using PRISM.
 NBasis=   150 RedAO= T EigKep=  2.73D-04  NBF=   103    47
 NBsUse=   150 1.00D-06 EigRej= -1.00D+00 NBFU=   103    47
 ExpMin= 1.61D-01 ExpMax= 4.17D+03 ExpMxC= 6.27D+02 IAcc=1 IRadAn=         1 AccDes= 0.00D+00
 Harris functional with IExCor= 1009 and IRadAn=       1 diagonalized for initial guess.
 HarFok:  IExCor= 1009 AccDes= 0.00D+00 IRadAn=         1 IDoV= 1 UseB2=F ITyADJ=14
 ICtDFT=  3500011 ScaDFX=  1.000000  1.000000  1.000000  1.000000
 FoFCou: FMM=F IPFlag=           0 FMFlag=      100000 FMFlg1=           0
         NFxFlg=           0 DoJE=T BraDBF=F KetDBF=T FulRan=T
         wScrn=  0.000000 ICntrl=     500 IOpCl=  0 I1Cent=   200000004 NGrid=           0
         NMat0=    1 NMatS0=      1 NMatT0=    0 NMatD0=    1 NMtDS0=    0 NMtDT0=    0
 Petite list used in FoFCou.
 Initial guess orbital symmetries:
       Occupied  (A') (A') (A') (A') (A') (A') (A') (A') (A') (A')
                 (A') (A') (A") (A') (A") (A') (A") (A')
       Virtual   (A") (A") (A') (A') (A') (A') (A') (A') (A') (A')
                 (A') (A") (A') (A') (A') (A') (A") (A') (A") (A")
                 (A') (A') (A") (A') (A") (A') (A') (A") (A") (A')
                 (A') (A") (A") (A') (A') (A') (A') (A") (A") (A')
                 (A') (A') (A") (A') (A') (A") (A') (A') (A') (A")
                 (A') (A') (A') (A') (A') (A") (A') (A') (A") (A')
                 (A") (A') (A') (A") (A') (A") (A') (A") (A') (A')
                 (A') (A") (A') (A") (A') (A") (A') (A') (A') (A")
                 (A') (A') (A") (A') (A') (A") (A') (A') (A") (A")
                 (A") (A') (A') (A") (A") (A") (A') (A") (A") (A')
                 (A") (A') (A') (A") (A') (A") (A") (A') (A") (A')
                 (A") (A') (A') (A') (A') (A') (A') (A') (A") (A')
                 (A') (A') (A') (A') (A') (A') (A') (A') (A') (A')
                 (A') (A')
 The electronic state of the initial guess is 1-A'.
 Keep R1 ints in memory in symmetry-blocked form, NReq=193883337.
 Requested convergence on RMS density matrix=1.00D-08 within 128 cycles.
 Requested convergence on MAX density matrix=1.00D-06.
 Requested convergence on             energy=1.00D-06.
 No special actions if energy rises.
 Integral accuracy reduced to 1.0D-05 until final iterations.
 Initial convergence to 1.0D-05 achieved.  Increase integral accuracy.
 SCF Done:  E(RHSEH1PBE) =  -258.008582220     A.U. after   15 cycles
            NFock= 15  Conv=0.27D-08     -V/T= 2.0050

 **********************************************************************

            Population analysis using the SCF density.

 **********************************************************************

 Orbital symmetries:
       Occupied  (A') (A') (A') (A') (A') (A') (A') (A') (A') (A')
                 (A') (A") (A') (A') (A") (A") (A') (A')
       Virtual   (A") (A") (A') (A') (A') (A') (A') (A') (A') (A')
                 (A") (A') (A') (A') (A') (A") (A') (A') (A") (A")
                 (A') (A') (A") (A') (A") (A') (A') (A") (A") (A')
                 (A') (A") (A") (A') (A') (A') (A') (A") (A") (A')
                 (A') (A") (A') (A') (A") (A') (A') (A') (A") (A')
                 (A') (A') (A') (A') (A') (A") (A') (A') (A") (A')
                 (A') (A") (A') (A") (A') (A") (A') (A") (A') (A')
                 (A") (A') (A') (A") (A') (A") (A') (A') (A") (A')
                 (A') (A') (A') (A") (A') (A") (A') (A') (A") (A")
                 (A") (A') (A') (A") (A") (A") (A') (A") (A") (A')
                 (A") (A') (A") (A') (A') (A") (A") (A') (A") (A')
                 (A") (A') (A') (A') (A') (A') (A') (A') (A") (A')
                 (A') (A') (A') (A') (A') (A') (A') (A') (A') (A')
                 (A') (A')
 The electronic state is 1-A'.
 Alpha  occ. eigenvalues --  -14.48882 -14.45173 -14.43392 -14.40415 -10.30168
 Alpha  occ. eigenvalues --   -1.17896  -0.96509  -0.91383  -0.68861  -0.67524
 Alpha  occ. eigenvalues --   -0.60549  -0.51074  -0.50177  -0.38193  -0.33199
 Alpha  occ. eigenvalues --   -0.31107  -0.29756  -0.28315
 Alpha virt. eigenvalues --   -0.01732   0.02029   0.06193   0.11329   0.18946
 Alpha virt. eigenvalues --    0.20302   0.27160   0.29997   0.39222   0.44201
 Alpha virt. eigenvalues --    0.45768   0.47897   0.51954   0.55686   0.57404
 Alpha virt. eigenvalues --    0.60208   0.60932   0.62327   0.65350   0.66705
 Alpha virt. eigenvalues --    0.72481   0.73260   0.76800   0.77237   0.78529
 Alpha virt. eigenvalues --    0.84333   0.86346   0.86555   0.86930   0.90948
 Alpha virt. eigenvalues --    0.95868   1.06383   1.07278   1.08238   1.22155
 Alpha virt. eigenvalues --    1.25696   1.27496   1.35067   1.36671   1.41132
 Alpha virt. eigenvalues --    1.44702   1.49396   1.53240   1.60116   1.62809
 Alpha virt. eigenvalues --    1.62851   1.67082   1.70100   1.79048   1.79380
 Alpha virt. eigenvalues --    1.92709   1.94323   2.02405   2.10740   2.17249
 Alpha virt. eigenvalues --    2.21359   2.33137   2.45776   2.57050   2.79683
 Alpha virt. eigenvalues --    2.89212   2.89226   2.93911   2.98612   3.06425
 Alpha virt. eigenvalues --    3.10117   3.12114   3.18585   3.22622   3.30114
 Alpha virt. eigenvalues --    3.33654   3.35589   3.37964   3.41371   3.46303
 Alpha virt. eigenvalues --    3.49234   3.58601   3.61584   3.71729   3.72252
 Alpha virt. eigenvalues --    3.78852   3.85951   3.94666   3.94689   4.02812
 Alpha virt. eigenvalues --    4.04796   4.05245   4.06935   4.13922   4.17872
 Alpha virt. eigenvalues --    4.20331   4.23676   4.28087   4.32001   4.40134
 Alpha virt. eigenvalues --    4.45708   4.48768   4.51137   4.53926   4.54338
 Alpha virt. eigenvalues --    4.56874   4.57241   4.60248   4.61449   4.66377
 Alpha virt. eigenvalues --    4.81798   4.84122   4.88471   4.88921   4.98424
 Alpha virt. eigenvalues --    5.00506   5.05691   5.07665   5.21011   5.27016
 Alpha virt. eigenvalues --    5.36638   5.47352   5.53067   5.56347   5.60824
 Alpha virt. eigenvalues --    5.75673   5.82618   6.29110   6.46465   8.12654
 Alpha virt. eigenvalues --   10.36722  11.29263  11.31025  11.39070  11.49602
 Alpha virt. eigenvalues --   16.04091  19.15037
          Condensed to atoms (all electrons):
               1          2          3          4          5          6
     1  C    4.824225   0.446182  -0.105908  -0.134550   0.533189   0.383309
     2  N    0.446182   6.237978   0.370416  -0.124622  -0.034992  -0.029017
     3  N   -0.105908   0.370416   6.477949   0.494337  -0.151799   0.003191
     4  N   -0.134550  -0.124622   0.494337   6.373150   0.467103   0.004469
     5  N    0.533189  -0.034992  -0.151799   0.467103   6.420292  -0.019554
     6  H    0.383309  -0.029017   0.003191   0.004469  -0.019554   0.466021
     7  H   -0.031723   0.352437  -0.023990   0.006080   0.006592   0.000439
               7
     1  C   -0.031723
     2  N    0.352437
     3  N   -0.023990
     4  N    0.006080
     5  N    0.006592
     6  H    0.000439
     7  H    0.377206
 Mulliken charges:
               1
     1  C    0.085276
     2  N   -0.218384
     3  N   -0.064195
     4  N   -0.085967
     5  N   -0.220831
     6  H    0.191143
     7  H    0.312959
 Sum of Mulliken charges =   0.00000
 Mulliken charges with hydrogens summed into heavy atoms:
               1
     1  C    0.276418
     2  N    0.094575
     3  N   -0.064195
     4  N   -0.085967
     5  N   -0.220831
 Electronic spatial extent (au):  <R**2>=            243.1777
 Charge=              0.0000 electrons
 Dipole moment (field-independent basis, Debye):
    X=              2.4045    Y=              4.6189    Z=              0.0000  Tot=              5.2073
 Quadrupole moment (field-independent basis, Debye-Ang):
   XX=            -28.2675   YY=            -25.7356   ZZ=            -27.7699
   XY=              1.7032   XZ=              0.0000   YZ=              0.0000
 Traceless Quadrupole moment (field-independent basis, Debye-Ang):
   XX=             -1.0098   YY=              1.5221   ZZ=             -0.5123
   XY=              1.7032   XZ=              0.0000   YZ=              0.0000
 Octapole moment (field-independent basis, Debye-Ang**2):
  XXX=             11.1260  YYY=             21.1548  ZZZ=              0.0000  XYY=             -0.6131
  XXY=              4.2891  XXZ=              0.0000  XZZ=             -0.6414  YZZ=              0.5229
  YYZ=              0.0000  XYZ=              0.0000
 Hexadecapole moment (field-independent basis, Debye-Ang**3):
 XXXX=           -136.0867 YYYY=           -113.9976 ZZZZ=            -23.8367 XXXY=              6.0848
 XXXZ=              0.0000 YYYX=             -0.5552 YYYZ=              0.0000 ZZZX=              0.0000
 ZZZY=              0.0000 XXYY=            -50.9280 XXZZ=            -28.7779 YYZZ=            -27.0652
 XXYZ=              0.0000 YYXZ=              0.0000 ZZXY=             -0.1432
 N-N= 1.698308489506D+02 E-N=-9.421829516219D+02  KE= 2.567199688208D+02
 Symmetry A'   KE= 2.473222997983D+02
 Symmetry A"   KE= 9.397669022492D+00
 Calling FoFJK, ICntrl=      2127 FMM=F ISym2X=1 I1Cent= 0 IOpClX= 0 NMat=1 NMatS=1 NMatT=0.
 ***** Axes restored to original set *****
 -------------------------------------------------------------------
 Center     Atomic                   Forces (Hartrees/Bohr)
 Number     Number              X              Y              Z
 -------------------------------------------------------------------
      1        6           0.014361603   -0.007044242    0.000000000
      2        7           0.004303063   -0.002691416    0.000000000
      3        7          -0.009808762   -0.035847470    0.000000000
      4        7          -0.015706332    0.029800356    0.000000000
      5        7          -0.004688823    0.025566193    0.000000000
      6        1           0.007721986    0.000648607    0.000000000
      7        1           0.003817265   -0.010432028    0.000000000
 -------------------------------------------------------------------
 Cartesian Forces:  Max     0.035847470 RMS     0.013195785
 -----------------------------------------------------------------------------------------------
                       Internal Coordinate Forces (Hartree/Bohr or radian)
  Cent   Atom   N1       Length/X         N2         Alpha/Y        N3         Beta/Z          J
 -----------------------------------------------------------------------------------------------
         X 
         X        1   0.000000(     1)
      1  C        1   0.022353(     2)      2   0.000000(     9)
      2  N        1   0.014944(     3)      2   0.000000(    10)      3  -0.007820(    16)     0
      3  N        1   0.032543(     4)      2   0.000000(    11)      3  -0.044271(    17)     0
      4  N        1   0.022650(     5)      2   0.000000(    12)      3   0.052519(    18)     0
      5  N        1   0.024926(     6)      2   0.000000(    13)      3  -0.012900(    19)     0
      6  H        3   0.007740(     7)      4  -0.000763(    14)      5   0.000000(    20)     0
      7  H        4   0.011106(     8)      5  -0.000453(    15)      6   0.000000(    21)     0
 -----------------------------------------------------------------------------------------------
 Internal  Forces:  Max     0.052519321 RMS     0.019574229

 GradGradGradGradGradGradGradGradGradGradGradGradGradGradGradGradGradGrad
 Berny optimization.
 Search for a local minimum.
 Step number   1 out of a maximum of   22
 All quantities printed in internal units (Hartrees-Bohrs-Radians)
 Second derivative matrix not updated -- first step.
 The second derivative matrix:
                          rn1       rn2       rn3       rn4       rch
           rn1          0.65186
           rn2          0.01318   0.69869
           rn3          0.03472   0.07334   0.58262
           rn4          0.03688   0.02662   0.13967   0.63921
           rch          0.00000   0.00000   0.00000   0.00000   0.37510
           rnh          0.00000   0.00000   0.00000   0.00000   0.00000
           an1          0.02012  -0.75016   0.04258  -0.08486   0.00000
           an2          0.72119  -0.31234  -0.71865   0.05436   0.00000
           an3         -0.02914   1.04797   0.05412  -0.58583   0.00000
           an4          0.05328  -0.03228   0.65851  -0.10009   0.00000
           ach          0.04546   0.00000   0.00000   0.05066   0.00000
           anh         -0.10206   0.05276   0.00000   0.00000   0.00000
                          rnh       an1       an2       an3       an4
           rnh          0.48741
           an1          0.00000   4.53257
           an2          0.00000  -2.68051   6.02300
           an3          0.00000  -0.03573  -3.19618   4.47465
           an4          0.00000  -0.12258  -0.06592  -1.16042   2.58479
           ach          0.00000  -0.10460   0.00000   0.00000   0.07318
           anh          0.00000   0.03519  -0.09059   0.00000   0.00000
                          ach       anh
           ach          0.32000
           anh          0.00000   0.32000
 ITU=  0
     Eigenvalues ---    0.00000   0.13346   0.26445   0.33044   0.37510
     Eigenvalues ---    0.40158   0.48741   0.75609   1.20990   2.99509
     Eigenvalues ---    5.09563   9.64077
 RFO step:  Lambda=-3.90344858D-03 EMin=-6.95624114D-16
 Linear search not attempted -- first point.
 Variable       Old X    -DE/DX   Delta X   Delta X   Delta X     New X
                                 (Linear)    (Quad)   (Total)
   rn1        2.34817   0.01494   0.00000   0.01964   0.01964   2.36781
   rn2        2.51900   0.03254   0.00000   0.04382   0.04382   2.56282
   rn3        2.10629   0.02265   0.00000   0.03870   0.03870   2.14499
   rn4        1.75064   0.02493   0.00000   0.02754   0.02754   1.77818
   rch        2.01785   0.00774   0.00000   0.02042   0.02042   2.03827
   rnh        1.87858   0.01111   0.00000   0.02260   0.02260   1.90118
   an1        1.25389  -0.00782   0.00000   0.00488   0.00488   1.25878
   an2        2.33355  -0.04427   0.00000  -0.00047  -0.00047   2.33309
   an3        3.39396   0.05252   0.00000   0.00114   0.00114   3.39510
   an4        4.81845  -0.01290   0.00000  -0.01275  -0.01275   4.80570
   ach        2.18209  -0.00076   0.00000  -0.00496  -0.00496   2.17714
   anh        2.10770  -0.00045   0.00000  -0.00301  -0.00301   2.10470
         Item               Value     Threshold  Converged?
 Maximum Force            0.052519     0.000450     NO 
 RMS     Force            0.025077     0.000300     NO 
 Maximum Displacement     0.043818     0.001800     NO 
 RMS     Displacement     0.021817     0.001200     NO 
 Predicted change in Energy=-1.962872D-03
 GradGradGradGradGradGradGradGradGradGradGradGradGradGradGradGradGradGrad

 ---------------------------------------------------------------------------------------------------
                            Z-MATRIX (ANGSTROMS AND DEGREES)
   CD    Cent   Atom    N1       Length/X        N2       Alpha/Y        N3        Beta/Z          J
 ---------------------------------------------------------------------------------------------------
      1         X 
      2         X        1   1.000000(     1)
      3      1  C        1   1.000000(     2)      2   90.000(     9)
      4      2  N        1   1.252991(     3)      2   90.000(    10)      3   72.123(    16)      0
      5      3  N        1   1.356187(     4)      2   90.000(    11)      3  133.676(    17)      0
      6      4  N        1   1.135081(     5)      2   90.000(    12)      3  194.525(    18)      0
      7      5  N        1   0.940973(     6)      2   90.000(    13)      3  275.346(    19)      0
      8      6  H        3   1.078607(     7)      4  124.741(    14)      5  180.000(    20)      0
      9      7  H        4   1.006062(     8)      5  120.590(    15)      6  180.000(    21)      0
 ---------------------------------------------------------------------------------------------------
                         Z-Matrix orientation:                         
 ---------------------------------------------------------------------
 Center     Atomic      Atomic             Coordinates (Angstroms)
 Number     Number       Type             X           Y           Z
 ---------------------------------------------------------------------
      1         -1           0        0.000000    0.000000    0.000000
      2         -1           0        0.000000    0.000000    1.000000
      3          6           0        1.000000    0.000000    0.000000
      4          7           0        0.384647   -1.192491    0.000000
      5          7           0       -0.936555   -0.980871    0.000000
      6          7           0       -1.098802    0.284678    0.000000
      7          7           0        0.087673    0.936880    0.000000
      8          1           0        2.069512    0.139776    0.000000
      9          1           0        0.753211   -2.128611    0.000000
 ---------------------------------------------------------------------
                    Distance matrix (angstroms):
                    1          2          3          4          5
     1  X    0.000000
     2  X    1.000000   0.000000
     3  C    1.000000   1.414214   0.000000
     4  N    1.252991   1.603118   1.341899   0.000000
     5  N    1.356187   1.685006   2.170796   1.338042   0.000000
     6  N    1.135081   1.512748   2.118021   2.093477   1.275907
     7  N    0.940973   1.373110   1.307702   2.149979   2.174123
     8  H    2.074227   2.302698   1.078607   2.147954   3.208160
     9  H    2.257944   2.469476   2.142869   1.006062   2.042698
                    6          7          8          9
     6  N    0.000000
     7  N    1.353917   0.000000
     8  H    3.171626   2.136132   0.000000
     9  H    3.042025   3.136905   2.622637   0.000000
 Stoichiometry    CH2N4
 Framework group  CS[SG(CH2N4)]
 Deg. of freedom    11
 Full point group                 CS      NOp   2
 Largest Abelian subgroup         CS      NOp   2
 Largest concise Abelian subgroup C1      NOp   1
                         Standard orientation:                         
 ---------------------------------------------------------------------
 Center     Atomic      Atomic             Coordinates (Angstroms)
 Number     Number       Type             X           Y           Z
 ---------------------------------------------------------------------
      1          6           0        1.061307    0.229219    0.000000
      2          7           0        0.000000    1.050390    0.000000
      3          7           0       -1.108311    0.300722    0.000000
      4          7           0       -0.721048   -0.914994    0.000000
      5          7           0        0.629856   -1.005259    0.000000
      6          1           0        2.089828    0.554082    0.000000
      7          1           0       -0.061147    2.054592    0.000000
 ---------------------------------------------------------------------
 Rotational constants (GHZ):     10.6684398     10.4811926      5.2869936
 Standard basis: 6-31G(2df,p) (6D, 7F)
 There are   113 symmetry adapted cartesian basis functions of A'  symmetry.
 There are    52 symmetry adapted cartesian basis functions of A"  symmetry.
 There are   103 symmetry adapted basis functions of A'  symmetry.
 There are    47 symmetry adapted basis functions of A"  symmetry.
   150 basis functions,   234 primitive gaussians,   165 cartesian basis functions
    18 alpha electrons       18 beta electrons
       nuclear repulsion energy       167.8184108067 Hartrees.
 NAtoms=    7 NActive=    7 NUniq=    7 SFac= 1.00D+00 NAtFMM=   60 NAOKFM=F Big=F
 Integral buffers will be    131072 words long.
 Raffenetti 2 integral format.
 Two-electron integral symmetry is turned on.
 One-electron integrals computed using PRISM.
 NBasis=   150 RedAO= T EigKep=  2.88D-04  NBF=   103    47
 NBsUse=   150 1.00D-06 EigRej= -1.00D+00 NBFU=   103    47
 Initial guess from the checkpoint file:  "/tmp/rdj3/g09-23219/Gau-22913.chk"
 B after Tr=     0.000000    0.000000    0.000000
         Rot=    1.000000    0.000000    0.000000    0.000008 Ang=   0.00 deg.
 Initial guess orbital symmetries:
       Occupied  (A') (A') (A') (A') (A') (A') (A') (A') (A') (A')
                 (A') (A") (A') (A') (A") (A") (A') (A')
       Virtual   (A') (A') (A') (A') (A') (A') (A') (A') (A') (A')
                 (A') (A') (A') (A') (A') (A') (A') (A') (A') (A')
                 (A') (A') (A') (A') (A') (A') (A') (A') (A') (A')
                 (A') (A') (A') (A') (A') (A') (A') (A') (A') (A')
                 (A') (A') (A') (A') (A') (A') (A') (A') (A') (A')
                 (A') (A') (A') (A') (A') (A') (A') (A') (A') (A')
                 (A') (A') (A') (A') (A') (A') (A') (A') (A') (A')
                 (A') (A') (A') (A') (A') (A') (A') (A') (A') (A')
                 (A') (A') (A') (A') (A') (A') (A') (A') (A") (A")
                 (A") (A") (A") (A") (A") (A") (A") (A") (A") (A")
                 (A") (A") (A") (A") (A") (A") (A") (A") (A") (A")
                 (A") (A") (A") (A") (A") (A") (A") (A") (A") (A")
                 (A") (A") (A") (A") (A") (A") (A") (A") (A") (A")
                 (A") (A")
 ExpMin= 1.61D-01 ExpMax= 4.17D+03 ExpMxC= 6.27D+02 IAcc=1 IRadAn=         1 AccDes= 0.00D+00
 Harris functional with IExCor= 1009 and IRadAn=       1 diagonalized for initial guess.
 HarFok:  IExCor= 1009 AccDes= 0.00D+00 IRadAn=         1 IDoV= 1 UseB2=F ITyADJ=14
 ICtDFT=  3500011 ScaDFX=  1.000000  1.000000  1.000000  1.000000
 FoFCou: FMM=F IPFlag=           0 FMFlag=      100000 FMFlg1=           0
         NFxFlg=           0 DoJE=T BraDBF=F KetDBF=T FulRan=T
         wScrn=  0.000000 ICntrl=     500 IOpCl=  0 I1Cent=   200000004 NGrid=           0
         NMat0=    1 NMatS0=      1 NMatT0=    0 NMatD0=    1 NMtDS0=    0 NMtDT0=    0
 Petite list used in FoFCou.
 Keep R1 ints in memory in symmetry-blocked form, NReq=193883337.
 Requested convergence on RMS density matrix=1.00D-08 within 128 cycles.
 Requested convergence on MAX density matrix=1.00D-06.
 Requested convergence on             energy=1.00D-06.
 No special actions if energy rises.
 Integral accuracy reduced to 1.0D-05 until final iterations.
 Initial convergence to 1.0D-05 achieved.  Increase integral accuracy.
 SCF Done:  E(RHSEH1PBE) =  -258.010625900     A.U. after   12 cycles
            NFock= 12  Conv=0.57D-08     -V/T= 2.0061
 Calling FoFJK, ICntrl=      2127 FMM=F ISym2X=1 I1Cent= 0 IOpClX= 0 NMat=1 NMatS=1 NMatT=0.
 ***** Axes restored to original set *****
 -------------------------------------------------------------------
 Center     Atomic                   Forces (Hartrees/Bohr)
 Number     Number              X              Y              Z
 -------------------------------------------------------------------
      1        6           0.001954934   -0.002851739    0.000000000
      2        7           0.000557930    0.004170585    0.000000000
      3        7          -0.000408628   -0.007484808    0.000000000
      4        7          -0.000440919    0.006391780    0.000000000
      5        7          -0.001273740   -0.000266154    0.000000000
      6        1          -0.000322245   -0.000129827    0.000000000
      7        1          -0.000067332    0.000170164    0.000000000
 -------------------------------------------------------------------
 Cartesian Forces:  Max     0.007484808 RMS     0.002476031
 -----------------------------------------------------------------------------------------------
                       Internal Coordinate Forces (Hartree/Bohr or radian)
  Cent   Atom   N1       Length/X         N2         Alpha/Y        N3         Beta/Z          J
 -----------------------------------------------------------------------------------------------
         X 
         X        1   0.000000(     1)
      1  C        1   0.001695(     2)      2   0.000000(     9)
      2  N        1  -0.004030(     3)      2   0.000000(    10)      3  -0.004144(    16)     0
      3  N        1   0.005695(     4)      2   0.000000(    11)      3  -0.012489(    17)     0
      4  N        1   0.002030(     5)      2   0.000000(    12)      3   0.013035(    18)     0
      5  N        1  -0.000384(     6)      2   0.000000(    13)      3  -0.002211(    19)     0
      6  H        3  -0.000336(     7)      4  -0.000177(    14)      5   0.000000(    20)     0
      7  H        4  -0.000183(     8)      5  -0.000001(    15)      6   0.000000(    21)     0
 -----------------------------------------------------------------------------------------------
 Internal  Forces:  Max     0.013034919 RMS     0.004385813

 GradGradGradGradGradGradGradGradGradGradGradGradGradGradGradGradGradGrad
 Berny optimization.
 Search for a local minimum.
 Step number   2 out of a maximum of   22
 All quantities printed in internal units (Hartrees-Bohrs-Radians)
 Update second derivatives using D2CorN and points    1    2
 DE= -2.04D-03 DEPred=-1.96D-03 R= 1.04D+00
 TightC=F SS=  1.41D+00  RLast= 7.56D-02 DXNew= 5.0454D-01 2.2672D-01
 Trust test= 1.04D+00 RLast= 7.56D-02 DXMaxT set to 3.00D-01
 The second derivative matrix:
                          rn1       rn2       rn3       rn4       rch
           rn1          0.66598
           rn2          0.01943   0.65631
           rn3          0.04540   0.04742   0.56989
           rn4          0.04763   0.01518   0.13681   0.64158
           rch          0.00806  -0.00828  -0.00195   0.00188   0.37658
           rnh          0.00859  -0.00989  -0.00280   0.00163   0.00131
           an1          0.02903  -0.73656   0.05588  -0.07461   0.00762
           an2          0.74249  -0.26421  -0.67626   0.08444   0.02231
           an3         -0.05113   0.99743   0.00978  -0.61719  -0.02325
           an4          0.05241  -0.01782   0.66793  -0.09543   0.00340
           ach          0.04395   0.00300   0.00135   0.05082   0.00010
           anh         -0.10316   0.05417   0.00046  -0.00016  -0.00013
                          rnh       an1       an2       an3       an4
           rnh          0.48848
           an1          0.00835   4.53613
           an2          0.02470  -2.67534   6.02198
           an3         -0.02576  -0.04089  -3.19441   4.47206
           an4          0.00397  -0.12630  -0.07995  -1.14566   2.57996
           ach          0.00019  -0.10634  -0.00543   0.00567   0.07206
           anh         -0.00009   0.03409  -0.09388   0.00343  -0.00056
                          ach       anh
           ach          0.31986
           anh         -0.00004   0.32001
 ITU=  1  0
     Eigenvalues ---    0.00001   0.12543   0.26428   0.32856   0.37629
     Eigenvalues ---    0.39747   0.48826   0.76264   1.20778   2.99280
     Eigenvalues ---    5.07973   9.62558
 RFO step:  Lambda=-1.27001406D-04 EMin= 7.82884274D-06
 Quartic linear search produced a step of  0.07526.
 Maximum step size (   0.300) exceeded in Quadratic search.
    -- Step size scaled by   0.561
 Variable       Old X    -DE/DX   Delta X   Delta X   Delta X     New X
                                 (Linear)    (Quad)   (Total)
   rn1        2.36781  -0.00403   0.00148   0.12767   0.12915   2.49696
   rn2        2.56282   0.00570   0.00330   0.10830   0.11160   2.67442
   rn3        2.14499   0.00203   0.00291  -0.03120  -0.02829   2.11671
   rn4        1.77818  -0.00038   0.00207  -0.14394  -0.14187   1.63631
   rch        2.03827  -0.00034   0.00154  -0.00130   0.00024   2.03851
   rnh        1.90118  -0.00018   0.00170  -0.00101   0.00070   1.90188
   an1        1.25878  -0.00414   0.00037  -0.05572  -0.05535   1.20343
   an2        2.33309  -0.01249  -0.00004  -0.11349  -0.11352   2.21956
   an3        3.39510   0.01303   0.00009  -0.14022  -0.14014   3.25496
   an4        4.80570  -0.00221  -0.00096  -0.06796  -0.06891   4.73678
   ach        2.17714  -0.00018  -0.00037   0.00153   0.00116   2.17829
   anh        2.10470   0.00000  -0.00023  -0.00313  -0.00336   2.10134
         Item               Value     Threshold  Converged?
 Maximum Force            0.013035     0.000450     NO 
 RMS     Force            0.005781     0.000300     NO 
 Maximum Displacement     0.141870     0.001800     NO 
 RMS     Displacement     0.086801     0.001200     NO 
 Predicted change in Energy=-6.004927D-05
 GradGradGradGradGradGradGradGradGradGradGradGradGradGradGradGradGradGrad

 ---------------------------------------------------------------------------------------------------
                            Z-MATRIX (ANGSTROMS AND DEGREES)
   CD    Cent   Atom    N1       Length/X        N2       Alpha/Y        N3        Beta/Z          J
 ---------------------------------------------------------------------------------------------------
      1         X 
      2         X        1   1.000000(     1)
      3      1  C        1   1.000000(     2)      2   90.000(     9)
      4      2  N        1   1.321334(     3)      2   90.000(    10)      3   68.951(    16)      0
      5      3  N        1   1.415243(     4)      2   90.000(    11)      3  127.172(    17)      0
      6      4  N        1   1.120112(     5)      2   90.000(    12)      3  186.496(    18)      0
      7      5  N        1   0.865899(     6)      2   90.000(    13)      3  271.398(    19)      0
      8      6  H        3   1.078733(     7)      4  124.807(    14)      5  180.000(    20)      0
      9      7  H        4   1.006430(     8)      5  120.398(    15)      6  180.000(    21)      0
 ---------------------------------------------------------------------------------------------------
                         Z-Matrix orientation:                         
 ---------------------------------------------------------------------
 Center     Atomic      Atomic             Coordinates (Angstroms)
 Number     Number       Type             X           Y           Z
 ---------------------------------------------------------------------
      1         -1           0        0.000000    0.000000    0.000000
      2         -1           0        0.000000    0.000000    1.000000
      3          6           0        1.000000    0.000000    0.000000
      4          7           0        0.474571   -1.233168    0.000000
      5          7           0       -0.855096   -1.127707    0.000000
      6          7           0       -1.112922    0.126716    0.000000
      7          7           0        0.021120    0.865641    0.000000
      8          1           0        2.056209    0.219290    0.000000
      9          1           0        0.913594   -2.138795    0.000000
 ---------------------------------------------------------------------
                    Distance matrix (angstroms):
                    1          2          3          4          5
     1  X    0.000000
     2  X    1.000000   0.000000
     3  C    1.000000   1.414214   0.000000
     4  N    1.321334   1.657082   1.340440   0.000000
     5  N    1.415243   1.732891   2.170969   1.333844   0.000000
     6  N    1.120112   1.501550   2.116718   2.090315   1.280644
     7  N    0.865899   1.322793   1.306729   2.147235   2.177428
     8  H    2.067869   2.296973   1.078733   2.147373   3.207818
     9  H    2.325747   2.531620   2.140540   1.006430   2.037294
                    6          7          8          9
     6  N    0.000000
     7  N    1.353536   0.000000
     8  H    3.170482   2.135265   0.000000
     9  H    3.039623   3.134190   2.620331   0.000000
 Stoichiometry    CH2N4
 Framework group  CS[SG(CH2N4)]
 Deg. of freedom    11
 Full point group                 CS      NOp   2
 Largest Abelian subgroup         CS      NOp   2
 Largest concise Abelian subgroup C1      NOp   1
                         Standard orientation:                         
 ---------------------------------------------------------------------
 Center     Atomic      Atomic             Coordinates (Angstroms)
 Number     Number       Type             X           Y           Z
 ---------------------------------------------------------------------
      1          6           0        1.060968    0.228044    0.000000
      2          7           0        0.000000    1.047267    0.000000
      3          7           0       -1.108616    0.305574    0.000000
      4          7           0       -0.720658   -0.914893    0.000000
      5          7           0        0.629841   -1.005516    0.000000
      6          1           0        2.089663    0.552777    0.000000
      7          1           0       -0.059440    2.051940    0.000000
 ---------------------------------------------------------------------
 Rotational constants (GHZ):     10.7000468     10.4666180      5.2910226
 Standard basis: 6-31G(2df,p) (6D, 7F)
 There are   113 symmetry adapted cartesian basis functions of A'  symmetry.
 There are    52 symmetry adapted cartesian basis functions of A"  symmetry.
 There are   103 symmetry adapted basis functions of A'  symmetry.
 There are    47 symmetry adapted basis functions of A"  symmetry.
   150 basis functions,   234 primitive gaussians,   165 cartesian basis functions
    18 alpha electrons       18 beta electrons
       nuclear repulsion energy       167.8706039815 Hartrees.
 NAtoms=    7 NActive=    7 NUniq=    7 SFac= 1.00D+00 NAtFMM=   60 NAOKFM=F Big=F
 Integral buffers will be    131072 words long.
 Raffenetti 2 integral format.
 Two-electron integral symmetry is turned on.
 One-electron integrals computed using PRISM.
 NBasis=   150 RedAO= T EigKep=  2.88D-04  NBF=   103    47
 NBsUse=   150 1.00D-06 EigRej= -1.00D+00 NBFU=   103    47
 Initial guess from the checkpoint file:  "/tmp/rdj3/g09-23219/Gau-22913.chk"
 B after Tr=     0.000000    0.000000    0.000000
         Rot=    1.000000    0.000000    0.000000    0.000471 Ang=   0.05 deg.
 Initial guess orbital symmetries:
       Occupied  (A') (A') (A') (A') (A') (A') (A') (A') (A') (A')
                 (A') (A") (A') (A') (A") (A") (A') (A')
       Virtual   (A') (A') (A') (A') (A') (A') (A') (A') (A') (A')
                 (A') (A') (A') (A') (A') (A') (A') (A') (A') (A')
                 (A') (A') (A') (A') (A') (A') (A') (A') (A') (A')
                 (A') (A') (A') (A') (A') (A') (A') (A') (A') (A')
                 (A') (A') (A') (A') (A') (A') (A') (A') (A') (A')
                 (A') (A') (A') (A') (A') (A') (A') (A') (A') (A')
                 (A') (A') (A') (A') (A') (A') (A') (A') (A') (A')
                 (A') (A') (A') (A') (A') (A') (A') (A') (A') (A')
                 (A') (A') (A') (A') (A') (A') (A') (A') (A") (A")
                 (A") (A") (A") (A") (A") (A") (A") (A") (A") (A")
                 (A") (A") (A") (A") (A") (A") (A") (A") (A") (A")
                 (A") (A") (A") (A") (A") (A") (A") (A") (A") (A")
                 (A") (A") (A") (A") (A") (A") (A") (A") (A") (A")
                 (A") (A")
 ExpMin= 1.61D-01 ExpMax= 4.17D+03 ExpMxC= 6.27D+02 IAcc=1 IRadAn=         1 AccDes= 0.00D+00
 Harris functional with IExCor= 1009 and IRadAn=       1 diagonalized for initial guess.
 HarFok:  IExCor= 1009 AccDes= 0.00D+00 IRadAn=         1 IDoV= 1 UseB2=F ITyADJ=14
 ICtDFT=  3500011 ScaDFX=  1.000000  1.000000  1.000000  1.000000
 FoFCou: FMM=F IPFlag=           0 FMFlag=      100000 FMFlg1=           0
         NFxFlg=           0 DoJE=T BraDBF=F KetDBF=T FulRan=T
         wScrn=  0.000000 ICntrl=     500 IOpCl=  0 I1Cent=   200000004 NGrid=           0
         NMat0=    1 NMatS0=      1 NMatT0=    0 NMatD0=    1 NMtDS0=    0 NMtDT0=    0
 Petite list used in FoFCou.
 Keep R1 ints in memory in symmetry-blocked form, NReq=193883337.
 Requested convergence on RMS density matrix=1.00D-08 within 128 cycles.
 Requested convergence on MAX density matrix=1.00D-06.
 Requested convergence on             energy=1.00D-06.
 No special actions if energy rises.
 Integral accuracy reduced to 1.0D-05 until final iterations.
 Initial convergence to 1.0D-05 achieved.  Increase integral accuracy.
 SCF Done:  E(RHSEH1PBE) =  -258.010662243     A.U. after   11 cycles
            NFock= 11  Conv=0.81D-08     -V/T= 2.0061
 Calling FoFJK, ICntrl=      2127 FMM=F ISym2X=1 I1Cent= 0 IOpClX= 0 NMat=1 NMatS=1 NMatT=0.
 ***** Axes restored to original set *****
 -------------------------------------------------------------------
 Center     Atomic                   Forces (Hartrees/Bohr)
 Number     Number              X              Y              Z
 -------------------------------------------------------------------
      1        6           0.003578611   -0.002071193    0.000000000
      2        7           0.002932304    0.000600229    0.000000000
      3        7          -0.001789723   -0.001730753    0.000000000
      4        7          -0.001401047    0.003502070    0.000000000
      5        7          -0.003001967   -0.000399312    0.000000000
      6        1          -0.000367146   -0.000326450    0.000000000
      7        1           0.000048968    0.000425410    0.000000000
 -------------------------------------------------------------------
 Cartesian Forces:  Max     0.003578611 RMS     0.001634116
 -----------------------------------------------------------------------------------------------
                       Internal Coordinate Forces (Hartree/Bohr or radian)
  Cent   Atom   N1       Length/X         N2         Alpha/Y        N3         Beta/Z          J
 -----------------------------------------------------------------------------------------------
         X 
         X        1   0.000000(     1)
      1  C        1   0.003393(     2)      2   0.000000(     9)
      2  N        1  -0.000180(     3)      2   0.000000(    10)      3  -0.007701(    16)     0
      3  N        1   0.002606(     4)      2   0.000000(    11)      3   0.000767(    17)     0
      4  N        1   0.001788(     5)      2   0.000000(    12)      3   0.007030(    18)     0
      5  N        1  -0.000472(     6)      2   0.000000(    13)      3  -0.004895(    19)     0
      6  H        3  -0.000426(     7)      4  -0.000499(    14)      5   0.000000(    20)     0
      7  H        4  -0.000361(     8)      5   0.000437(    15)      6   0.000000(    21)     0
 -----------------------------------------------------------------------------------------------
 Internal  Forces:  Max     0.007700653 RMS     0.002723578

 GradGradGradGradGradGradGradGradGradGradGradGradGradGradGradGradGradGrad
 Berny optimization.
 Search for a local minimum.
 Step number   3 out of a maximum of   22
 All quantities printed in internal units (Hartrees-Bohrs-Radians)
 Update second derivatives using D2CorN and points    1    2    3
 DE= -3.63D-05 DEPred=-6.00D-05 R= 6.05D-01
 TightC=F SS=  1.41D+00  RLast= 3.01D-01 DXNew= 5.0454D-01 9.0206D-01
 Trust test= 6.05D-01 RLast= 3.01D-01 DXMaxT set to 5.05D-01
 The second derivative matrix:
                          rn1       rn2       rn3       rn4       rch
           rn1          0.66329
           rn2          0.01620   0.65182
           rn3          0.04387   0.04535   0.56997
           rn4          0.04896   0.01661   0.13859   0.64224
           rch          0.00837  -0.00827  -0.00206   0.00177   0.37671
           rnh          0.00877  -0.01005  -0.00293   0.00163   0.00143
           an1          0.03739  -0.72804   0.05664  -0.08101   0.00839
           an2          0.74095  -0.26478  -0.67381   0.08806   0.02227
           an3         -0.05567   0.99292   0.01096  -0.61257  -0.02445
           an4          0.05834  -0.01147   0.66892  -0.09979   0.00377
           ach          0.04442   0.00354   0.00136   0.05038   0.00013
           anh         -0.10362   0.05377   0.00053   0.00027  -0.00019
                          rnh       an1       an2       an3       an4
           rnh          0.48860
           an1          0.00929   4.53057
           an2          0.02477  -2.68020   6.02707
           an3         -0.02694  -0.04643  -3.18672   4.48308
           an4          0.00449  -0.13244  -0.08265  -1.14741   2.57428
           ach          0.00023  -0.10666  -0.00589   0.00537   0.07171
           anh         -0.00016   0.03396  -0.09343   0.00419  -0.00049
                          ach       anh
           ach          0.31985
           anh         -0.00005   0.32004
 ITU=  1  1  0
     Eigenvalues ---    0.00073   0.12502   0.26445   0.32831   0.37642
     Eigenvalues ---    0.39757   0.48835   0.76199   1.20774   2.99284
     Eigenvalues ---    5.07865   9.62544
 RFO step:  Lambda=-6.02421881D-05 EMin= 7.34291383D-04
 Quartic linear search produced a step of -0.17968.
 Variable       Old X    -DE/DX   Delta X   Delta X   Delta X     New X
                                 (Linear)    (Quad)   (Total)
   rn1        2.49696  -0.00018  -0.02321  -0.00952  -0.03273   2.46423
   rn2        2.67442   0.00261  -0.02005  -0.00072  -0.02078   2.65365
   rn3        2.11671   0.00179   0.00508   0.01258   0.01767   2.13437
   rn4        1.63631  -0.00047   0.02549   0.00290   0.02839   1.66470
   rch        2.03851  -0.00043  -0.00004  -0.00084  -0.00089   2.03763
   rnh        1.90188  -0.00036  -0.00012  -0.00046  -0.00058   1.90129
   an1        1.20343  -0.00770   0.00994   0.00242   0.01236   1.21579
   an2        2.21956   0.00077   0.02040   0.00689   0.02728   2.24685
   an3        3.25496   0.00703   0.02518   0.00679   0.03197   3.28694
   an4        4.73678  -0.00489   0.01238  -0.00130   0.01108   4.74786
   ach        2.17829  -0.00050  -0.00021   0.00055   0.00034   2.17864
   anh        2.10134   0.00044   0.00060  -0.00021   0.00040   2.10173
         Item               Value     Threshold  Converged?
 Maximum Force            0.007701     0.000450     NO 
 RMS     Force            0.003467     0.000300     NO 
 Maximum Displacement     0.032730     0.001800     NO 
 RMS     Displacement     0.019717     0.001200     NO 
 Predicted change in Energy=-3.488280D-05
 GradGradGradGradGradGradGradGradGradGradGradGradGradGradGradGradGradGrad

 ---------------------------------------------------------------------------------------------------
                            Z-MATRIX (ANGSTROMS AND DEGREES)
   CD    Cent   Atom    N1       Length/X        N2       Alpha/Y        N3        Beta/Z          J
 ---------------------------------------------------------------------------------------------------
      1         X 
      2         X        1   1.000000(     1)
      3      1  C        1   1.000000(     2)      2   90.000(     9)
      4      2  N        1   1.304014(     3)      2   90.000(    10)      3   69.660(    16)      0
      5      3  N        1   1.404248(     4)      2   90.000(    11)      3  128.735(    17)      0
      6      4  N        1   1.129461(     5)      2   90.000(    12)      3  188.328(    18)      0
      7      5  N        1   0.880923(     6)      2   90.000(    13)      3  272.033(    19)      0
      8      6  H        3   1.078265(     7)      4  124.827(    14)      5  180.000(    20)      0
      9      7  H        4   1.006121(     8)      5  120.421(    15)      6  180.000(    21)      0
 ---------------------------------------------------------------------------------------------------
                         Z-Matrix orientation:                         
 ---------------------------------------------------------------------
 Center     Atomic      Atomic             Coordinates (Angstroms)
 Number     Number       Type             X           Y           Z
 ---------------------------------------------------------------------
      1         -1           0        0.000000    0.000000    0.000000
      2         -1           0        0.000000    0.000000    1.000000
      3          6           0        1.000000    0.000000    0.000000
      4          7           0        0.453267   -1.222702    0.000000
      5          7           0       -0.878664   -1.095383    0.000000
      6          7           0       -1.117552    0.163583    0.000000
      7          7           0        0.031244    0.880369    0.000000
      8          1           0        2.059395    0.200842    0.000000
      9          1           0        0.877839   -2.134852    0.000000
 ---------------------------------------------------------------------
                    Distance matrix (angstroms):
                    1          2          3          4          5
     1  X    0.000000
     2  X    1.000000   0.000000
     3  C    1.000000   1.414214   0.000000
     4  N    1.304014   1.643305   1.339372   0.000000
     5  N    1.404248   1.723924   2.174682   1.338003   0.000000
     6  N    1.129461   1.508537   2.123862   2.095056   1.281430
     7  N    0.880923   1.332676   1.309021   2.144996   2.175207
     8  H    2.069165   2.298139   1.078265   2.146188   3.211291
     9  H    2.308289   2.515591   2.138345   1.006121   2.041029
                    6          7          8          9
     6  N    0.000000
     7  N    1.354073   0.000000
     8  H    3.177166   2.138961   0.000000
     9  H    3.043746   3.131817   2.617545   0.000000
 Stoichiometry    CH2N4
 Framework group  CS[SG(CH2N4)]
 Deg. of freedom    11
 Full point group                 CS      NOp   2
 Largest Abelian subgroup         CS      NOp   2
 Largest concise Abelian subgroup C1      NOp   1
                         Standard orientation:                         
 ---------------------------------------------------------------------
 Center     Atomic      Atomic             Coordinates (Angstroms)
 Number     Number       Type             X           Y           Z
 ---------------------------------------------------------------------
      1          6           0        1.063058    0.232920    0.000000
      2          7           0        0.000000    1.047674    0.000000
      3          7           0       -1.110546    0.301391    0.000000
      4          7           0       -0.721022   -0.919401    0.000000
      5          7           0        0.630495   -1.002566    0.000000
      6          1           0        2.090246    0.560853    0.000000
      7          1           0       -0.061080    2.051940    0.000000
 ---------------------------------------------------------------------
 Rotational constants (GHZ):     10.6406019     10.4849306      5.2810963
 Standard basis: 6-31G(2df,p) (6D, 7F)
 There are   113 symmetry adapted cartesian basis functions of A'  symmetry.
 There are    52 symmetry adapted cartesian basis functions of A"  symmetry.
 There are   103 symmetry adapted basis functions of A'  symmetry.
 There are    47 symmetry adapted basis functions of A"  symmetry.
   150 basis functions,   234 primitive gaussians,   165 cartesian basis functions
    18 alpha electrons       18 beta electrons
       nuclear repulsion energy       167.7118157188 Hartrees.
 NAtoms=    7 NActive=    7 NUniq=    7 SFac= 1.00D+00 NAtFMM=   60 NAOKFM=F Big=F
 Integral buffers will be    131072 words long.
 Raffenetti 2 integral format.
 Two-electron integral symmetry is turned on.
 One-electron integrals computed using PRISM.
 NBasis=   150 RedAO= T EigKep=  2.90D-04  NBF=   103    47
 NBsUse=   150 1.00D-06 EigRej= -1.00D+00 NBFU=   103    47
 Initial guess from the checkpoint file:  "/tmp/rdj3/g09-23219/Gau-22913.chk"
 B after Tr=     0.000000    0.000000    0.000000
         Rot=    0.999999    0.000000    0.000000   -0.001174 Ang=  -0.13 deg.
 Initial guess orbital symmetries:
       Occupied  (A') (A') (A') (A') (A') (A') (A') (A') (A') (A')
                 (A') (A") (A') (A') (A") (A") (A') (A')
       Virtual   (A') (A') (A') (A') (A') (A') (A') (A') (A') (A')
                 (A') (A') (A') (A') (A') (A') (A') (A') (A') (A')
                 (A') (A') (A') (A') (A') (A') (A') (A') (A') (A')
                 (A') (A') (A') (A') (A') (A') (A') (A') (A') (A')
                 (A') (A') (A') (A') (A') (A') (A') (A') (A') (A')
                 (A') (A') (A') (A') (A') (A') (A') (A') (A') (A')
                 (A') (A') (A') (A') (A') (A') (A') (A') (A') (A')
                 (A') (A') (A') (A') (A') (A') (A') (A') (A') (A')
                 (A') (A') (A') (A') (A') (A') (A') (A') (A") (A")
                 (A") (A") (A") (A") (A") (A") (A") (A") (A") (A")
                 (A") (A") (A") (A") (A") (A") (A") (A") (A") (A")
                 (A") (A") (A") (A") (A") (A") (A") (A") (A") (A")
                 (A") (A") (A") (A") (A") (A") (A") (A") (A") (A")
                 (A") (A")
 ExpMin= 1.61D-01 ExpMax= 4.17D+03 ExpMxC= 6.27D+02 IAcc=1 IRadAn=         1 AccDes= 0.00D+00
 Harris functional with IExCor= 1009 and IRadAn=       1 diagonalized for initial guess.
 HarFok:  IExCor= 1009 AccDes= 0.00D+00 IRadAn=         1 IDoV= 1 UseB2=F ITyADJ=14
 ICtDFT=  3500011 ScaDFX=  1.000000  1.000000  1.000000  1.000000
 FoFCou: FMM=F IPFlag=           0 FMFlag=      100000 FMFlg1=           0
         NFxFlg=           0 DoJE=T BraDBF=F KetDBF=T FulRan=T
         wScrn=  0.000000 ICntrl=     500 IOpCl=  0 I1Cent=   200000004 NGrid=           0
         NMat0=    1 NMatS0=      1 NMatT0=    0 NMatD0=    1 NMtDS0=    0 NMtDT0=    0
 Petite list used in FoFCou.
 Keep R1 ints in memory in symmetry-blocked form, NReq=193883337.
 Requested convergence on RMS density matrix=1.00D-08 within 128 cycles.
 Requested convergence on MAX density matrix=1.00D-06.
 Requested convergence on             energy=1.00D-06.
 No special actions if energy rises.
 Integral accuracy reduced to 1.0D-05 until final iterations.
 Initial convergence to 1.0D-05 achieved.  Increase integral accuracy.
 SCF Done:  E(RHSEH1PBE) =  -258.010680250     A.U. after   11 cycles
            NFock= 11  Conv=0.20D-08     -V/T= 2.0061
 Calling FoFJK, ICntrl=      2127 FMM=F ISym2X=1 I1Cent= 0 IOpClX= 0 NMat=1 NMatS=1 NMatT=0.
 ***** Axes restored to original set *****
 -------------------------------------------------------------------
 Center     Atomic                   Forces (Hartrees/Bohr)
 Number     Number              X              Y              Z
 -------------------------------------------------------------------
      1        6          -0.000956237   -0.001071868    0.000000000
      2        7          -0.000337304    0.000355882    0.000000000
      3        7           0.000365254   -0.002173723    0.000000000
      4        7           0.003096509    0.001674164    0.000000000
      5        7          -0.001780982    0.001131374    0.000000000
      6        1          -0.000215841    0.000083813    0.000000000
      7        1          -0.000171400    0.000000359    0.000000000
 -------------------------------------------------------------------
 Cartesian Forces:  Max     0.003096509 RMS     0.001071009
 -----------------------------------------------------------------------------------------------
                       Internal Coordinate Forces (Hartree/Bohr or radian)
  Cent   Atom   N1       Length/X         N2         Alpha/Y        N3         Beta/Z          J
 -----------------------------------------------------------------------------------------------
         X 
         X        1   0.000000(     1)
      1  C        1  -0.001262(     2)      2   0.000000(     9)
      2  N        1  -0.000337(     3)      2   0.000000(    10)      3   0.000822(    16)     0
      3  N        1   0.001369(     4)      2   0.000000(    11)      3  -0.004195(    17)     0
      4  N        1  -0.002821(     5)      2   0.000000(    12)      3   0.004493(    18)     0
      5  N        1   0.001067(     6)      2   0.000000(    13)      3  -0.003030(    19)     0
      6  H        3  -0.000196(     7)      4   0.000250(    14)      5   0.000000(    20)     0
      7  H        4  -0.000073(     8)      5  -0.000295(    15)      6   0.000000(    21)     0
 -----------------------------------------------------------------------------------------------
 Internal  Forces:  Max     0.004492827 RMS     0.001697573

 GradGradGradGradGradGradGradGradGradGradGradGradGradGradGradGradGradGrad
 Berny optimization.
 Search for a local minimum.
 Step number   4 out of a maximum of   22
 All quantities printed in internal units (Hartrees-Bohrs-Radians)
 Update second derivatives using D2CorN and points    1    2    3    4
 DE= -1.80D-05 DEPred=-3.49D-05 R= 5.16D-01
 TightC=F SS=  1.41D+00  RLast= 6.83D-02 DXNew= 8.4853D-01 2.0490D-01
 Trust test= 5.16D-01 RLast= 6.83D-02 DXMaxT set to 5.05D-01
 The second derivative matrix:
                          rn1       rn2       rn3       rn4       rch
           rn1          0.66041
           rn2          0.01937   0.65364
           rn3          0.03693   0.03749   0.58357
           rn4          0.05357   0.01439   0.14359   0.63793
           rch          0.00808  -0.00862  -0.00133   0.00241   0.37688
           rnh          0.00885  -0.01042  -0.00234   0.00194   0.00161
           an1          0.04231  -0.72616   0.05866  -0.08525   0.00901
           an2          0.72904  -0.27310  -0.65439   0.09869   0.02349
           an3         -0.04245   0.99207   0.00622  -0.62641  -0.02484
           an4          0.05142  -0.01405   0.67857  -0.09407   0.00413
           ach          0.04521   0.00398   0.00083   0.04959   0.00012
           anh         -0.10462   0.05333   0.00122   0.00110  -0.00022
                          rnh       an1       an2       an3       an4
           rnh          0.48877
           an1          0.00980   4.52764
           an2          0.02607  -2.67803   6.05071
           an3         -0.02805  -0.05518  -3.18352   4.45944
           an4          0.00503  -0.13133  -0.07342  -1.14196   2.57625
           ach          0.00020  -0.10707  -0.00664   0.00461   0.07153
           anh         -0.00016   0.03422  -0.09271   0.00533  -0.00032
                          ach       anh
           ach          0.31984
           anh         -0.00004   0.32005
 ITU=  1  1  1  0
     Eigenvalues ---    0.00147   0.13058   0.26789   0.33027   0.37655
     Eigenvalues ---    0.39749   0.48849   0.76218   1.20740   2.99288
     Eigenvalues ---    5.07556   9.62437
 RFO step:  Lambda=-1.94046779D-05 EMin= 1.46559115D-03
 Quartic linear search produced a step of -0.31540.
 Variable       Old X    -DE/DX   Delta X   Delta X   Delta X     New X
                                 (Linear)    (Quad)   (Total)
   rn1        2.46423  -0.00034   0.01032  -0.02006  -0.00974   2.45449
   rn2        2.65365   0.00137   0.00655  -0.01665  -0.01009   2.64355
   rn3        2.13437  -0.00282  -0.00557  -0.00334  -0.00891   2.12546
   rn4        1.66470   0.00107  -0.00895   0.02715   0.01819   1.68289
   rch        2.03763  -0.00020   0.00028  -0.00065  -0.00037   2.03725
   rnh        1.90129  -0.00007   0.00018  -0.00026  -0.00008   1.90121
   an1        1.21579   0.00082  -0.00390   0.00800   0.00410   1.21989
   an2        2.24685  -0.00420  -0.00861   0.01644   0.00784   2.25469
   an3        3.28694   0.00449  -0.01008   0.02345   0.01336   3.30030
   an4        4.74786  -0.00303  -0.00350   0.01208   0.00858   4.75645
   ach        2.17864   0.00025  -0.00011  -0.00113  -0.00124   2.17739
   anh        2.10173  -0.00030  -0.00013  -0.00054  -0.00066   2.10107
         Item               Value     Threshold  Converged?
 Maximum Force            0.004493     0.000450     NO 
 RMS     Force            0.002216     0.000300     NO 
 Maximum Displacement     0.018191     0.001800     NO 
 RMS     Displacement     0.008849     0.001200     NO 
 Predicted change in Energy=-2.392736D-05
 GradGradGradGradGradGradGradGradGradGradGradGradGradGradGradGradGradGrad

 ---------------------------------------------------------------------------------------------------
                            Z-MATRIX (ANGSTROMS AND DEGREES)
   CD    Cent   Atom    N1       Length/X        N2       Alpha/Y        N3        Beta/Z          J
 ---------------------------------------------------------------------------------------------------
      1         X 
      2         X        1   1.000000(     1)
      3      1  C        1   1.000000(     2)      2   90.000(     9)
      4      2  N        1   1.298862(     3)      2   90.000(    10)      3   69.895(    16)      0
      5      3  N        1   1.398907(     4)      2   90.000(    11)      3  129.184(    17)      0
      6      4  N        1   1.124745(     5)      2   90.000(    12)      3  189.093(    18)      0
      7      5  N        1   0.890549(     6)      2   90.000(    13)      3  272.524(    19)      0
      8      6  H        3   1.078068(     7)      4  124.755(    14)      5  180.000(    20)      0
      9      7  H        4   1.006079(     8)      5  120.383(    15)      6  180.000(    21)      0
 ---------------------------------------------------------------------------------------------------
                         Z-Matrix orientation:                         
 ---------------------------------------------------------------------
 Center     Atomic      Atomic             Coordinates (Angstroms)
 Number     Number       Type             X           Y           Z
 ---------------------------------------------------------------------
      1         -1           0        0.000000    0.000000    0.000000
      2         -1           0        0.000000    0.000000    1.000000
      3          6           0        1.000000    0.000000    0.000000
      4          7           0        0.446477   -1.219713    0.000000
      5          7           0       -0.883849   -1.084321    0.000000
      6          7           0       -1.110610    0.177754    0.000000
      7          7           0        0.039223    0.889685    0.000000
      8          1           0        2.060539    0.193618    0.000000
      9          1           0        0.864833   -2.134685    0.000000
 ---------------------------------------------------------------------
                    Distance matrix (angstroms):
                    1          2          3          4          5
     1  X    0.000000
     2  X    1.000000   0.000000
     3  C    1.000000   1.414214   0.000000
     4  N    1.298862   1.639220   1.339436   0.000000
     5  N    1.398907   1.719576   2.173624   1.337198   0.000000
     6  N    1.124745   1.505009   2.118082   2.092232   1.282285
     7  N    0.890549   1.339058   1.309439   2.148352   2.179165
     8  H    2.069615   2.298545   1.078068   2.145390   3.209758
     9  H    2.303218   2.510939   2.138960   1.006079   2.039890
                    6          7          8          9
     6  N    0.000000
     7  N    1.352391   0.000000
     8  H    3.171189   2.137809   0.000000
     9  H    3.041340   3.135034   2.617385   0.000000
 Stoichiometry    CH2N4
 Framework group  CS[SG(CH2N4)]
 Deg. of freedom    11
 Full point group                 CS      NOp   2
 Largest Abelian subgroup         CS      NOp   2
 Largest concise Abelian subgroup C1      NOp   1
                         Standard orientation:                         
 ---------------------------------------------------------------------
 Center     Atomic      Atomic             Coordinates (Angstroms)
 Number     Number       Type             X           Y           Z
 ---------------------------------------------------------------------
      1          6           0        1.061287    0.230810    0.000000
      2          7           0        0.000000    1.047974    0.000000
      3          7           0       -1.111105    0.303968    0.000000
      4          7           0       -0.718913   -0.916867    0.000000
      5          7           0        0.630554   -1.005758    0.000000
      6          1           0        2.088611    0.557666    0.000000
      7          1           0       -0.060087    2.052257    0.000000
 ---------------------------------------------------------------------
 Rotational constants (GHZ):     10.6732798     10.4609167      5.2830157
 Standard basis: 6-31G(2df,p) (6D, 7F)
 There are   113 symmetry adapted cartesian basis functions of A'  symmetry.
 There are    52 symmetry adapted cartesian basis functions of A"  symmetry.
 There are   103 symmetry adapted basis functions of A'  symmetry.
 There are    47 symmetry adapted basis functions of A"  symmetry.
   150 basis functions,   234 primitive gaussians,   165 cartesian basis functions
    18 alpha electrons       18 beta electrons
       nuclear repulsion energy       167.7426584155 Hartrees.
 NAtoms=    7 NActive=    7 NUniq=    7 SFac= 1.00D+00 NAtFMM=   60 NAOKFM=F Big=F
 Integral buffers will be    131072 words long.
 Raffenetti 2 integral format.
 Two-electron integral symmetry is turned on.
 One-electron integrals computed using PRISM.
 NBasis=   150 RedAO= T EigKep=  2.90D-04  NBF=   103    47
 NBsUse=   150 1.00D-06 EigRej= -1.00D+00 NBFU=   103    47
 Initial guess from the checkpoint file:  "/tmp/rdj3/g09-23219/Gau-22913.chk"
 B after Tr=     0.000000    0.000000    0.000000
         Rot=    1.000000    0.000000    0.000000    0.000483 Ang=   0.06 deg.
 Initial guess orbital symmetries:
       Occupied  (A') (A') (A') (A') (A') (A') (A') (A') (A') (A')
                 (A') (A") (A') (A') (A") (A") (A') (A')
       Virtual   (A') (A') (A') (A') (A') (A') (A') (A') (A') (A')
                 (A') (A') (A') (A') (A') (A') (A') (A') (A') (A')
                 (A') (A') (A') (A') (A') (A') (A') (A') (A') (A')
                 (A') (A') (A') (A') (A') (A') (A') (A') (A') (A')
                 (A') (A') (A') (A') (A') (A') (A') (A') (A') (A')
                 (A') (A') (A') (A') (A') (A') (A') (A') (A') (A')
                 (A') (A') (A') (A') (A') (A') (A') (A') (A') (A')
                 (A') (A') (A') (A') (A') (A') (A') (A') (A') (A')
                 (A') (A') (A') (A') (A') (A') (A') (A') (A") (A")
                 (A") (A") (A") (A") (A") (A") (A") (A") (A") (A")
                 (A") (A") (A") (A") (A") (A") (A") (A") (A") (A")
                 (A") (A") (A") (A") (A") (A") (A") (A") (A") (A")
                 (A") (A") (A") (A") (A") (A") (A") (A") (A") (A")
                 (A") (A")
 Keep R1 ints in memory in symmetry-blocked form, NReq=193883337.
 Requested convergence on RMS density matrix=1.00D-08 within 128 cycles.
 Requested convergence on MAX density matrix=1.00D-06.
 Requested convergence on             energy=1.00D-06.
 No special actions if energy rises.
 SCF Done:  E(RHSEH1PBE) =  -258.010688075     A.U. after    9 cycles
            NFock=  9  Conv=0.34D-08     -V/T= 2.0061
 Calling FoFJK, ICntrl=      2127 FMM=F ISym2X=1 I1Cent= 0 IOpClX= 0 NMat=1 NMatS=1 NMatT=0.
 ***** Axes restored to original set *****
 -------------------------------------------------------------------
 Center     Atomic                   Forces (Hartrees/Bohr)
 Number     Number              X              Y              Z
 -------------------------------------------------------------------
      1        6           0.001098807   -0.000860406    0.000000000
      2        7           0.000408686    0.000766081    0.000000000
      3        7           0.000606898    0.000039309    0.000000000
      4        7          -0.001114074    0.001793463    0.000000000
      5        7          -0.001171262   -0.001800000    0.000000000
      6        1           0.000042405   -0.000033995    0.000000000
      7        1           0.000128540    0.000095548    0.000000000
 -------------------------------------------------------------------
 Cartesian Forces:  Max     0.001800000 RMS     0.000761251
 -----------------------------------------------------------------------------------------------
                       Internal Coordinate Forces (Hartree/Bohr or radian)
  Cent   Atom   N1       Length/X         N2         Alpha/Y        N3         Beta/Z          J
 -----------------------------------------------------------------------------------------------
         X 
         X        1   0.000000(     1)
      1  C        1   0.001171(     2)      2   0.000000(     9)
      2  N        1  -0.000754(     3)      2   0.000000(    10)      3  -0.002034(    16)     0
      3  N        1  -0.000316(     4)      2   0.000000(    11)      3  -0.001349(    17)     0
      4  N        1   0.001384(     5)      2   0.000000(    12)      3   0.003390(    18)     0
      5  N        1  -0.001850(     6)      2   0.000000(    13)      3  -0.001836(    19)     0
      6  H        3   0.000036(     7)      4  -0.000084(    14)      5   0.000000(    20)     0
      7  H        4  -0.000033(     8)      5   0.000298(    15)      6   0.000000(    21)     0
 -----------------------------------------------------------------------------------------------
 Internal  Forces:  Max     0.003389805 RMS     0.001160693

 GradGradGradGradGradGradGradGradGradGradGradGradGradGradGradGradGradGrad
 Berny optimization.
 Search for a local minimum.
 Step number   5 out of a maximum of   22
 All quantities printed in internal units (Hartrees-Bohrs-Radians)
 Update second derivatives using D2CorN and points    1    2    3    4    5

 DE= -7.82D-06 DEPred=-2.39D-05 R= 3.27D-01
 Trust test= 3.27D-01 RLast= 3.07D-02 DXMaxT set to 5.05D-01
 The second derivative matrix:
                          rn1       rn2       rn3       rn4       rch
           rn1          0.65219
           rn2          0.01209   0.64150
           rn3          0.04824   0.04828   0.60043
           rn4          0.04918   0.00759   0.11729   0.68110
           rch          0.00902  -0.00848   0.00022   0.00157   0.37718
           rnh          0.00939  -0.01106  -0.00126   0.00237   0.00189
           an1          0.03092  -0.73655   0.04567  -0.05644   0.00870
           an2          0.73164  -0.26420  -0.66202   0.11937   0.02520
           an3         -0.02286   1.00224  -0.00479  -0.64219  -0.02734
           an4          0.04772  -0.01218   0.66588  -0.06810   0.00453
           ach          0.04372   0.00281   0.00102   0.04949   0.00002
           anh         -0.10274   0.05575   0.00285  -0.00324  -0.00014
                          rnh       an1       an2       an3       an4
           rnh          0.48903
           an1          0.01016   4.53901
           an2          0.02907  -2.66565   6.05444
           an3         -0.03106  -0.04404  -3.19095   4.41657
           an4          0.00663  -0.11800  -0.06805  -1.14044   2.58457
           ach          0.00006  -0.10823  -0.00730   0.00846   0.07079
           anh         -0.00014   0.03245  -0.09589   0.00467  -0.00337
                          ach       anh
           ach          0.31974
           anh          0.00017   0.32023
 ITU=  0  1  1  1  0
     Eigenvalues ---   -0.00364   0.14051   0.28184   0.33565   0.37681
     Eigenvalues ---    0.40204   0.48869   0.76499   1.20679   2.99294
     Eigenvalues ---    5.06912   9.62026
 RFO step:  Lambda=-3.64579018D-03 EMin=-3.64264603D-03
 I=     1 Eig=   -3.64D-03 Dot1=  6.42D-05
 I=     1 Stepn=  6.00D-01 RXN=   6.00D-01 EDone=F
 Mixed    1 eigenvectors in step.  Raw Step.Grad=  6.42D-05.
 RFO eigenvector is Hessian eigenvector with negative curvature.
 Taking step of  6.00D-01 in eigenvector direction(s).  Step.Grad=  4.39D-04.
 Quartic linear search produced a step of -0.36993.
 Maximum step size (   0.505) exceeded in Quadratic search.
    -- Step size scaled by   0.841
 Variable       Old X    -DE/DX   Delta X   Delta X   Delta X     New X
                                 (Linear)    (Quad)   (Total)
   rn1        2.45449  -0.00075   0.00360  -0.23448  -0.23088   2.22361
   rn2        2.64355  -0.00032   0.00373  -0.19203  -0.18829   2.45526
   rn3        2.12546   0.00138   0.00330   0.08729   0.09058   2.21604
   rn4        1.68289  -0.00185  -0.00673   0.21026   0.20353   1.88643
[...]
 XXXZ=              0.0000 YYYX=             -0.4980 YYYZ=              0.0000 ZZZX=              0.0000
 ZZZY=              0.0000 XXYY=            -51.9770 XXZZ=            -29.3775 YYZZ=            -27.7345
 XXYZ=              0.0000 YYXZ=              0.0000 ZZXY=             -0.1364
 N-N= 1.677629675821D+02 E-N=-9.378809843029D+02  KE= 2.564436192485D+02
 Symmetry A'   KE= 2.470873649120D+02
 Symmetry A"   KE= 9.356254336512D+00
  Exact polarizability:  38.639   0.928  37.854   0.000   0.000  18.421
 Approx polarizability:  68.877   0.415  72.268   0.000   0.000  29.825
 Calling FoFJK, ICntrl=    100127 FMM=F ISym2X=1 I1Cent= 0 IOpClX= 0 NMat=1 NMatS=1 NMatT=0.
 Full mass-weighted force constant matrix:
 Low frequencies ---  -12.1034   -6.7690   -3.7680    0.0006    0.0010    0.0011
 Low frequencies ---  607.3955  703.5143  756.8694
 Diagonal vibrational polarizability:
        1.1479647       1.0181037       6.9880456
 Harmonic frequencies (cm**-1), IR intensities (KM/Mole), Raman scattering
 activities (A**4/AMU), depolarization ratios for plane and unpolarized
 incident light, reduced masses (AMU), force constants (mDyne/A),
 and normal coordinates:
                      1                      2                      3
                     A"                     A"                     A"
 Frequencies --    607.3955               703.5143               756.8694
 Red. masses --      1.7042                 2.0179                 8.3314
 Frc consts  --      0.3704                 0.5884                 2.8120
 IR Inten    --     78.7185                 7.1409                 8.0595
  Atom  AN      X      Y      Z        X      Y      Z        X      Y      Z
     1   6     0.00   0.00  -0.08     0.00   0.00   0.18     0.00   0.00  -0.09
     2   7     0.00   0.00   0.20     0.00   0.00  -0.10     0.00   0.00  -0.13
     3   7     0.00   0.00  -0.08     0.00   0.00   0.10     0.00   0.00   0.43
     4   7     0.00   0.00   0.00     0.00   0.00   0.04     0.00   0.00  -0.50
     5   7     0.00   0.00   0.02     0.00   0.00  -0.17     0.00   0.00   0.33
     6   1     0.00   0.00  -0.23     0.00   0.00   0.54     0.00   0.00  -0.11
     7   1     0.00   0.00  -0.95     0.00   0.00  -0.79     0.00   0.00  -0.65
                      4                      5                      6
                     A"                     A'                     A'
 Frequencies --    873.7521               995.2140              1029.3352
 Red. masses --      1.3784                 4.1296                 5.2446
 Frc consts  --      0.6200                 2.4099                 3.2740
 IR Inten    --     13.5918                 3.2646                 2.2094
  Atom  AN      X      Y      Z        X      Y      Z        X      Y      Z
     1   6     0.00   0.00   0.18     0.15   0.11   0.00    -0.29  -0.05   0.00
     2   7     0.00   0.00  -0.03     0.08   0.00   0.00     0.02   0.40   0.00
     3   7     0.00   0.00   0.00     0.12  -0.13   0.00     0.15  -0.09   0.00
     4   7     0.00   0.00  -0.02    -0.04  -0.16   0.00     0.15  -0.09   0.00
     5   7     0.00   0.00  -0.03    -0.29   0.25   0.00    -0.06  -0.16   0.00
     6   1     0.00   0.00  -0.98     0.38  -0.61   0.00    -0.11  -0.69   0.00
     7   1     0.00   0.00  -0.05    -0.48  -0.04   0.00    -0.05   0.41   0.00
                      7                      8                      9
                     A'                     A'                     A'
 Frequencies --   1098.0850              1109.1918              1165.5680
 Red. masses --      2.9674                 4.7389                 2.0601
 Frc consts  --      2.1082                 3.4351                 1.6490
 IR Inten    --     28.5013                20.2048                11.0047
  Atom  AN      X      Y      Z        X      Y      Z        X      Y      Z
     1   6    -0.04  -0.01   0.00    -0.14   0.06   0.00     0.07  -0.10   0.00
     2   7    -0.14  -0.08   0.00     0.02  -0.17   0.00    -0.15  -0.04   0.00
     3   7     0.31   0.14   0.00    -0.03   0.08   0.00    -0.06   0.06   0.00
     4   7    -0.02  -0.02   0.00     0.38   0.01   0.00     0.15   0.13   0.00
     5   7    -0.05  -0.06   0.00    -0.29   0.01   0.00     0.02   0.00   0.00
     6   1    -0.22   0.51   0.00    -0.25   0.35   0.00     0.28  -0.77   0.00
     7   1    -0.73  -0.12   0.00     0.71  -0.14   0.00    -0.49  -0.06   0.00
                     10                     11                     12
                     A'                     A'                     A'
 Frequencies --   1289.7835              1338.8849              1485.7985
 Red. masses --      2.5894                10.4255                 3.4042
 Frc consts  --      2.5379                11.0112                 4.4277
 IR Inten    --      1.5337                14.6436                 8.3593
  Atom  AN      X      Y      Z        X      Y      Z        X      Y      Z
     1   6     0.18   0.03   0.00     0.26   0.08   0.00    -0.19   0.25   0.00
     2   7     0.07   0.11   0.00    -0.15   0.14   0.00     0.22  -0.14   0.00
     3   7    -0.12  -0.08   0.00    -0.19   0.49   0.00    -0.07   0.10   0.00
     4   7     0.06   0.07   0.00     0.04  -0.57   0.00    -0.01  -0.02   0.00
     5   7    -0.12  -0.18   0.00     0.02  -0.13   0.00     0.07  -0.10   0.00
     6   1     0.01   0.64   0.00     0.37  -0.09   0.00     0.01  -0.48   0.00
     7   1    -0.67   0.08   0.00     0.28   0.21   0.00    -0.72  -0.22   0.00
                     13                     14                     15
                     A'                     A'                     A'
 Frequencies --   1532.1979              3309.5424              3701.0636
 Red. masses --      3.6855                 1.1012                 1.0836
 Frc consts  --      5.0978                 7.1067                 8.7452
 IR Inten    --     16.3175                 1.3733                95.8134
  Atom  AN      X      Y      Z        X      Y      Z        X      Y      Z
     1   6     0.11   0.32   0.00     0.09   0.03   0.00     0.00   0.00   0.00
     2   7    -0.16  -0.04   0.00     0.00   0.00   0.00    -0.01   0.08   0.00
     3   7     0.11  -0.08   0.00     0.00   0.00   0.00     0.00   0.00   0.00
     4   7    -0.06   0.10   0.00     0.00   0.00   0.00     0.00   0.00   0.00
     5   7    -0.05  -0.22   0.00     0.00   0.00   0.00     0.00   0.00   0.00
     6   1     0.37  -0.39   0.00    -0.95  -0.30   0.00    -0.02   0.00   0.00
     7   1     0.69   0.01   0.00     0.01   0.02   0.00     0.06  -0.99   0.00

 -------------------
 - Thermochemistry -
 -------------------
 Temperature   298.150 Kelvin.  Pressure   1.00000 Atm.
 Atom     1 has atomic number  6 and mass  12.00000
 Atom     2 has atomic number  7 and mass  14.00307
 Atom     3 has atomic number  7 and mass  14.00307
 Atom     4 has atomic number  7 and mass  14.00307
 Atom     5 has atomic number  7 and mass  14.00307
 Atom     6 has atomic number  1 and mass   1.00783
 Atom     7 has atomic number  1 and mass   1.00783
 Molecular mass:    70.02795 amu.
 Principal axes and moments of inertia in atomic units:
                           1         2         3
     Eigenvalues --   169.36758 172.14029 341.50787
           X            0.79333   0.60879   0.00000
           Y           -0.60879   0.79333   0.00000
           Z            0.00000   0.00000   1.00000
 This molecule is an asymmetric top.
 Rotational symmetry number  1.
 Rotational temperatures (Kelvin)      0.51140     0.50316     0.25362
 Rotational constants (GHZ):          10.65577    10.48413     5.28463
 Zero-point vibrational energy     125585.1 (Joules/Mol)
                                   30.01557 (Kcal/Mol)
 Warning -- explicit consideration of   1 degrees of freedom as
           vibrations may cause significant error
 Vibrational temperatures:    873.91  1012.20  1088.96  1257.13  1431.89
          (Kelvin)           1480.98  1579.90  1595.88  1676.99  1855.71
                             1926.35  2137.73  2204.49  4761.69  5325.00
 
 Zero-point correction=                           0.047833 (Hartree/Particle)
 Thermal correction to Energy=                    0.051254
 Thermal correction to Enthalpy=                  0.052198
 Thermal correction to Gibbs Free Energy=         0.021774
 Sum of electronic and zero-point Energies=           -257.962865
 Sum of electronic and thermal Energies=              -257.959445
 Sum of electronic and thermal Enthalpies=            -257.958501
 Sum of electronic and thermal Free Energies=         -257.988925
 
                     E (Thermal)             CV                S
                      KCal/Mol        Cal/Mol-Kelvin    Cal/Mol-Kelvin
 Total                   32.162             11.001             64.033
 Electronic               0.000              0.000              0.000
 Translational            0.889              2.981             38.656
 Rotational               0.889              2.981             23.814
 Vibrational             30.385              5.040              1.563
 Vibration     1          0.966              1.016              0.437
                       Q            Log10(Q)             Ln(Q)
 Total Bot       0.965552D-10        -10.015224        -23.060906
 Total V=0       0.968979D+12         11.986314         27.599509
 Vib (Bot)       0.117357D-21        -21.930490        -50.496819
 Vib (Bot)    1  0.243964D+00         -0.612674         -1.410733
 Vib (V=0)       0.117774D+01          0.071049          0.163596
 Vib (V=0)    1  0.105634D+01          0.023805          0.054814
 Electronic      0.100000D+01          0.000000          0.000000
 Translational   0.230336D+08          7.362362         16.952466
 Rotational      0.357193D+05          4.552903         10.483447
 ***** Axes restored to original set *****
 -------------------------------------------------------------------
 Center     Atomic                   Forces (Hartrees/Bohr)
 Number     Number              X              Y              Z
 -------------------------------------------------------------------
      1        6           0.000068196    0.000096045    0.000000000
      2        7          -0.000132681    0.000110299    0.000000000
      3        7          -0.000063050   -0.000165143    0.000000000
      4        7           0.000085483   -0.000038071    0.000000000
      5        7           0.000047520   -0.000026297    0.000000000
      6        1          -0.000000291    0.000005288    0.000000000
      7        1          -0.000005177    0.000017880    0.000000000
 -------------------------------------------------------------------
 Cartesian Forces:  Max     0.000165143 RMS     0.000064355
 -----------------------------------------------------------------------------------------------
                       Internal Coordinate Forces (Hartree/Bohr or radian)
  Cent   Atom   N1       Length/X         N2         Alpha/Y        N3         Beta/Z          J
 -----------------------------------------------------------------------------------------------
         X 
         X        1   0.000000(     1)
      1  C        1   0.000064(     2)      2   0.000000(     9)
      2  N        1  -0.000164(     3)      2   0.000000(    10)      3   0.000206(    16)     0
      3  N        1   0.000166(     4)      2   0.000000(    11)      3  -0.000171(    17)     0
      4  N        1  -0.000092(     5)      2   0.000000(    12)      3  -0.000037(    18)     0
      5  N        1  -0.000022(     6)      2   0.000000(    13)      3   0.000087(    19)     0
      6  H        3   0.000000(     7)      4   0.000011(    14)      5   0.000000(    20)     0
      7  H        4  -0.000019(     8)      5   0.000004(    15)      6   0.000000(    21)     0
 -----------------------------------------------------------------------------------------------
 Internal  Forces:  Max     0.000206225 RMS     0.000084047

 GradGradGradGradGradGradGradGradGradGradGradGradGradGradGradGradGradGrad
 Berny optimization.
 Search for a local minimum.
 Step number   1 out of a maximum of    2
 All quantities printed in internal units (Hartrees-Bohrs-Radians)
 Second derivative matrix not updated -- analytic derivatives used.
 The second derivative matrix:
                          rn1       rn2       rn3       rn4       rch
           rn1          0.61088
           rn2         -0.04311   0.61313
           rn3          0.07546  -0.01051   0.58070
           rn4          0.09892   0.08310   0.00682   0.57873
           rch         -0.00403  -0.00150   0.00077  -0.00448   0.38379
           rnh          0.01347  -0.00775   0.00016  -0.00002   0.00033
           an1          0.10561  -0.39344  -0.23114   0.14407   0.01319
           an2          0.27470  -0.12605  -0.41751  -0.17285   0.00184
           an3          0.24147   0.51370   0.19342  -0.27353  -0.00030
           an4         -0.13479   0.16685   0.31908  -0.15438  -0.01460
           ach          0.03605   0.01259  -0.01473   0.02919   0.00283
           anh         -0.05112   0.02096   0.02570  -0.02057  -0.00125
                          rnh       an1       an2       an3       an4
           rnh          0.48627
           an1         -0.01429   2.74673
           an2          0.01949  -1.17304   3.16401
           an3         -0.00206  -0.32579  -1.50771   2.37066
           an4         -0.00120  -0.24861  -0.24525  -0.36095   1.49316
           ach          0.00031   0.00058  -0.02085  -0.00625   0.08322
           anh         -0.00029  -0.04053  -0.01104   0.00817  -0.00378
                          ach       anh
           ach          0.21314
           anh          0.00077   0.21192
 ITU=  0
     Eigenvalues ---   -0.00005   0.16028   0.21001   0.27908   0.38401
     Eigenvalues ---    0.48546   0.63617   0.71849   0.83701   1.90708
     Eigenvalues ---    3.14487   4.69070
 Eigenvalue     1 is  -4.93D-05 should be greater than     0.000000 Eigenvector:
                          rn4       an3       rn1       an2       rn2
   1                    0.47126   0.46509  -0.44824   0.37406  -0.34827
                          an4       an1       rn3       anh       ach
   1                    0.22892   0.18745   0.10923   0.00031  -0.00027
 Quadratic step=5.590D-01 exceeds max=3.000D-01 adjusted using Lamda=-4.251D-05.
 Angle between NR and scaled steps=   0.04 degrees.
 Angle between quadratic step and forces=  85.76 degrees.
 Linear search not attempted -- first point.
 Variable       Old X    -DE/DX   Delta X   Delta X   Delta X     New X
                                 (Linear)    (Quad)   (Total)
   rn1        2.38120  -0.00016   0.00000   0.13433   0.13433   2.51554
   rn2        2.58586   0.00017   0.00000   0.10495   0.10495   2.69081
   rn3        2.14431  -0.00009   0.00000  -0.03283  -0.03283   2.11149
   rn4        1.75517  -0.00002   0.00000  -0.14159  -0.14159   1.61358
   rch        2.03718   0.00000   0.00000  -0.00002  -0.00002   2.03715
   rnh        1.90120  -0.00002   0.00000   0.00001   0.00001   1.90121
   an1        1.24919   0.00021   0.00000  -0.05615  -0.05615   1.19305
   an2        2.31374  -0.00017   0.00000  -0.11231  -0.11231   2.20143
   an3        3.37572  -0.00004   0.00000  -0.13970  -0.13970   3.23602
   an4        4.79103   0.00009   0.00000  -0.06873  -0.06873   4.72230
   ach        2.17910   0.00001   0.00000   0.00016   0.00016   2.17926
   anh        2.10110   0.00000   0.00000  -0.00015  -0.00015   2.10094
         Item               Value     Threshold  Converged?
 Maximum Force            0.000206     0.000450     YES
 RMS     Force            0.000110     0.000300     YES
 Maximum Displacement     0.141589     0.001800     NO 
 RMS     Displacement     0.086694     0.001200     NO 
 Predicted change in Energy=-1.057965D-05
 GradGradGradGradGradGradGradGradGradGradGradGradGradGradGradGradGradGrad

 1\1\GINC-N366\Freq\RHSEH1PBE\6-31G(2df,p)\C1H2N4\RDJ3\26-Nov-2013\1\\#
 N Geom=AllCheck Guess=TCheck SCRF=Check GenChk RHSEH1PBE/6-31G(2df,p) 
 Freq\\1H-tetrazole CH2N4 casno=288948 state=1 config=1 method=57 basis
 =19\\0,1\X\X,1,1.\C,1,1.,2,90.\N,1,rn1,2,90.,3,an1,0\N,1,rn2,2,90.,3,a
 n2,0\N,1,rn3,2,90.,3,an3,0\N,1,rn4,2,90.,3,an4,0\H,3,rch,4,ach,5,180.,
 0\H,4,rnh,5,anh,6,180.,0\\rn1=1.26007919\rn2=1.36837798\rn3=1.1347223\
 rn4=0.92879572\rch=1.07802722\rnh=1.0060731\an1=71.57344306\an2=132.56
 730508\an3=193.41423952\an4=274.50601067\ach=124.85330232\anh=120.3838
 8933\\Version=EM64L-G09RevD.01\State=1-A'\HF=-258.0106983\RMSD=4.711e-
 09\RMSF=6.436e-05\ZeroPoint=0.0478329\Thermal=0.0512535\Dipole=1.66115
 28,-1.2308121,0.\DipoleDeriv=0.2081432,0.0790404,0.,-0.0875119,0.41737
 91,0.,0.,0.,0.1050163,-0.2226701,0.273164,0.,0.2017843,-0.3038204,0.,0
 .,0.,-0.1181534,0.1055016,-0.3704642,0.,-0.2818116,-0.2108403,0.,0.,0.
 ,-0.1057808,0.0233268,0.1588862,0.,0.1958589,0.0041474,0.,0.,0.,-0.149
 7998,-0.3755879,-0.1183615,0.,-0.0196734,-0.3099805,0.,0.,0.,-0.210470
 1,0.0550429,0.0108681,0.,0.0079353,0.1176699,0.,0.,0.,0.1552076,0.2062
 436,-0.0331329,0.,-0.0165816,0.2854447,0.,0.,0.,0.3239802\Polar=39.216
 8879,-0.2699313,37.2761807,0.,0.,18.4205057\PG=CS [SG(C1H2N4)]\NImag=0
 \\0.97729344,0.02351286,0.63758805,0.,0.,0.14568659,-0.16826730,-0.082
 52821,0.,0.61431740,-0.11252570,-0.29711704,0.,-0.12034050,1.02611760,
 0.,0.,-0.06595992,0.,0.,0.09906574,-0.09455208,-0.09361676,0.,-0.25404
 429,-0.03131269,0.,0.48801699,0.00237513,-0.03016273,0.,0.00551382,-0.
 10587232,0.,0.06488630,0.61582865,0.,0.,0.02217210,0.,0.,-0.07296961,0
 .,0.,0.12081800,-0.12444161,0.07190362,0.,-0.08208378,0.03602020,0.,-0
 .11505892,0.00566029,0.,0.53649415,-0.03373182,0.03029410,0.,0.1177097
 6,-0.10145236,0.,0.06693392,-0.37029083,0.,-0.09517281,0.55982692,0.,0
 .,0.02005257,0.,0.,0.02820552,0.,0.,-0.10170495,0.,0.,0.13034451,-0.24
 571599,0.14048235,0.,0.01480449,0.09290554,0.,-0.02519108,-0.11606995,
 0.,-0.20131533,-0.06057936,0.,0.47151285,0.14806960,-0.27257747,0.,-0.
 02653035,-0.10325022,0.,-0.00616826,-0.10568578,0.,-0.02047227,-0.1181
 0465,0.,-0.07947996,0.59192459,0.,0.,-0.08210937,0.,0.,0.02225541,0.,0
 .,0.03741009,0.,0.,-0.09422241,0.,0.,0.11417238,-0.36068715,-0.0477430
 4,0.,-0.00241618,0.00333845,0.,0.00059462,0.00208904,0.,-0.00171786,0.
 00047619,0.,-0.01200308,-0.00553755,0.,0.37674233,-0.04389351,-0.06235
 175,0.,-0.03240162,0.00218448,0.,-0.00117138,-0.00685284,0.,0.00652366
 ,-0.00303296,0.,0.02285968,0.01179014,0.,0.04791189,0.05840566,0.,0.,-
 0.03092647,0.,0.,-0.00250086,0.,0.,0.00640785,0.,0.,0.00919419,0.,0.,-
 0.00497202,0.,0.,0.02374813,0.01637069,-0.01201082,0.,-0.12231033,0.13
 191469,0.,0.00023477,0.03554537,0.,-0.01187665,0.00436411,0.,-0.002091
 85,-0.00988121,0.,-0.00051268,0.00017126,0.,0.12018605,0.01619343,-0.0
 0567316,0.,0.13857709,-0.42061013,0.,0.00044888,0.00303586,0.,-0.00446
 270,0.00275977,0.,-0.00011831,-0.00409661,0.,-0.00053498,-0.00014273,0
 .,-0.15010341,0.42472700,0.,0.,-0.00891550,0.,0.,-0.00809629,0.,0.,-0.
 01213349,0.,0.,0.00813056,0.,0.,0.00746591,0.,0.,-0.00095082,0.,0.,0.0
 1449964\\-0.00006820,-0.00009604,0.,0.00013268,-0.00011030,0.,0.000063
 05,0.00016514,0.,-0.00008548,0.00003807,0.,-0.00004752,0.00002630,0.,0
 .00000029,-0.00000529,0.,0.00000518,-0.00001788,0.\\\@


 IT WAS A GAME, A VERY INTERESTING GAME ONE COULD
 PLAY.  WHENEVER ONE SOLVED ONE OF THE LITTLE PROBLEMS,
 ONE COULD WRITE A PAPER ABOUT IT.  IT WAS VERY EASY IN
 THOSE DAYS FOR ANY SECOND-RATE PHYSICIST TO DO
 FIRST-RATE WORK.  THERE HAS NOT BEEN SUCH A GLORIOUS
 TIME SINCE.  IT IS VERY DIFFICULT NOW FOR A FIRST-RATE
 PHYSICIST TO DO SECOND-RATE WORK.
     P.A.M. DIRAC, ON THE EARLY DAYS OF QUANTUM MECHANICS
                   DIRECTIONS IN PHYSICS, 1978, P. 7
 Job cpu time:       0 days  0 hours  8 minutes 39.7 seconds.
 File lengths (MBytes):  RWF=     21 Int=      0 D2E=      0 Chk=      3 Scr=      1
 Normal termination of Gaussian 09 at Tue Nov 26 10:20:50 2013.
