 Entering Gaussian System, Link 0=g09
 Initial command:
 /usr/local/gaussian/g09.d01.em64t.legacy.linda/g09/l1.exe "/tmp/rdj3/g09-23219/Gau-21231.inp" -scrdir="/tmp/rdj3/g09-23219/"
 Entering Link 1 = /usr/local/gaussian/g09.d01.em64t.legacy.linda/g09/l1.exe PID=     21232.
  
 Copyright (c) 1988,1990,1992,1993,1995,1998,2003,2009,2013,
            Gaussian, Inc.  All Rights Reserved.
  
 This is part of the Gaussian(R) 09 program.  It is based on
 the Gaussian(R) 03 system (copyright 2003, Gaussian, Inc.),
 the Gaussian(R) 98 system (copyright 1998, Gaussian, Inc.),
 the Gaussian(R) 94 system (copyright 1995, Gaussian, Inc.),
 the Gaussian 92(TM) system (copyright 1992, Gaussian, Inc.),
 the Gaussian 90(TM) system (copyright 1990, Gaussian, Inc.),
 the Gaussian 88(TM) system (copyright 1988, Gaussian, Inc.),
 the Gaussian 86(TM) system (copyright 1986, Carnegie Mellon
 University), and the Gaussian 82(TM) system (copyright 1983,
 Carnegie Mellon University). Gaussian is a federally registered
 trademark of Gaussian, Inc.
  
 This software contains proprietary and confidential information,
 including trade secrets, belonging to Gaussian, Inc.
  
 This software is provided under written license and may be
 used, copied, transmitted, or stored only in accord with that
 written license.
  
 The following legend is applicable only to US Government
 contracts under FAR:
  
                    RESTRICTED RIGHTS LEGEND
  
 Use, reproduction and disclosure by the US Government is
 subject to restrictions as set forth in subparagraphs (a)
 and (c) of the Commercial Computer Software - Restricted
 Rights clause in FAR 52.227-19.
  
 Gaussian, Inc.
 340 Quinnipiac St., Bldg. 40, Wallingford CT 06492
  
  
 ---------------------------------------------------------------
 Warning -- This program may not be used in any manner that
 competes with the business of Gaussian, Inc. or will provide
 assistance to any competitor of Gaussian, Inc.  The licensee
 of this program is prohibited from giving any competitor of
 Gaussian, Inc. access to this program.  By using this program,
 the user acknowledges that Gaussian, Inc. is engaged in the
 business of creating and licensing software in the field of
 computational chemistry and represents and warrants to the
 licensee that it is not a competitor of Gaussian, Inc. and that
 it will not use this program in any manner prohibited above.
 ---------------------------------------------------------------
  

 Cite this work as:
 Gaussian 09, Revision D.01,
 M. J. Frisch, G. W. Trucks, H. B. Schlegel, G. E. Scuseria, 
 M. A. Robb, J. R. Cheeseman, G. Scalmani, V. Barone, B. Mennucci, 
 G. A. Petersson, H. Nakatsuji, M. Caricato, X. Li, H. P. Hratchian, 
 A. F. Izmaylov, J. Bloino, G. Zheng, J. L. Sonnenberg, M. Hada, 
 M. Ehara, K. Toyota, R. Fukuda, J. Hasegawa, M. Ishida, T. Nakajima, 
 Y. Honda, O. Kitao, H. Nakai, T. Vreven, J. A. Montgomery, Jr., 
 J. E. Peralta, F. Ogliaro, M. Bearpark, J. J. Heyd, E. Brothers, 
 K. N. Kudin, V. N. Staroverov, T. Keith, R. Kobayashi, J. Normand, 
 K. Raghavachari, A. Rendell, J. C. Burant, S. S. Iyengar, J. Tomasi, 
 M. Cossi, N. Rega, J. M. Millam, M. Klene, J. E. Knox, J. B. Cross, 
 V. Bakken, C. Adamo, J. Jaramillo, R. Gomperts, R. E. Stratmann, 
 O. Yazyev, A. J. Austin, R. Cammi, C. Pomelli, J. W. Ochterski, 
 R. L. Martin, K. Morokuma, V. G. Zakrzewski, G. A. Voth, 
 P. Salvador, J. J. Dannenberg, S. Dapprich, A. D. Daniels, 
 O. Farkas, J. B. Foresman, J. V. Ortiz, J. Cioslowski, 
 and D. J. Fox, Gaussian, Inc., Wallingford CT, 2013.
 
 ******************************************
 Gaussian 09:  EM64L-G09RevD.01 24-Apr-2013
                26-Nov-2013 
 ******************************************
 %Nproc=8
 Will use up to    8 processors via shared memory.
 %mem=436000000
 ---------------------------------------
 #HSEh1PBE/aug-cc-pVTZ opt=z-matrix freq
 ---------------------------------------
 1/10=7,14=-1,18=40,26=3,38=1/1,3;
 2/12=2,17=6,18=5,29=3,40=1/2;
 3/5=16,6=1,7=10,11=2,16=1,25=1,30=1,71=1,74=-51/1,2,3;
 4//1;
 5/5=2,38=5/2;
 6/7=2,8=2,9=2,10=2,28=1/1;
 7/29=1/1,2,3,16;
 1/10=7,14=-1,18=40,26=3/3(2);
 2/29=3/2;
 99//99;
 2/29=3/2;
 3/5=16,6=1,7=10,11=2,16=1,25=1,30=1,71=1,74=-51/1,2,3;
 4/5=5,16=3,69=1/1;
 5/5=2,38=5/2;
 7//1,2,3,16;
 1/14=-1,18=40,26=3/3(-5);
 2/29=3/2;
 6/7=2,8=2,9=2,10=2,19=2,28=1/1;
 99/9=1/99;
 -------------------------------------------------------------------
 1H-tetrazole CH2N4 casno=288948 state=1 config=1 method=57 basis=18
 -------------------------------------------------------------------
 Symbolic Z-matrix:
 Charge =  0 Multiplicity = 1
 X
 X                    1     1. 
 C                    1     1.       2     90. 
 N                    1    rn1      2     90.      3    an1      0
 N                    1    rn2      2     90.      3    an2      0
 N                    1    rn3      2     90.      3    an3      0
 N                    1    rn4      2     90.      3    an4      0
 H                    3    rch      4    ach      5     180.     0
 H                    4    rnh      5    anh      6     180.     0
       Variables:
  rn1                   1.2426                   
  rn2                   1.333                    
  rn3                   1.1146                   
  rn4                   0.9264                   
  rch                   1.0678                   
  rnh                   0.9941                   
  an1                  71.8427                   
  an2                 133.7028                   
  an3                 194.4597                   
  an4                 276.0768                   
  ach                 125.0248                   
  anh                 120.7626                   
 

 GradGradGradGradGradGradGradGradGradGradGradGradGradGradGradGradGradGrad
 Berny optimization.
 Initialization pass.
                       ----------------------------
                       !    Initial Parameters    !
                       ! (Angstroms and Degrees)  !
 ----------------------                            ----------------------
 !      Name          Value   Derivative information (Atomic Units)     !
 ------------------------------------------------------------------------
 !       rn1         1.2426   estimate D2E/DX2                          !
 !       rn2         1.333    estimate D2E/DX2                          !
 !       rn3         1.1146   estimate D2E/DX2                          !
 !       rn4         0.9264   estimate D2E/DX2                          !
 !       rch         1.0678   estimate D2E/DX2                          !
 !       rnh         0.9941   estimate D2E/DX2                          !
 !       an1        71.8427   estimate D2E/DX2                          !
 !       an2       133.7028   estimate D2E/DX2                          !
 !       an3       194.4597   estimate D2E/DX2                          !
 !       an4       276.0768   estimate D2E/DX2                          !
 !       ach       125.0248   estimate D2E/DX2                          !
 !       anh       120.7626   estimate D2E/DX2                          !
 ------------------------------------------------------------------------
 Trust Radius=3.00D-01 FncErr=1.00D-07 GrdErr=1.00D-06
 Number of steps in this run=     22 maximum allowed number of steps=    100.
 GradGradGradGradGradGradGradGradGradGradGradGradGradGradGradGradGradGrad

 ---------------------------------------------------------------------------------------------------
                            Z-MATRIX (ANGSTROMS AND DEGREES)
   CD    Cent   Atom    N1       Length/X        N2       Alpha/Y        N3        Beta/Z          J
 ---------------------------------------------------------------------------------------------------
      1         X 
      2         X        1   1.000000(     1)
      3      1  C        1   1.000000(     2)      2   90.000(     9)
      4      2  N        1   1.242600(     3)      2   90.000(    10)      3   71.843(    16)      0
      5      3  N        1   1.333000(     4)      2   90.000(    11)      3  133.703(    17)      0
      6      4  N        1   1.114600(     5)      2   90.000(    12)      3  194.460(    18)      0
      7      5  N        1   0.926400(     6)      2   90.000(    13)      3  276.077(    19)      0
      8      6  H        3   1.067800(     7)      4  125.025(    14)      5  180.000(    20)      0
      9      7  H        4   0.994100(     8)      5  120.763(    15)      6  180.000(    21)      0
 ---------------------------------------------------------------------------------------------------
                         Z-Matrix orientation:                         
 ---------------------------------------------------------------------
 Center     Atomic      Atomic             Coordinates (Angstroms)
 Number     Number       Type             X           Y           Z
 ---------------------------------------------------------------------
      1         -1           0        0.000000    0.000000    0.000000
      2         -1           0        0.000000    0.000000    1.000000
      3          6           0        1.000000    0.000000    0.000000
      4          7           0        0.387228   -1.180724    0.000000
      5          7           0       -0.920993   -0.963670    0.000000
      6          7           0       -1.079293    0.278314    0.000000
      7          7           0        0.098070    0.921194    0.000000
      8          1           0        2.058429    0.141157    0.000000
      9          1           0        0.749017   -2.106652    0.000000
 ---------------------------------------------------------------------
                    Distance matrix (angstroms):
                    1          2          3          4          5
     1  X    0.000000
     2  X    1.000000   0.000000
     3  C    1.000000   1.414214   0.000000
     4  N    1.242600   1.595009   1.330263   0.000000
     5  N    1.333000   1.666400   2.149157   1.326105   0.000000
     6  N    1.114600   1.497442   2.097837   2.068690   1.252032
     7  N    0.926400   1.363164   1.289216   2.121715   2.142710
     8  H    2.063263   2.292827   1.067800   2.130794   3.177672
     9  H    2.235847   2.449288   2.121551   0.994100   2.023695
                    6          7          8          9
     6  N    0.000000
     7  N    1.341447   0.000000
     8  H    3.140719   2.109850   0.000000
     9  H    3.005127   3.097029   2.601385   0.000000
 Stoichiometry    CH2N4
 Framework group  CS[SG(CH2N4)]
 Deg. of freedom    11
 Full point group                 CS      NOp   2
 Largest Abelian subgroup         CS      NOp   2
 Largest concise Abelian subgroup C1      NOp   1
                         Standard orientation:                         
 ---------------------------------------------------------------------
 Center     Atomic      Atomic             Coordinates (Angstroms)
 Number     Number       Type             X           Y           Z
 ---------------------------------------------------------------------
      1          6           0        1.052733    0.225621    0.000000
      2          7           0        0.000000    1.038857    0.000000
      3          7           0       -1.095416    0.291448    0.000000
      4          7           0       -0.716382   -0.901832    0.000000
      5          7           0        0.622191   -0.989579    0.000000
      6          1           0        2.072287    0.542964    0.000000
      7          1           0       -0.061439    2.031056    0.000000
 ---------------------------------------------------------------------
 Rotational constants (GHZ):     10.9201517     10.7345054      5.4132664
 Standard basis: Aug-CC-pVTZ (5D, 7F)
 There are   221 symmetry adapted cartesian basis functions of A'  symmetry.
 There are   104 symmetry adapted cartesian basis functions of A"  symmetry.
 There are   182 symmetry adapted basis functions of A'  symmetry.
 There are    94 symmetry adapted basis functions of A"  symmetry.
   276 basis functions,   414 primitive gaussians,   325 cartesian basis functions
    18 alpha electrons       18 beta electrons
       nuclear repulsion energy       169.8308489506 Hartrees.
 NAtoms=    7 NActive=    7 NUniq=    7 SFac= 1.00D+00 NAtFMM=   60 NAOKFM=F Big=F
 Integral buffers will be    131072 words long.
 Raffenetti 2 integral format.
 Two-electron integral symmetry is turned on.
 One-electron integrals computed using PRISM.
 NBasis=   276 RedAO= T EigKep=  3.19D-05  NBF=   182    94
 NBsUse=   276 1.00D-06 EigRej= -1.00D+00 NBFU=   182    94
 ExpMin= 2.53D-02 ExpMax= 1.14D+04 ExpMxC= 3.89D+02 IAcc=3 IRadAn=         5 AccDes= 0.00D+00
 Harris functional with IExCor= 1009 and IRadAn=       5 diagonalized for initial guess.
 HarFok:  IExCor= 1009 AccDes= 0.00D+00 IRadAn=         5 IDoV= 1 UseB2=F ITyADJ=14
 ICtDFT=  3500011 ScaDFX=  1.000000  1.000000  1.000000  1.000000
 FoFCou: FMM=F IPFlag=           0 FMFlag=      100000 FMFlg1=           0
         NFxFlg=           0 DoJE=T BraDBF=F KetDBF=T FulRan=T
         wScrn=  0.000000 ICntrl=     500 IOpCl=  0 I1Cent=   200000004 NGrid=           0
         NMat0=    1 NMatS0=      1 NMatT0=    0 NMatD0=    1 NMtDS0=    0 NMtDT0=    0
 Petite list used in FoFCou.
 Initial guess orbital symmetries:
       Occupied  (A') (A') (A') (A') (A') (A') (A') (A') (A') (A')
                 (A') (A') (A") (A') (A") (A') (A") (A')
       Virtual   (A") (A") (A') (A') (A') (A") (A') (A') (A') (A')
                 (A') (A") (A") (A') (A') (A') (A') (A") (A') (A")
                 (A') (A') (A') (A") (A') (A') (A') (A') (A") (A')
                 (A') (A') (A") (A') (A') (A') (A') (A") (A') (A')
                 (A') (A") (A') (A") (A') (A") (A') (A") (A') (A")
                 (A') (A') (A") (A') (A') (A') (A') (A") (A') (A')
                 (A") (A') (A') (A") (A") (A') (A") (A') (A") (A')
                 (A') (A') (A") (A') (A') (A') (A") (A") (A') (A")
                 (A') (A') (A') (A') (A") (A') (A") (A') (A") (A')
                 (A") (A") (A') (A') (A') (A") (A') (A') (A') (A")
                 (A') (A') (A") (A") (A') (A') (A") (A') (A") (A")
                 (A') (A') (A') (A") (A') (A") (A') (A') (A') (A")
                 (A') (A") (A') (A') (A') (A") (A") (A') (A') (A')
                 (A") (A") (A') (A') (A") (A") (A') (A') (A') (A")
                 (A') (A') (A') (A") (A') (A") (A') (A') (A") (A')
                 (A") (A') (A') (A') (A") (A') (A") (A') (A') (A')
                 (A') (A") (A') (A") (A') (A') (A") (A") (A") (A')
                 (A') (A") (A') (A') (A") (A') (A') (A') (A') (A")
                 (A') (A") (A') (A') (A") (A") (A') (A") (A') (A")
                 (A") (A') (A") (A') (A') (A') (A') (A") (A') (A')
                 (A") (A') (A") (A') (A') (A") (A') (A') (A') (A")
                 (A') (A') (A") (A') (A") (A") (A') (A") (A') (A')
                 (A") (A") (A') (A") (A") (A') (A") (A') (A") (A')
                 (A') (A') (A") (A") (A') (A') (A') (A") (A") (A')
                 (A') (A") (A') (A') (A') (A') (A') (A') (A') (A')
                 (A') (A') (A') (A') (A') (A') (A') (A')
 The electronic state of the initial guess is 1-A'.
 Requested convergence on RMS density matrix=1.00D-08 within 128 cycles.
 Requested convergence on MAX density matrix=1.00D-06.
 Requested convergence on             energy=1.00D-06.
 No special actions if energy rises.
 SCF Done:  E(RHSEH1PBE) =  -258.086177031     A.U. after   12 cycles
            NFock= 12  Conv=0.21D-08     -V/T= 2.0046

 **********************************************************************

            Population analysis using the SCF density.

 **********************************************************************

 Orbital symmetries:
       Occupied  (A') (A') (A') (A') (A') (A') (A') (A') (A') (A')
                 (A') (A") (A') (A') (A") (A") (A') (A')
       Virtual   (A") (A') (A") (A') (A') (A") (A') (A') (A') (A')
                 (A') (A") (A") (A') (A') (A') (A") (A') (A") (A')
                 (A') (A') (A") (A') (A') (A') (A") (A') (A') (A')
                 (A') (A") (A') (A') (A') (A") (A') (A') (A') (A')
                 (A") (A') (A') (A") (A') (A") (A') (A") (A') (A")
                 (A') (A') (A") (A') (A') (A') (A") (A') (A') (A')
                 (A") (A') (A') (A") (A") (A') (A") (A') (A") (A')
                 (A') (A") (A') (A') (A') (A') (A") (A") (A") (A')
                 (A') (A') (A') (A') (A") (A') (A") (A') (A") (A')
                 (A") (A') (A") (A') (A') (A") (A') (A') (A') (A")
                 (A') (A') (A") (A') (A") (A') (A") (A') (A") (A")
                 (A') (A') (A') (A") (A') (A") (A') (A') (A') (A")
                 (A") (A') (A') (A') (A') (A") (A") (A') (A') (A")
                 (A') (A') (A") (A') (A") (A') (A") (A') (A') (A")
                 (A') (A') (A') (A") (A') (A") (A') (A') (A") (A')
                 (A") (A') (A') (A') (A') (A") (A") (A') (A') (A')
                 (A') (A") (A') (A") (A') (A") (A') (A") (A") (A')
                 (A') (A") (A') (A') (A") (A') (A') (A') (A') (A")
                 (A') (A") (A') (A") (A") (A') (A') (A") (A") (A")
                 (A') (A") (A') (A') (A') (A') (A") (A') (A') (A")
                 (A') (A') (A") (A') (A') (A") (A') (A') (A") (A')
                 (A') (A') (A") (A') (A") (A') (A") (A') (A") (A')
                 (A") (A') (A") (A") (A") (A') (A") (A') (A") (A')
                 (A') (A") (A') (A") (A') (A') (A") (A') (A") (A')
                 (A") (A') (A') (A') (A') (A') (A') (A') (A') (A')
                 (A') (A') (A') (A') (A') (A') (A') (A')
 The electronic state is 1-A'.
 Alpha  occ. eigenvalues --  -14.48689 -14.45196 -14.43447 -14.40424 -10.30091
 Alpha  occ. eigenvalues --   -1.18948  -0.97490  -0.92408  -0.69820  -0.68562
 Alpha  occ. eigenvalues --   -0.61529  -0.52123  -0.51130  -0.39352  -0.34319
 Alpha  occ. eigenvalues --   -0.32211  -0.30991  -0.29538
 Alpha virt. eigenvalues --   -0.03344  -0.02813  -0.00073   0.00464   0.02843
 Alpha virt. eigenvalues --    0.03280   0.04987   0.06044   0.06812   0.07441
 Alpha virt. eigenvalues --    0.08473   0.08676   0.10009   0.11800   0.12566
 Alpha virt. eigenvalues --    0.14382   0.14751   0.15461   0.16243   0.16890
 Alpha virt. eigenvalues --    0.17303   0.17865   0.20339   0.20894   0.21020
 Alpha virt. eigenvalues --    0.22691   0.24251   0.24719   0.25125   0.26462
 Alpha virt. eigenvalues --    0.29341   0.30735   0.31015   0.32568   0.33799
 Alpha virt. eigenvalues --    0.34993   0.35324   0.36859   0.38603   0.39967
 Alpha virt. eigenvalues --    0.41111   0.42436   0.43243   0.43961   0.45345
 Alpha virt. eigenvalues --    0.45484   0.47167   0.48361   0.50114   0.52874
 Alpha virt. eigenvalues --    0.53296   0.53583   0.54561   0.56201   0.57495
 Alpha virt. eigenvalues --    0.59713   0.60413   0.61207   0.66273   0.66756
 Alpha virt. eigenvalues --    0.67104   0.68150   0.69983   0.72339   0.72460
 Alpha virt. eigenvalues --    0.73295   0.74994   0.76465   0.79128   0.80779
 Alpha virt. eigenvalues --    0.82299   0.83863   0.84845   0.86244   0.88753
 Alpha virt. eigenvalues --    0.90641   0.91878   0.92447   0.94747   0.95832
 Alpha virt. eigenvalues --    0.96818   1.01034   1.03521   1.05107   1.05231
 Alpha virt. eigenvalues --    1.06233   1.07176   1.10160   1.11068   1.12046
 Alpha virt. eigenvalues --    1.12993   1.13451   1.14688   1.17216   1.18452
 Alpha virt. eigenvalues --    1.23700   1.24713   1.25335   1.27457   1.29297
 Alpha virt. eigenvalues --    1.32106   1.34777   1.38040   1.38583   1.39819
 Alpha virt. eigenvalues --    1.44316   1.45902   1.48165   1.49810   1.52591
 Alpha virt. eigenvalues --    1.52667   1.53970   1.58230   1.61433   1.63833
 Alpha virt. eigenvalues --    1.65886   1.68271   1.71881   1.74711   1.77278
 Alpha virt. eigenvalues --    1.81414   1.81543   1.83261   1.85620   1.88867
 Alpha virt. eigenvalues --    1.88996   1.90606   1.91986   1.95578   1.98112
 Alpha virt. eigenvalues --    2.00197   2.03631   2.04075   2.05324   2.07646
 Alpha virt. eigenvalues --    2.13301   2.13461   2.14646   2.17176   2.21872
 Alpha virt. eigenvalues --    2.22551   2.23952   2.28520   2.28692   2.30274
 Alpha virt. eigenvalues --    2.31349   2.36075   2.40208   2.41668   2.46979
 Alpha virt. eigenvalues --    2.51369   2.53070   2.59170   2.69137   2.75291
 Alpha virt. eigenvalues --    2.75554   2.76909   2.82084   2.95100   3.00828
 Alpha virt. eigenvalues --    3.06830   3.07967   3.11864   3.16499   3.17869
 Alpha virt. eigenvalues --    3.25765   3.26996   3.42940   3.46940   3.50370
 Alpha virt. eigenvalues --    3.51153   3.57821   3.59023   3.60490   3.65076
 Alpha virt. eigenvalues --    3.68175   3.73439   3.76892   3.81544   3.82742
 Alpha virt. eigenvalues --    3.85114   3.89542   4.02735   4.02830   4.04407
 Alpha virt. eigenvalues --    4.05488   4.15869   4.18660   4.23301   4.23739
 Alpha virt. eigenvalues --    4.24625   4.27729   4.28662   4.30854   4.34833
 Alpha virt. eigenvalues --    4.38679   4.43766   4.45204   4.46367   4.54558
 Alpha virt. eigenvalues --    4.54818   4.59325   4.59565   4.66182   4.70340
 Alpha virt. eigenvalues --    4.72517   4.76096   4.82313   4.90819   4.91469
 Alpha virt. eigenvalues --    4.93057   4.97443   5.01136   5.04541   5.06028
 Alpha virt. eigenvalues --    5.07449   5.08981   5.12302   5.14342   5.23075
 Alpha virt. eigenvalues --    5.23712   5.24401   5.27119   5.29649   5.35123
 Alpha virt. eigenvalues --    5.37505   5.40898   5.44910   5.46220   5.48003
 Alpha virt. eigenvalues --    5.51099   5.59982   5.60016   5.66035   5.68996
 Alpha virt. eigenvalues --    5.79081   5.85446   5.86537   5.89358   5.99736
 Alpha virt. eigenvalues --    6.02474   6.03458   6.16848   6.23424   6.27274
 Alpha virt. eigenvalues --    6.32622   6.43743   6.58141   6.74283   6.96373
 Alpha virt. eigenvalues --    7.04352   7.38767   7.60964  14.70538  15.42684
 Alpha virt. eigenvalues --   15.85904  16.69742  17.41601
          Condensed to atoms (all electrons):
               1          2          3          4          5          6
     1  C    5.324842   0.506955  -0.132128   0.030767   0.262826   0.247507
     2  N    0.506955   6.214545  -0.371390   0.245774  -0.284826  -0.014342
     3  N   -0.132128  -0.371390   8.385789  -0.788997   0.285877  -0.003045
     4  N    0.030767   0.245774  -0.788997   8.419080  -0.734374  -0.010756
     5  N    0.262826  -0.284826   0.285877  -0.734374   7.753933  -0.031520
     6  H    0.247507  -0.014342  -0.003045  -0.010756  -0.031520   0.279886
     7  H   -0.069012   0.476759  -0.096548   0.009522  -0.000633   0.007672
               7
     1  C   -0.069012
     2  N    0.476759
     3  N   -0.096548
     4  N    0.009522
     5  N   -0.000633
     6  H    0.007672
     7  H    0.549749
 Mulliken charges:
               1
     1  C   -0.171757
     2  N    0.226525
     3  N   -0.279558
     4  N   -0.171016
     5  N   -0.251283
     6  H    0.524598
     7  H    0.122491
 Sum of Mulliken charges =   0.00000
 Mulliken charges with hydrogens summed into heavy atoms:
               1
     1  C    0.352841
     2  N    0.349016
     3  N   -0.279558
     4  N   -0.171016
     5  N   -0.251283
 Electronic spatial extent (au):  <R**2>=            244.9047
 Charge=              0.0000 electrons
 Dipole moment (field-independent basis, Debye):
    X=              2.4683    Y=              4.7073    Z=              0.0000  Tot=              5.3152
 Quadrupole moment (field-independent basis, Debye-Ang):
   XX=            -29.0703   YY=            -26.6279   ZZ=            -28.3976
   XY=              1.8134   XZ=              0.0000   YZ=              0.0000
 Traceless Quadrupole moment (field-independent basis, Debye-Ang):
   XX=             -1.0384   YY=              1.4041   ZZ=             -0.3657
   XY=              1.8134   XZ=              0.0000   YZ=              0.0000
 Octapole moment (field-independent basis, Debye-Ang**2):
  XXX=             12.0028  YYY=             22.2414  ZZZ=              0.0000  XYY=             -0.6332
  XXY=              4.6504  XXZ=              0.0000  XZZ=             -0.5382  YZZ=              0.7383
  YYZ=              0.0000  XYZ=              0.0000
 Hexadecapole moment (field-independent basis, Debye-Ang**3):
 XXXX=           -143.0843 YYYY=           -121.5715 ZZZZ=            -27.0369 XXXY=              6.9438
 XXXZ=              0.0000 YYYX=             -0.1217 YYYZ=              0.0000 ZZZX=              0.0000
 ZZZY=              0.0000 XXYY=            -54.1589 XXZZ=            -30.8650 YYZZ=            -29.2454
 XXYZ=              0.0000 YYXZ=              0.0000 ZZXY=              0.0307
 N-N= 1.698308489506D+02 E-N=-9.422473283945D+02  KE= 2.568957463761D+02
 Symmetry A'   KE= 2.474163538623D+02
 Symmetry A"   KE= 9.479392513806D+00
 Calling FoFJK, ICntrl=      2127 FMM=F ISym2X=1 I1Cent= 0 IOpClX= 0 NMat=1 NMatS=1 NMatT=0.
 ***** Axes restored to original set *****
 -------------------------------------------------------------------
 Center     Atomic                   Forces (Hartrees/Bohr)
 Number     Number              X              Y              Z
 -------------------------------------------------------------------
      1        6           0.012758658   -0.006359996    0.000000000
      2        7           0.002729609   -0.000809715    0.000000000
      3        7          -0.007956961   -0.029875611    0.000000000
      4        7          -0.014154755    0.025281444    0.000000000
      5        7          -0.003693090    0.020487499    0.000000000
      6        1           0.006487783    0.000758470    0.000000000
      7        1           0.003828755   -0.009482092    0.000000000
 -------------------------------------------------------------------
 Cartesian Forces:  Max     0.029875611 RMS     0.011099819
 -----------------------------------------------------------------------------------------------
                       Internal Coordinate Forces (Hartree/Bohr or radian)
  Cent   Atom   N1       Length/X         N2         Alpha/Y        N3         Beta/Z          J
 -----------------------------------------------------------------------------------------------
         X 
         X        1   0.000000(     1)
      1  C        1   0.019322(     2)      2   0.000000(     9)
      2  N        1   0.011686(     3)      2   0.000000(    10)      3  -0.007057(    16)     0
      3  N        1   0.027167(     4)      2   0.000000(    11)      3  -0.037629(    17)     0
      4  N        1   0.020019(     5)      2   0.000000(    12)      3   0.044119(    18)     0
      5  N        1   0.019981(     6)      2   0.000000(    13)      3  -0.010226(    19)     0
      6  H        3   0.006531(     7)      4  -0.000214(    14)      5   0.000000(    20)     0
      7  H        4   0.010225(     8)      5   0.000217(    15)      6   0.000000(    21)     0
 -----------------------------------------------------------------------------------------------
 Internal  Forces:  Max     0.044118723 RMS     0.016492443

 GradGradGradGradGradGradGradGradGradGradGradGradGradGradGradGradGradGrad
 Berny optimization.
 Search for a local minimum.
 Step number   1 out of a maximum of   22
 All quantities printed in internal units (Hartrees-Bohrs-Radians)
 Second derivative matrix not updated -- first step.
 The second derivative matrix:
                          rn1       rn2       rn3       rn4       rch
           rn1          0.65186
           rn2          0.01318   0.69869
           rn3          0.03472   0.07334   0.58262
           rn4          0.03688   0.02662   0.13967   0.63921
           rch          0.00000   0.00000   0.00000   0.00000   0.37510
           rnh          0.00000   0.00000   0.00000   0.00000   0.00000
           an1          0.02012  -0.75016   0.04258  -0.08486   0.00000
           an2          0.72119  -0.31234  -0.71865   0.05436   0.00000
           an3         -0.02914   1.04797   0.05412  -0.58583   0.00000
           an4          0.05328  -0.03228   0.65851  -0.10009   0.00000
           ach          0.04546   0.00000   0.00000   0.05066   0.00000
           anh         -0.10206   0.05276   0.00000   0.00000   0.00000
                          rnh       an1       an2       an3       an4
           rnh          0.48741
           an1          0.00000   4.53257
           an2          0.00000  -2.68051   6.02300
           an3          0.00000  -0.03573  -3.19618   4.47465
           an4          0.00000  -0.12258  -0.06592  -1.16042   2.58479
           ach          0.00000  -0.10460   0.00000   0.00000   0.07318
           anh          0.00000   0.03519  -0.09059   0.00000   0.00000
                          ach       anh
           ach          0.32000
           anh          0.00000   0.32000
 ITU=  0
     Eigenvalues ---    0.00000   0.13346   0.26445   0.33044   0.37510
     Eigenvalues ---    0.40158   0.48741   0.75609   1.20990   2.99509
     Eigenvalues ---    5.09563   9.64077
 RFO step:  Lambda=-2.76236534D-03 EMin=-6.95624114D-16
 Linear search not attempted -- first point.
 Variable       Old X    -DE/DX   Delta X   Delta X   Delta X     New X
                                 (Linear)    (Quad)   (Total)
   rn1        2.34817   0.01169   0.00000   0.01654   0.01654   2.36471
   rn2        2.51900   0.02717   0.00000   0.03937   0.03937   2.55837
   rn3        2.10629   0.02002   0.00000   0.03713   0.03713   2.14342
   rn4        1.75064   0.01998   0.00000   0.01738   0.01738   1.76803
   rch        2.01785   0.00653   0.00000   0.01728   0.01728   2.03513
   rnh        1.87858   0.01023   0.00000   0.02086   0.02086   1.89944
   an1        1.25389  -0.00706   0.00000   0.00358   0.00358   1.25747
   an2        2.33355  -0.03763   0.00000  -0.00150  -0.00150   2.33206
   an3        3.39396   0.04412   0.00000  -0.00190  -0.00190   3.39206
   an4        4.81845  -0.01023   0.00000  -0.01326  -0.01326   4.80519
   ach        2.18209  -0.00021   0.00000  -0.00156  -0.00156   2.18054
   anh        2.10770   0.00022   0.00000  -0.00134  -0.00134   2.10636
         Item               Value     Threshold  Converged?
 Maximum Force            0.044119     0.000450     NO 
 RMS     Force            0.021092     0.000300     NO 
 Maximum Displacement     0.039370     0.001800     NO 
 RMS     Displacement     0.019228     0.001200     NO 
 Predicted change in Energy=-1.387314D-03
 GradGradGradGradGradGradGradGradGradGradGradGradGradGradGradGradGradGrad

 ---------------------------------------------------------------------------------------------------
                            Z-MATRIX (ANGSTROMS AND DEGREES)
   CD    Cent   Atom    N1       Length/X        N2       Alpha/Y        N3        Beta/Z          J
 ---------------------------------------------------------------------------------------------------
      1         X 
      2         X        1   1.000000(     1)
      3      1  C        1   1.000000(     2)      2   90.000(     9)
      4      2  N        1   1.251353(     3)      2   90.000(    10)      3   72.048(    16)      0
      5      3  N        1   1.353834(     4)      2   90.000(    11)      3  133.617(    17)      0
      6      4  N        1   1.134247(     5)      2   90.000(    12)      3  194.351(    18)      0
      7      5  N        1   0.935599(     6)      2   90.000(    13)      3  275.317(    19)      0
      8      6  H        3   1.076947(     7)      4  124.936(    14)      5  180.000(    20)      0
      9      7  H        4   1.005139(     8)      5  120.686(    15)      6  180.000(    21)      0
 ---------------------------------------------------------------------------------------------------
                         Z-Matrix orientation:                         
 ---------------------------------------------------------------------
 Center     Atomic      Atomic             Coordinates (Angstroms)
 Number     Number       Type             X           Y           Z
 ---------------------------------------------------------------------
      1         -1           0        0.000000    0.000000    0.000000
      2         -1           0        0.000000    0.000000    1.000000
      3          6           0        1.000000    0.000000    0.000000
      4          7           0        0.385700   -1.190428    0.000000
      5          7           0       -0.933922   -0.980130    0.000000
      6          7           0       -1.098855    0.281130    0.000000
      7          7           0        0.086703    0.931573    0.000000
      8          1           0        2.067385    0.143187    0.000000
      9          1           0        0.756221   -2.124783    0.000000
 ---------------------------------------------------------------------
                    Distance matrix (angstroms):
                    1          2          3          4          5
     1  X    0.000000
     2  X    1.000000   0.000000
     3  C    1.000000   1.414214   0.000000
     4  N    1.251353   1.601838   1.339584   0.000000
     5  N    1.353834   1.683112   2.168112   1.336274   0.000000
     6  N    1.134247   1.512123   2.117599   2.090308   1.271998
     7  N    0.935599   1.369433   1.304584   2.142963   2.167091
     8  H    2.072338   2.300996   1.076947   2.146298   3.204636
     9  H    2.255343   2.467098   2.138722   1.005139   2.041278
                    6          7          8          9
     6  N    0.000000
     7  N    1.352266   0.000000
     8  H    3.169244   2.131819   0.000000
     9  H    3.038046   3.128828   2.619702   0.000000
 Stoichiometry    CH2N4
 Framework group  CS[SG(CH2N4)]
 Deg. of freedom    11
 Full point group                 CS      NOp   2
 Largest Abelian subgroup         CS      NOp   2
 Largest concise Abelian subgroup C1      NOp   1
                         Standard orientation:                         
 ---------------------------------------------------------------------
 Center     Atomic      Atomic             Coordinates (Angstroms)
 Number     Number       Type             X           Y           Z
 ---------------------------------------------------------------------
      1          6           0        1.060845    0.229873    0.000000
      2          7           0        0.000000    1.047854    0.000000
      3          7           0       -1.106190    0.298205    0.000000
      4          7           0       -0.721152   -0.914117    0.000000
      5          7           0        0.628325   -1.000925    0.000000
      6          1           0        2.088343    0.552458    0.000000
      7          1           0       -0.060299    2.051183    0.000000
 ---------------------------------------------------------------------
 Rotational constants (GHZ):     10.6931765     10.5360240      5.3070093
 Standard basis: Aug-CC-pVTZ (5D, 7F)
 There are   221 symmetry adapted cartesian basis functions of A'  symmetry.
 There are   104 symmetry adapted cartesian basis functions of A"  symmetry.
 There are   182 symmetry adapted basis functions of A'  symmetry.
 There are    94 symmetry adapted basis functions of A"  symmetry.
   276 basis functions,   414 primitive gaussians,   325 cartesian basis functions
    18 alpha electrons       18 beta electrons
       nuclear repulsion energy       168.1347628225 Hartrees.
 NAtoms=    7 NActive=    7 NUniq=    7 SFac= 1.00D+00 NAtFMM=   60 NAOKFM=F Big=F
 Integral buffers will be    131072 words long.
 Raffenetti 2 integral format.
 Two-electron integral symmetry is turned on.
 One-electron integrals computed using PRISM.
 NBasis=   276 RedAO= T EigKep=  3.45D-05  NBF=   182    94
 NBsUse=   276 1.00D-06 EigRej= -1.00D+00 NBFU=   182    94
 Initial guess from the checkpoint file:  "/tmp/rdj3/g09-23219/Gau-21232.chk"
 B after Tr=     0.000000    0.000000    0.000000
         Rot=    1.000000    0.000000    0.000000   -0.000175 Ang=  -0.02 deg.
 Initial guess orbital symmetries:
       Occupied  (A') (A') (A') (A') (A') (A') (A') (A') (A') (A')
                 (A') (A") (A') (A') (A") (A") (A') (A')
       Virtual   (A') (A') (A') (A') (A') (A') (A') (A') (A') (A')
                 (A') (A') (A') (A') (A') (A') (A') (A') (A') (A')
                 (A') (A') (A') (A') (A') (A') (A') (A') (A') (A')
                 (A') (A') (A') (A') (A') (A') (A') (A') (A') (A')
                 (A') (A') (A') (A') (A') (A') (A') (A') (A') (A')
                 (A') (A') (A') (A') (A') (A') (A') (A') (A') (A')
                 (A') (A') (A') (A') (A') (A') (A') (A') (A') (A')
                 (A') (A') (A') (A') (A') (A') (A') (A') (A') (A')
                 (A') (A') (A') (A') (A') (A') (A') (A') (A') (A')
                 (A') (A') (A') (A') (A') (A') (A') (A') (A') (A')
                 (A') (A') (A') (A') (A') (A') (A') (A') (A') (A')
                 (A') (A') (A') (A') (A') (A') (A') (A') (A') (A')
                 (A') (A') (A') (A') (A') (A') (A') (A') (A') (A')
                 (A') (A') (A') (A') (A') (A') (A') (A') (A') (A')
                 (A') (A') (A') (A') (A') (A') (A') (A') (A') (A')
                 (A') (A') (A') (A') (A') (A') (A') (A') (A') (A')
                 (A') (A') (A') (A') (A') (A') (A') (A") (A") (A")
                 (A") (A") (A") (A") (A") (A") (A") (A") (A") (A")
                 (A") (A") (A") (A") (A") (A") (A") (A") (A") (A")
                 (A") (A") (A") (A") (A") (A") (A") (A") (A") (A")
                 (A") (A") (A") (A") (A") (A") (A") (A") (A") (A")
                 (A") (A") (A") (A") (A") (A") (A") (A") (A") (A")
                 (A") (A") (A") (A") (A") (A") (A") (A") (A") (A")
                 (A") (A") (A") (A") (A") (A") (A") (A") (A") (A")
                 (A") (A") (A") (A") (A") (A") (A") (A") (A") (A")
                 (A") (A") (A") (A") (A") (A") (A") (A")
 ExpMin= 2.53D-02 ExpMax= 1.14D+04 ExpMxC= 3.89D+02 IAcc=3 IRadAn=         5 AccDes= 0.00D+00
 Harris functional with IExCor= 1009 and IRadAn=       5 diagonalized for initial guess.
 HarFok:  IExCor= 1009 AccDes= 0.00D+00 IRadAn=         5 IDoV= 1 UseB2=F ITyADJ=14
 ICtDFT=  3500011 ScaDFX=  1.000000  1.000000  1.000000  1.000000
 FoFCou: FMM=F IPFlag=           0 FMFlag=      100000 FMFlg1=           0
         NFxFlg=           0 DoJE=T BraDBF=F KetDBF=T FulRan=T
         wScrn=  0.000000 ICntrl=     500 IOpCl=  0 I1Cent=   200000004 NGrid=           0
         NMat0=    1 NMatS0=      1 NMatT0=    0 NMatD0=    1 NMtDS0=    0 NMtDT0=    0
 Petite list used in FoFCou.
 Requested convergence on RMS density matrix=1.00D-08 within 128 cycles.
 Requested convergence on MAX density matrix=1.00D-06.
 Requested convergence on             energy=1.00D-06.
 No special actions if energy rises.
 SCF Done:  E(RHSEH1PBE) =  -258.087652746     A.U. after   10 cycles
            NFock= 10  Conv=0.38D-08     -V/T= 2.0056
 Calling FoFJK, ICntrl=      2127 FMM=F ISym2X=1 I1Cent= 0 IOpClX= 0 NMat=1 NMatS=1 NMatT=0.
 ***** Axes restored to original set *****
 -------------------------------------------------------------------
 Center     Atomic                   Forces (Hartrees/Bohr)
 Number     Number              X              Y              Z
 -------------------------------------------------------------------
      1        6           0.001311226   -0.002598643    0.000000000
      2        7           0.000094889    0.003271233    0.000000000
      3        7          -0.000293293   -0.007471696    0.000000000
      4        7           0.000267551    0.005880505    0.000000000
      5        7          -0.001069866    0.000870662    0.000000000
      6        1          -0.000304340   -0.000000713    0.000000000
      7        1          -0.000006166    0.000048652    0.000000000
 -------------------------------------------------------------------
 Cartesian Forces:  Max     0.007471696 RMS     0.002306761
 -----------------------------------------------------------------------------------------------
                       Internal Coordinate Forces (Hartree/Bohr or radian)
  Cent   Atom   N1       Length/X         N2         Alpha/Y        N3         Beta/Z          J
 -----------------------------------------------------------------------------------------------
         X 
         X        1   0.000000(     1)
      1  C        1   0.000978(     2)      2   0.000000(     9)
      2  N        1  -0.003116(     3)      2   0.000000(    10)      3  -0.002682(    16)     0
      3  N        1   0.005619(     4)      2   0.000000(    11)      3  -0.012657(    17)     0
      4  N        1   0.001198(     5)      2   0.000000(    12)      3   0.012353(    18)     0
      5  N        1   0.000768(     6)      2   0.000000(    13)      3  -0.002026(    19)     0
      6  H        3  -0.000302(     7)      4   0.000081(    14)      5   0.000000(    20)     0
      7  H        4  -0.000047(     8)      5   0.000023(    15)      6   0.000000(    21)     0
 -----------------------------------------------------------------------------------------------
 Internal  Forces:  Max     0.012656571 RMS     0.004188765

 GradGradGradGradGradGradGradGradGradGradGradGradGradGradGradGradGradGrad
 Berny optimization.
 Search for a local minimum.
 Step number   2 out of a maximum of   22
 All quantities printed in internal units (Hartrees-Bohrs-Radians)
 Update second derivatives using D2CorN and points    1    2
 DE= -1.48D-03 DEPred=-1.39D-03 R= 1.06D+00
 TightC=F SS=  1.41D+00  RLast= 6.66D-02 DXNew= 5.0454D-01 1.9983D-01
 Trust test= 1.06D+00 RLast= 6.66D-02 DXMaxT set to 3.00D-01
 The second derivative matrix:
                          rn1       rn2       rn3       rn4       rch
           rn1          0.66365
           rn2          0.01694   0.64979
           rn3          0.04591   0.04542   0.57345
           rn4          0.04174   0.01263   0.13451   0.63639
           rch          0.00681  -0.00918  -0.00067  -0.00072   0.37646
           rnh          0.00763  -0.01249  -0.00214  -0.00149   0.00103
           an1          0.02641  -0.74044   0.05340  -0.07987   0.00539
           an2          0.74424  -0.25527  -0.66552   0.07926   0.02459
           an3         -0.05285   0.99432   0.00265  -0.60988  -0.02415
           an4          0.05227  -0.01522   0.66847  -0.09512   0.00335
           ach          0.04475   0.00059  -0.00016   0.05061  -0.00023
           anh         -0.10259   0.05347   0.00005   0.00006  -0.00011
                          rnh       an1       an2       an3       an4
           rnh          0.48790
           an1          0.00637   4.53474
           an2          0.02973  -2.67586   6.01874
           an3         -0.02908  -0.04129  -3.19681   4.47995
           an4          0.00452  -0.12580  -0.08516  -1.14239   2.57885
           ach         -0.00022  -0.10510  -0.00220   0.00218   0.07295
           anh         -0.00008   0.03477  -0.09250   0.00188  -0.00026
                          ach       anh
           ach          0.32003
           anh          0.00002   0.32001
 ITU=  1  0
     Eigenvalues ---   -0.00006   0.12813   0.26530   0.33054   0.37601
     Eigenvalues ---    0.39552   0.48775   0.75144   1.20767   2.99270
     Eigenvalues ---    5.08066   9.62429
 RFO step:  Lambda=-1.80880991D-04 EMin=-5.55205021D-05
 Quartic linear search produced a step of  0.09815.
 Maximum step size (   0.300) exceeded in Quadratic search.
    -- Step size scaled by   0.311
 Variable       Old X    -DE/DX   Delta X   Delta X   Delta X     New X
                                 (Linear)    (Quad)   (Total)
   rn1        2.36471  -0.00312   0.00162   0.13066   0.13228   2.49700
   rn2        2.55837   0.00562   0.00386   0.10760   0.11146   2.66983
   rn3        2.14342   0.00120   0.00364  -0.03539  -0.03175   2.11167
   rn4        1.76803   0.00077   0.00171  -0.14071  -0.13901   1.62902
   rch        2.03513  -0.00030   0.00170  -0.00094   0.00076   2.03589
   rnh        1.89944  -0.00005   0.00205  -0.00052   0.00152   1.90096
   an1        1.25747  -0.00268   0.00035  -0.05601  -0.05566   1.20181
   an2        2.33206  -0.01266  -0.00015  -0.11443  -0.11457   2.21749
   an3        3.39206   0.01235  -0.00019  -0.14002  -0.14021   3.25185
   an4        4.80519  -0.00203  -0.00130  -0.06674  -0.06804   4.73715
   ach        2.18054   0.00008  -0.00015   0.00085   0.00070   2.18124
   anh        2.10636   0.00002  -0.00013  -0.00228  -0.00242   2.10395
         Item               Value     Threshold  Converged?
 Maximum Force            0.012657     0.000450     NO 
 RMS     Force            0.005534     0.000300     NO 
 Maximum Displacement     0.140209     0.001800     NO 
 RMS     Displacement     0.086975     0.001200     NO 
 Predicted change in Energy=-6.148868D-05
 GradGradGradGradGradGradGradGradGradGradGradGradGradGradGradGradGradGrad

 ---------------------------------------------------------------------------------------------------
                            Z-MATRIX (ANGSTROMS AND DEGREES)
   CD    Cent   Atom    N1       Length/X        N2       Alpha/Y        N3        Beta/Z          J
 ---------------------------------------------------------------------------------------------------
      1         X 
      2         X        1   1.000000(     1)
      3      1  C        1   1.000000(     2)      2   90.000(     9)
      4      2  N        1   1.321355(     3)      2   90.000(    10)      3   68.858(    16)      0
      5      3  N        1   1.412816(     4)      2   90.000(    11)      3  127.053(    17)      0
      6      4  N        1   1.117446(     5)      2   90.000(    12)      3  186.317(    18)      0
      7      5  N        1   0.862039(     6)      2   90.000(    13)      3  271.419(    19)      0
      8      6  H        3   1.077348(     7)      4  124.976(    14)      5  180.000(    20)      0
      9      7  H        4   1.005945(     8)      5  120.547(    15)      6  180.000(    21)      0
 ---------------------------------------------------------------------------------------------------
                         Z-Matrix orientation:                         
 ---------------------------------------------------------------------
 Center     Atomic      Atomic             Coordinates (Angstroms)
 Number     Number       Type             X           Y           Z
 ---------------------------------------------------------------------
      1         -1           0        0.000000    0.000000    0.000000
      2         -1           0        0.000000    0.000000    1.000000
      3          6           0        1.000000    0.000000    0.000000
      4          7           0        0.476578   -1.232417    0.000000
      5          7           0       -0.851289   -1.127544    0.000000
      6          7           0       -1.110661    0.122957    0.000000
      7          7           0        0.021347    0.861775    0.000000
      8          1           0        2.053944    0.223338    0.000000
      9          1           0        0.918051   -2.136313    0.000000
 ---------------------------------------------------------------------
                    Distance matrix (angstroms):
                    1          2          3          4          5
     1  X    0.000000
     2  X    1.000000   0.000000
     3  C    1.000000   1.414214   0.000000
     4  N    1.321355   1.657099   1.338963   0.000000
     5  N    1.412816   1.730910   2.167632   1.332002   0.000000
     6  N    1.117446   1.499562   2.114240   2.087191   1.277117
     7  N    0.862039   1.320270   1.304001   2.143100   2.172299
     8  H    2.066051   2.295336   1.077348   2.146464   3.203945
     9  H    2.325220   2.531136   2.137884   1.005945   2.036708
                    6          7          8          9
     6  N    0.000000
     7  N    1.351774   0.000000
     8  H    3.166197   2.130505   0.000000
     9  H    3.036441   3.129314   2.618818   0.000000
 Stoichiometry    CH2N4
 Framework group  CS[SG(CH2N4)]
 Deg. of freedom    11
 Full point group                 CS      NOp   2
 Largest Abelian subgroup         CS      NOp   2
 Largest concise Abelian subgroup C1      NOp   1
                         Standard orientation:                         
 ---------------------------------------------------------------------
 Center     Atomic      Atomic             Coordinates (Angstroms)
 Number     Number       Type             X           Y           Z
 ---------------------------------------------------------------------
      1          6           0        1.059794    0.227467    0.000000
      2          7           0        0.000000    1.045794    0.000000
      3          7           0       -1.106479    0.304218    0.000000
      4          7           0       -0.720383   -0.913138    0.000000
      5          7           0        0.628394   -1.003107    0.000000
      6          1           0        2.088121    0.548746    0.000000
      7          1           0       -0.057614    2.050088    0.000000
 ---------------------------------------------------------------------
 Rotational constants (GHZ):     10.7299808     10.5067567      5.3085978
 Standard basis: Aug-CC-pVTZ (5D, 7F)
 There are   221 symmetry adapted cartesian basis functions of A'  symmetry.
 There are   104 symmetry adapted cartesian basis functions of A"  symmetry.
 There are   182 symmetry adapted basis functions of A'  symmetry.
 There are    94 symmetry adapted basis functions of A"  symmetry.
   276 basis functions,   414 primitive gaussians,   325 cartesian basis functions
    18 alpha electrons       18 beta electrons
       nuclear repulsion energy       168.1490539288 Hartrees.
 NAtoms=    7 NActive=    7 NUniq=    7 SFac= 1.00D+00 NAtFMM=   60 NAOKFM=F Big=F
 Integral buffers will be    131072 words long.
 Raffenetti 2 integral format.
 Two-electron integral symmetry is turned on.
 One-electron integrals computed using PRISM.
 NBasis=   276 RedAO= T EigKep=  3.45D-05  NBF=   182    94
 NBsUse=   276 1.00D-06 EigRej= -1.00D+00 NBFU=   182    94
 Initial guess from the checkpoint file:  "/tmp/rdj3/g09-23219/Gau-21232.chk"
 B after Tr=     0.000000    0.000000    0.000000
         Rot=    1.000000    0.000000    0.000000    0.000788 Ang=   0.09 deg.
 Initial guess orbital symmetries:
       Occupied  (A') (A') (A') (A') (A') (A') (A') (A') (A') (A')
                 (A') (A") (A') (A') (A") (A") (A') (A')
       Virtual   (A') (A') (A') (A') (A') (A') (A') (A') (A') (A')
                 (A') (A') (A') (A') (A') (A') (A') (A') (A') (A')
                 (A') (A') (A') (A') (A') (A') (A') (A') (A') (A')
                 (A') (A') (A') (A') (A') (A') (A') (A') (A') (A')
                 (A') (A') (A') (A') (A') (A') (A') (A') (A') (A')
                 (A') (A') (A') (A') (A') (A') (A') (A') (A') (A')
                 (A') (A') (A') (A') (A') (A') (A') (A') (A') (A')
                 (A') (A') (A') (A') (A') (A') (A') (A') (A') (A')
                 (A') (A') (A') (A') (A') (A') (A') (A') (A') (A')
                 (A') (A') (A') (A') (A') (A') (A') (A') (A') (A')
                 (A') (A') (A') (A') (A') (A') (A') (A') (A') (A')
                 (A') (A') (A') (A') (A') (A') (A') (A') (A') (A')
                 (A') (A') (A') (A') (A') (A') (A') (A') (A') (A')
                 (A') (A') (A') (A') (A') (A') (A') (A') (A') (A')
                 (A') (A') (A') (A') (A') (A') (A') (A') (A') (A')
                 (A') (A') (A') (A') (A') (A') (A') (A') (A') (A')
                 (A') (A') (A') (A') (A') (A') (A') (A") (A") (A")
                 (A") (A") (A") (A") (A") (A") (A") (A") (A") (A")
                 (A") (A") (A") (A") (A") (A") (A") (A") (A") (A")
                 (A") (A") (A") (A") (A") (A") (A") (A") (A") (A")
                 (A") (A") (A") (A") (A") (A") (A") (A") (A") (A")
                 (A") (A") (A") (A") (A") (A") (A") (A") (A") (A")
                 (A") (A") (A") (A") (A") (A") (A") (A") (A") (A")
                 (A") (A") (A") (A") (A") (A") (A") (A") (A") (A")
                 (A") (A") (A") (A") (A") (A") (A") (A") (A") (A")
                 (A") (A") (A") (A") (A") (A") (A") (A")
 ExpMin= 2.53D-02 ExpMax= 1.14D+04 ExpMxC= 3.89D+02 IAcc=3 IRadAn=         5 AccDes= 0.00D+00
 Harris functional with IExCor= 1009 and IRadAn=       5 diagonalized for initial guess.
 HarFok:  IExCor= 1009 AccDes= 0.00D+00 IRadAn=         5 IDoV= 1 UseB2=F ITyADJ=14
 ICtDFT=  3500011 ScaDFX=  1.000000  1.000000  1.000000  1.000000
 FoFCou: FMM=F IPFlag=           0 FMFlag=      100000 FMFlg1=           0
         NFxFlg=           0 DoJE=T BraDBF=F KetDBF=T FulRan=T
         wScrn=  0.000000 ICntrl=     500 IOpCl=  0 I1Cent=   200000004 NGrid=           0
         NMat0=    1 NMatS0=      1 NMatT0=    0 NMatD0=    1 NMtDS0=    0 NMtDT0=    0
 Petite list used in FoFCou.
 Requested convergence on RMS density matrix=1.00D-08 within 128 cycles.
 Requested convergence on MAX density matrix=1.00D-06.
 Requested convergence on             energy=1.00D-06.
 No special actions if energy rises.
 SCF Done:  E(RHSEH1PBE) =  -258.087679316     A.U. after    9 cycles
            NFock=  9  Conv=0.43D-08     -V/T= 2.0056
 Calling FoFJK, ICntrl=      2127 FMM=F ISym2X=1 I1Cent= 0 IOpClX= 0 NMat=1 NMatS=1 NMatT=0.
 ***** Axes restored to original set *****
 -------------------------------------------------------------------
 Center     Atomic                   Forces (Hartrees/Bohr)
 Number     Number              X              Y              Z
 -------------------------------------------------------------------
      1        6           0.003767600   -0.001895419    0.000000000
      2        7           0.002727386    0.000796512    0.000000000
      3        7          -0.001633309   -0.001161963    0.000000000
      4        7          -0.001803712    0.002989861    0.000000000
      5        7          -0.002554112   -0.001098806    0.000000000
      6        1          -0.000478749   -0.000346785    0.000000000
      7        1          -0.000025104    0.000716600    0.000000000
 -------------------------------------------------------------------
 Cartesian Forces:  Max     0.003767600 RMS     0.001553268
 -----------------------------------------------------------------------------------------------
                       Internal Coordinate Forces (Hartree/Bohr or radian)
  Cent   Atom   N1       Length/X         N2         Alpha/Y        N3         Beta/Z          J
 -----------------------------------------------------------------------------------------------
         X 
         X        1   0.000000(     1)
      1  C        1   0.003467(     2)      2   0.000000(     9)
      2  N        1  -0.000770(     3)      2   0.000000(    10)      3  -0.007549(    16)     0
      3  N        1   0.002097(     4)      2   0.000000(    11)      3   0.001294(    17)     0
      4  N        1   0.002122(     5)      2   0.000000(    12)      3   0.005856(    18)     0
      5  N        1  -0.001162(     6)      2   0.000000(    13)      3  -0.004115(    19)     0
      6  H        3  -0.000540(     7)      4  -0.000489(    14)      5   0.000000(    20)     0
      7  H        4  -0.000655(     8)      5   0.000555(    15)      6   0.000000(    21)     0
 -----------------------------------------------------------------------------------------------
 Internal  Forces:  Max     0.007548537 RMS     0.002526168

 GradGradGradGradGradGradGradGradGradGradGradGradGradGradGradGradGradGrad
 Berny optimization.
 Search for a local minimum.
 Step number   3 out of a maximum of   22
 All quantities printed in internal units (Hartrees-Bohrs-Radians)
 Update second derivatives using D2CorN and points    1    2    3
 DE= -2.66D-05 DEPred=-6.15D-05 R= 4.32D-01
 Trust test= 4.32D-01 RLast= 3.01D-01 DXMaxT set to 3.00D-01
 The second derivative matrix:
                          rn1       rn2       rn3       rn4       rch
           rn1          0.66016
           rn2          0.01481   0.64832
           rn3          0.04357   0.04268   0.57389
           rn4          0.04403   0.01349   0.13697   0.63549
           rch          0.00691  -0.00915  -0.00080  -0.00072   0.37654
           rnh          0.00776  -0.01245  -0.00232  -0.00152   0.00112
           an1          0.03454  -0.73310   0.05416  -0.08656   0.00603
           an2          0.73962  -0.26016  -0.66212   0.08505   0.02436
           an3         -0.05347   0.99202   0.00470  -0.60887  -0.02478
           an4          0.05719  -0.01098   0.66975  -0.09894   0.00363
           ach          0.04533   0.00115  -0.00021   0.05007  -0.00019
           anh         -0.10319   0.05288   0.00015   0.00061  -0.00016
                          rnh       an1       an2       an3       an4
           rnh          0.48801
           an1          0.00717   4.52929
           an2          0.02940  -2.67930   6.02915
           an3         -0.02987  -0.04786  -3.18871   4.48419
           an4          0.00487  -0.13127  -0.08521  -1.14494   2.57453
           ach         -0.00017  -0.10535  -0.00271   0.00163   0.07263
           anh         -0.00015   0.03483  -0.09187   0.00258  -0.00001
                          ach       anh
           ach          0.32003
           anh          0.00001   0.32004
 ITU=  0  1  0
     Eigenvalues ---    0.00069   0.12779   0.26551   0.33034   0.37610
     Eigenvalues ---    0.39569   0.48783   0.75091   1.20766   2.99273
     Eigenvalues ---    5.07999   9.62440
 RFO step:  Lambda=-5.74027103D-05 EMin= 6.85060453D-04
 Quartic linear search produced a step of -0.25769.
 Variable       Old X    -DE/DX   Delta X   Delta X   Delta X     New X
                                 (Linear)    (Quad)   (Total)
   rn1        2.49700  -0.00077  -0.03409   0.01903  -0.01506   2.48194
   rn2        2.66983   0.00210  -0.02872   0.02291  -0.00581   2.66403
   rn3        2.11167   0.00212   0.00818   0.00668   0.01486   2.12653
   rn4        1.62902  -0.00116   0.03582  -0.02920   0.00662   1.63564
   rch        2.03589  -0.00054  -0.00020  -0.00122  -0.00141   2.03448
   rnh        1.90096  -0.00065  -0.00039  -0.00089  -0.00128   1.89968
   an1        1.20181  -0.00755   0.01434  -0.00983   0.00451   1.20632
   an2        2.21749   0.00129   0.02952  -0.01803   0.01149   2.22898
   an3        3.25185   0.00586   0.03613  -0.02429   0.01184   3.26369
   an4        4.73715  -0.00412   0.01753  -0.01651   0.00102   4.73818
   ach        2.18124  -0.00049  -0.00018   0.00121   0.00103   2.18227
   anh        2.10395   0.00055   0.00062  -0.00021   0.00042   2.10436
         Item               Value     Threshold  Converged?
 Maximum Force            0.007549     0.000450     NO 
 RMS     Force            0.003188     0.000300     NO 
 Maximum Displacement     0.015060     0.001800     NO 
 RMS     Displacement     0.008286     0.001200     NO 
 Predicted change in Energy=-3.768381D-05
 GradGradGradGradGradGradGradGradGradGradGradGradGradGradGradGradGradGrad

 ---------------------------------------------------------------------------------------------------
                            Z-MATRIX (ANGSTROMS AND DEGREES)
   CD    Cent   Atom    N1       Length/X        N2       Alpha/Y        N3        Beta/Z          J
 ---------------------------------------------------------------------------------------------------
      1         X 
      2         X        1   1.000000(     1)
      3      1  C        1   1.000000(     2)      2   90.000(     9)
      4      2  N        1   1.313385(     3)      2   90.000(    10)      3   69.117(    16)      0
      5      3  N        1   1.409741(     4)      2   90.000(    11)      3  127.711(    17)      0
      6      4  N        1   1.125312(     5)      2   90.000(    12)      3  186.995(    18)      0
      7      5  N        1   0.865545(     6)      2   90.000(    13)      3  271.478(    19)      0
      8      6  H        3   1.076600(     7)      4  125.035(    14)      5  180.000(    20)      0
      9      7  H        4   1.005269(     8)      5  120.571(    15)      6  180.000(    21)      0
 ---------------------------------------------------------------------------------------------------
                         Z-Matrix orientation:                         
 ---------------------------------------------------------------------
 Center     Atomic      Atomic             Coordinates (Angstroms)
 Number     Number       Type             X           Y           Z
 ---------------------------------------------------------------------
      1         -1           0        0.000000    0.000000    0.000000
      2         -1           0        0.000000    0.000000    1.000000
      3          6           0        1.000000    0.000000    0.000000
      4          7           0        0.468175   -1.227107    0.000000
      5          7           0       -0.862312   -1.115253    0.000000
      6          7           0       -1.116935    0.137053    0.000000
      7          7           0        0.022318    0.865257    0.000000
      8          1           0        2.054600    0.216534    0.000000
      9          1           0        0.905155   -2.132433    0.000000
 ---------------------------------------------------------------------
                    Distance matrix (angstroms):
                    1          2          3          4          5
     1  X    0.000000
     2  X    1.000000   0.000000
     3  C    1.000000   1.414214   0.000000
     4  N    1.313385   1.650751   1.337397   0.000000
     5  N    1.409741   1.728401   2.170713   1.335181   0.000000
     6  N    1.125312   1.505432   2.121366   2.091293   1.277929
     7  N    0.865545   1.322561   1.305578   2.139341   2.169099
     8  H    2.065978   2.295270   1.076600   2.144958   3.206560
     9  H    2.316587   2.523207   2.134541   1.005269   2.039263
                    6          7          8          9
     6  N    0.000000
     7  N    1.352101   0.000000
     8  H    3.172530   2.133310   0.000000
     9  H    3.039640   3.124987   2.615123   0.000000
 Stoichiometry    CH2N4
 Framework group  CS[SG(CH2N4)]
 Deg. of freedom    11
 Full point group                 CS      NOp   2
 Largest Abelian subgroup         CS      NOp   2
 Largest concise Abelian subgroup C1      NOp   1
                         Standard orientation:                         
 ---------------------------------------------------------------------
 Center     Atomic      Atomic             Coordinates (Angstroms)
 Number     Number       Type             X           Y           Z
 ---------------------------------------------------------------------
      1          6           0        1.061768    0.232279    0.000000
      2          7           0        0.000000    1.045470    0.000000
      3          7           0       -1.107880    0.300279    0.000000
      4          7           0       -0.720890   -0.917646    0.000000
      5          7           0        0.628738   -0.999393    0.000000
      6          1           0        2.088441    0.556331    0.000000
      7          1           0       -0.058827    2.049016    0.000000
 ---------------------------------------------------------------------
 Rotational constants (GHZ):     10.6803418     10.5305532      5.3024593
 Standard basis: Aug-CC-pVTZ (5D, 7F)
 There are   221 symmetry adapted cartesian basis functions of A'  symmetry.
 There are   104 symmetry adapted cartesian basis functions of A"  symmetry.
 There are   182 symmetry adapted basis functions of A'  symmetry.
 There are    94 symmetry adapted basis functions of A"  symmetry.
   276 basis functions,   414 primitive gaussians,   325 cartesian basis functions
    18 alpha electrons       18 beta electrons
       nuclear repulsion energy       168.0495132898 Hartrees.
 NAtoms=    7 NActive=    7 NUniq=    7 SFac= 1.00D+00 NAtFMM=   60 NAOKFM=F Big=F
 Integral buffers will be    131072 words long.
 Raffenetti 2 integral format.
 Two-electron integral symmetry is turned on.
 One-electron integrals computed using PRISM.
 NBasis=   276 RedAO= T EigKep=  3.47D-05  NBF=   182    94
 NBsUse=   276 1.00D-06 EigRej= -1.00D+00 NBFU=   182    94
 Initial guess from the checkpoint file:  "/tmp/rdj3/g09-23219/Gau-21232.chk"
 B after Tr=     0.000000    0.000000    0.000000
         Rot=    0.999999    0.000000    0.000000   -0.001131 Ang=  -0.13 deg.
 Initial guess orbital symmetries:
       Occupied  (A') (A') (A') (A') (A') (A') (A') (A') (A') (A')
                 (A') (A") (A') (A') (A") (A") (A') (A')
       Virtual   (A') (A') (A') (A') (A') (A') (A') (A') (A') (A')
                 (A') (A') (A') (A') (A') (A') (A') (A') (A') (A')
                 (A') (A') (A') (A') (A') (A') (A') (A') (A') (A')
                 (A') (A') (A') (A') (A') (A') (A') (A') (A') (A')
                 (A') (A') (A') (A') (A') (A') (A') (A') (A') (A')
                 (A') (A') (A') (A') (A') (A') (A') (A') (A') (A')
                 (A') (A') (A') (A') (A') (A') (A') (A') (A') (A')
                 (A') (A') (A') (A') (A') (A') (A') (A') (A') (A')
                 (A') (A') (A') (A') (A') (A') (A') (A') (A') (A')
                 (A') (A') (A') (A') (A') (A') (A') (A') (A') (A')
                 (A') (A') (A') (A') (A') (A') (A') (A') (A') (A')
                 (A') (A') (A') (A') (A') (A') (A') (A') (A') (A')
                 (A') (A') (A') (A') (A') (A') (A') (A') (A') (A')
                 (A') (A') (A') (A') (A') (A') (A') (A') (A') (A')
                 (A') (A') (A') (A') (A') (A') (A') (A') (A') (A')
                 (A') (A') (A') (A') (A') (A') (A') (A') (A') (A')
                 (A') (A') (A') (A') (A') (A') (A') (A") (A") (A")
                 (A") (A") (A") (A") (A") (A") (A") (A") (A") (A")
                 (A") (A") (A") (A") (A") (A") (A") (A") (A") (A")
                 (A") (A") (A") (A") (A") (A") (A") (A") (A") (A")
                 (A") (A") (A") (A") (A") (A") (A") (A") (A") (A")
                 (A") (A") (A") (A") (A") (A") (A") (A") (A") (A")
                 (A") (A") (A") (A") (A") (A") (A") (A") (A") (A")
                 (A") (A") (A") (A") (A") (A") (A") (A") (A") (A")
                 (A") (A") (A") (A") (A") (A") (A") (A") (A") (A")
                 (A") (A") (A") (A") (A") (A") (A") (A")
 Requested convergence on RMS density matrix=1.00D-08 within 128 cycles.
 Requested convergence on MAX density matrix=1.00D-06.
 Requested convergence on             energy=1.00D-06.
 No special actions if energy rises.
 SCF Done:  E(RHSEH1PBE) =  -258.087700731     A.U. after    8 cycles
            NFock=  8  Conv=0.91D-08     -V/T= 2.0056
 Calling FoFJK, ICntrl=      2127 FMM=F ISym2X=1 I1Cent= 0 IOpClX= 0 NMat=1 NMatS=1 NMatT=0.
 ***** Axes restored to original set *****
 -------------------------------------------------------------------
 Center     Atomic                   Forces (Hartrees/Bohr)
 Number     Number              X              Y              Z
 -------------------------------------------------------------------
      1        6          -0.000462311   -0.000959569    0.000000000
      2        7           0.000000208    0.000017743    0.000000000
      3        7          -0.000219335   -0.001743674    0.000000000
      4        7           0.002761110    0.001188088    0.000000000
      5        7          -0.001823686    0.001467921    0.000000000
      6        1          -0.000128402    0.000065661    0.000000000
      7        1          -0.000127585   -0.000036169    0.000000000
 -------------------------------------------------------------------
 Cartesian Forces:  Max     0.002761110 RMS     0.000945607
 -----------------------------------------------------------------------------------------------
                       Internal Coordinate Forces (Hartree/Bohr or radian)
  Cent   Atom   N1       Length/X         N2         Alpha/Y        N3         Beta/Z          J
 -----------------------------------------------------------------------------------------------
         X 
         X        1   0.000000(     1)
      1  C        1  -0.000657(     2)      2   0.000000(     9)
      2  N        1   0.000111(     3)      2   0.000000(    10)      3   0.000289(    16)     0
      3  N        1   0.001431(     4)      2   0.000000(    11)      3  -0.002237(    17)     0
      4  N        1  -0.002596(     5)      2   0.000000(    12)      3   0.003223(    18)     0
      5  N        1   0.001420(     6)      2   0.000000(    13)      3  -0.003044(    19)     0
      6  H        3  -0.000113(     7)      4   0.000183(    14)      5   0.000000(    20)     0
      7  H        4  -0.000023(     8)      5  -0.000248(    15)      6   0.000000(    21)     0
 -----------------------------------------------------------------------------------------------
 Internal  Forces:  Max     0.003222806 RMS     0.001311024

 GradGradGradGradGradGradGradGradGradGradGradGradGradGradGradGradGradGrad
 Berny optimization.
 Search for a local minimum.
 Step number   4 out of a maximum of   22
 All quantities printed in internal units (Hartrees-Bohrs-Radians)
 Update second derivatives using D2CorN and points    1    2    3    4
 DE= -2.14D-05 DEPred=-3.77D-05 R= 5.68D-01
 TightC=F SS=  1.41D+00  RLast= 2.87D-02 DXNew= 5.0454D-01 8.6106D-02
 Trust test= 5.68D-01 RLast= 2.87D-02 DXMaxT set to 3.00D-01
 The second derivative matrix:
                          rn1       rn2       rn3       rn4       rch
           rn1          0.65781
           rn2          0.02765   0.65572
           rn3          0.02050   0.01958   0.62721
           rn4          0.05694   0.01213   0.13301   0.62652
           rch          0.00566  -0.00828  -0.00150   0.00095   0.37637
           rnh          0.00735  -0.01153  -0.00363  -0.00032   0.00106
           an1          0.04132  -0.73363   0.05643  -0.09332   0.00705
           an2          0.71296  -0.27896  -0.61321   0.08788   0.02312
           an3         -0.02283   0.98970  -0.01188  -0.62919  -0.02133
           an4          0.03351  -0.01719   0.69820  -0.09068   0.00131
           ach          0.04740   0.00081  -0.00049   0.04830   0.00010
           anh         -0.10568   0.05164   0.00348   0.00129  -0.00037
                          rnh       an1       an2       an3       an4
           rnh          0.48803
           an1          0.00796   4.52536
           an2          0.02795  -2.67580   6.07177
           an3         -0.02755  -0.06172  -3.18965   4.43932
           an4          0.00291  -0.12558  -0.06658  -1.12654   2.57316
           ach          0.00003  -0.10629  -0.00224  -0.00227   0.07450
           anh         -0.00035   0.03540  -0.08921   0.00370   0.00076
                          ach       anh
           ach          0.31974
           anh          0.00013   0.32018
 ITU=  1  0  1  0
     Eigenvalues ---   -0.00140   0.14624   0.28482   0.34157   0.37608
     Eigenvalues ---    0.39870   0.48781   0.75092   1.20663   2.99325
     Eigenvalues ---    5.07240   9.62418
 RFO step:  Lambda=-1.41721478D-03 EMin=-1.39930061D-03
 I=     1 Eig=   -1.40D-03 Dot1=  9.52D-05
 I=     1 Stepn=  6.00D-01 RXN=   6.00D-01 EDone=F
 Mixed    1 eigenvectors in step.  Raw Step.Grad=  9.52D-05.
 RFO eigenvector is Hessian eigenvector with negative curvature.
 Taking step of  6.00D-01 in eigenvector direction(s).  Step.Grad=  3.06D-04.
 Quartic linear search produced a step of -0.28262.
 Maximum step size (   0.300) exceeded in Quadratic search.
    -- Step size scaled by   0.500
 Variable       Old X    -DE/DX   Delta X   Delta X   Delta X     New X
                                 (Linear)    (Quad)   (Total)
   rn1        2.48194   0.00011   0.00426  -0.12446  -0.12020   2.36174
   rn2        2.66403   0.00143   0.00164  -0.10029  -0.09865   2.56538
   rn3        2.12653  -0.00260  -0.00420  -0.01181  -0.01602   2.11052
   rn4        1.63564   0.00142  -0.00187   0.15969   0.15782   1.79346
   rch        2.03448  -0.00011   0.00040  -0.00056  -0.00016   2.03432
   rnh        1.89968  -0.00002   0.00036   0.00008   0.00045   1.90013
   an1        1.20632   0.00029  -0.00127   0.05371   0.05244   1.25875
   an2        2.22898  -0.00224  -0.00325   0.10393   0.10069   2.32967
   an3        3.26369   0.00322  -0.00335   0.13899   0.13564   3.39933
   an4        4.73818  -0.00304  -0.00029   0.07601   0.07572   4.81389
   ach        2.18227   0.00018  -0.00029  -0.00356  -0.00385   2.17842
   anh        2.10436  -0.00025  -0.00012  -0.00417  -0.00428   2.10008
         Item               Value     Threshold  Converged?
 Maximum Force            0.003223     0.000450     NO 
 RMS     Force            0.001724     0.000300     NO 
 Maximum Displacement     0.157819     0.001800     NO 
 RMS     Displacement     0.084850     0.001200     NO 
 Predicted change in Energy=-1.646332D-04
 GradGradGradGradGradGradGradGradGradGradGradGradGradGradGradGradGradGrad

 ---------------------------------------------------------------------------------------------------
                            Z-MATRIX (ANGSTROMS AND DEGREES)
   CD    Cent   Atom    N1       Length/X        N2       Alpha/Y        N3        Beta/Z          J
 ---------------------------------------------------------------------------------------------------
      1         X 
      2         X        1   1.000000(     1)
      3      1  C        1   1.000000(     2)      2   90.000(     9)
      4      2  N        1   1.249778(     3)      2   90.000(    10)      3   72.121(    16)      0
      5      3  N        1   1.357540(     4)      2   90.000(    11)      3  133.480(    17)      0
      6      4  N        1   1.116837(     5)      2   90.000(    12)      3  194.767(    18)      0
      7      5  N        1   0.949059(     6)      2   90.000(    13)      3  275.816(    19)      0
      8      6  H        3   1.076514(     7)      4  124.814(    14)      5  180.000(    20)      0
      9      7  H        4   1.005505(     8)      5  120.326(    15)      6  180.000(    21)      0
 ---------------------------------------------------------------------------------------------------
                         Z-Matrix orientation:                         
 ---------------------------------------------------------------------
 Center     Atomic      Atomic             Coordinates (Angstroms)
 Number     Number       Type             X           Y           Z
 ---------------------------------------------------------------------
      1         -1           0        0.000000    0.000000    0.000000
      2         -1           0        0.000000    0.000000    1.000000
      3          6           0        1.000000    0.000000    0.000000
      4          7           0        0.383688   -1.189424    0.000000
      5          7           0       -0.934125   -0.985050    0.000000
      6          7           0       -1.079947    0.284673    0.000000
      7          7           0        0.096169    0.944174    0.000000
      8          1           0        2.067493    0.139072    0.000000
      9          1           0        0.752372   -2.124898    0.000000
 ---------------------------------------------------------------------
                    Distance matrix (angstroms):
                    1          2          3          4          5
     1  X    0.000000
     2  X    1.000000   0.000000
     3  C    1.000000   1.414214   0.000000
     4  N    1.249778   1.600608   1.339616   0.000000
     5  N    1.357540   1.686094   2.170522   1.333566   0.000000
     6  N    1.116837   1.499108   2.099338   2.077303   1.278069
     7  N    0.949059   1.378664   1.307048   2.152884   2.187102
     8  H    2.072165   2.300841   1.076514   2.144785   3.205209
     9  H    2.254164   2.466020   2.139278   1.005505   2.035566
                    6          7          8          9
     6  N    0.000000
     7  N    1.348404   0.000000
     8  H    3.150806   2.129391   0.000000
     9  H    3.027115   3.138440   2.618225   0.000000
 Stoichiometry    CH2N4
 Framework group  CS[SG(CH2N4)]
 Deg. of freedom    11
 Full point group                 CS      NOp   2
 Largest Abelian subgroup         CS      NOp   2
 Largest concise Abelian subgroup C1      NOp   1
                         Standard orientation:                         
 ---------------------------------------------------------------------
 Center     Atomic      Atomic             Coordinates (Angstroms)
 Number     Number       Type             X           Y           Z
 ---------------------------------------------------------------------
      1          6           0        1.056860    0.222875    0.000000
      2          7           0        0.000000    1.046050    0.000000
      3          7           0       -1.111919    0.309820    0.000000
      4          7           0       -0.713950   -0.904710    0.000000
      5          7           0        0.630134   -1.012552    0.000000
      6          1           0        2.084833    0.542490    0.000000
      7          1           0       -0.055846    2.050003    0.000000
 ---------------------------------------------------------------------
 Rotational constants (GHZ):     10.8251153     10.4046488      5.3053591
 Standard basis: Aug-CC-pVTZ (5D, 7F)
 There are   221 symmetry adapted cartesian basis functions of A'  symmetry.
 There are   104 symmetry adapted cartesian basis functions of A"  symmetry.
 There are   182 symmetry adapted basis functions of A'  symmetry.
 There are    94 symmetry adapted basis functions of A"  symmetry.
   276 basis functions,   414 primitive gaussians,   325 cartesian basis functions
    18 alpha electrons       18 beta electrons
       nuclear repulsion energy       168.1073714037 Hartrees.
 NAtoms=    7 NActive=    7 NUniq=    7 SFac= 1.00D+00 NAtFMM=   60 NAOKFM=F Big=F
 Integral buffers will be    131072 words long.
 Raffenetti 2 integral format.
 Two-electron integral symmetry is turned on.
 One-electron integrals computed using PRISM.
 NBasis=   276 RedAO= T EigKep=  3.46D-05  NBF=   182    94
 NBsUse=   276 1.00D-06 EigRej= -1.00D+00 NBFU=   182    94
 Initial guess from the checkpoint file:  "/tmp/rdj3/g09-23219/Gau-21232.chk"
 B after Tr=     0.000000    0.000000    0.000000
         Rot=    0.999998    0.000000    0.000000    0.002116 Ang=   0.24 deg.
 Initial guess orbital symmetries:
       Occupied  (A') (A') (A') (A') (A') (A') (A') (A') (A') (A')
                 (A') (A") (A') (A') (A") (A") (A') (A')
       Virtual   (A') (A') (A') (A') (A') (A') (A') (A') (A') (A')
                 (A') (A') (A') (A') (A') (A') (A') (A') (A') (A')
                 (A') (A') (A') (A') (A') (A') (A') (A') (A') (A')
                 (A') (A') (A') (A') (A') (A') (A') (A') (A') (A')
                 (A') (A') (A') (A') (A') (A') (A') (A') (A') (A')
                 (A') (A') (A') (A') (A') (A') (A') (A') (A') (A')
                 (A') (A') (A') (A') (A') (A') (A') (A') (A') (A')
                 (A') (A') (A') (A') (A') (A') (A') (A') (A') (A')
                 (A') (A') (A') (A') (A') (A') (A') (A') (A') (A')
                 (A') (A') (A') (A') (A') (A') (A') (A') (A') (A')
                 (A') (A') (A') (A') (A') (A') (A') (A') (A') (A')
                 (A') (A') (A') (A') (A') (A') (A') (A') (A') (A')
                 (A') (A') (A') (A') (A') (A') (A') (A') (A') (A')
                 (A') (A') (A') (A') (A') (A') (A') (A') (A') (A')
                 (A') (A') (A') (A') (A') (A') (A') (A') (A') (A')
                 (A') (A') (A') (A') (A') (A') (A') (A') (A') (A')
                 (A') (A') (A') (A') (A') (A') (A') (A") (A") (A")
                 (A") (A") (A") (A") (A") (A") (A") (A") (A") (A")
                 (A") (A") (A") (A") (A") (A") (A") (A") (A") (A")
                 (A") (A") (A") (A") (A") (A") (A") (A") (A") (A")
                 (A") (A") (A") (A") (A") (A") (A") (A") (A") (A")
                 (A") (A") (A") (A") (A") (A") (A") (A") (A") (A")
                 (A") (A") (A") (A") (A") (A") (A") (A") (A") (A")
                 (A") (A") (A") (A") (A") (A") (A") (A") (A") (A")
[...]
   XX=             -1.0147   YY=              1.5062   ZZ=             -0.4915
   XY=              1.8562   XZ=              0.0000   YZ=              0.0000
 Octapole moment (field-independent basis, Debye-Ang**2):
  XXX=             12.2486  YYY=             22.6446  ZZZ=              0.0000  XYY=             -0.5941
  XXY=              4.7174  XXZ=              0.0000  XZZ=             -0.5290  YZZ=              0.7405
  YYZ=              0.0000  XYZ=              0.0000
 Hexadecapole moment (field-independent basis, Debye-Ang**3):
 XXXX=           -145.0605 YYYY=           -123.5769 ZZZZ=            -27.3828 XXXY=              7.2834
 XXXZ=              0.0000 YYYX=             -0.0914 YYYZ=              0.0000 ZZZX=              0.0000
 ZZZY=              0.0000 XXYY=            -55.1040 XXZZ=            -31.4429 YYZZ=            -29.8364
 XXYZ=              0.0000 YYXZ=              0.0000 ZZXY=              0.0164
 N-N= 1.680667397598D+02 E-N=-9.385623578936D+02  KE= 2.566467876895D+02
 Symmetry A'   KE= 2.472046823843D+02
 Symmetry A"   KE= 9.442105305281D+00
  Exact polarizability:  45.080   0.537  44.519   0.000   0.000  26.147
 Approx polarizability:  75.254   0.448  78.672   0.000   0.000  39.348
 Calling FoFJK, ICntrl=    100127 FMM=F ISym2X=1 I1Cent= 0 IOpClX= 0 NMat=1 NMatS=1 NMatT=0.
 Full mass-weighted force constant matrix:
 Low frequencies ---   -6.1914   -0.0012   -0.0011   -0.0008    3.9958    4.8274
 Low frequencies ---  616.2548  703.4838  757.3497
 Diagonal vibrational polarizability:
        1.1038107       1.0380319       6.9676576
 Harmonic frequencies (cm**-1), IR intensities (KM/Mole), Raman scattering
 activities (A**4/AMU), depolarization ratios for plane and unpolarized
 incident light, reduced masses (AMU), force constants (mDyne/A),
 and normal coordinates:
                      1                      2                      3
                     A"                     A"                     A"
 Frequencies --    616.2548               703.4837               757.3497
 Red. masses --      1.7073                 1.9709                 8.3631
 Frc consts  --      0.3820                 0.5747                 2.8263
 IR Inten    --     79.4768                 7.3378                 7.7664
  Atom  AN      X      Y      Z        X      Y      Z        X      Y      Z
     1   6     0.00   0.00  -0.08     0.00   0.00   0.17     0.00   0.00  -0.09
     2   7     0.00   0.00   0.20     0.00   0.00  -0.10     0.00   0.00  -0.13
     3   7     0.00   0.00  -0.08     0.00   0.00   0.10     0.00   0.00   0.43
     4   7     0.00   0.00   0.00     0.00   0.00   0.04     0.00   0.00  -0.50
     5   7     0.00   0.00   0.03     0.00   0.00  -0.17     0.00   0.00   0.33
     6   1     0.00   0.00  -0.26     0.00   0.00   0.54     0.00   0.00  -0.14
     7   1     0.00   0.00  -0.94     0.00   0.00  -0.79     0.00   0.00  -0.64
                      4                      5                      6
                     A"                     A'                     A'
 Frequencies --    878.0525               991.2461              1027.2642
 Red. masses --      1.3986                 4.1664                 5.9318
 Frc consts  --      0.6353                 2.4120                 3.6881
 IR Inten    --     16.3983                 3.2820                 0.9035
  Atom  AN      X      Y      Z        X      Y      Z        X      Y      Z
     1   6     0.00   0.00   0.18     0.12   0.11   0.00    -0.34  -0.06   0.00
     2   7     0.00   0.00  -0.04     0.09   0.02   0.00     0.01   0.41   0.00
     3   7     0.00   0.00   0.00     0.12  -0.13   0.00     0.14  -0.06   0.00
     4   7     0.00   0.00  -0.01     0.00  -0.17   0.00     0.20  -0.08   0.00
     5   7     0.00   0.00  -0.03    -0.31   0.23   0.00    -0.05  -0.20   0.00
     6   1     0.00   0.00  -0.98     0.36  -0.65   0.00    -0.18  -0.62   0.00
     7   1     0.00   0.00  -0.04    -0.45  -0.01   0.00     0.07   0.43   0.00
                      7                      8                      9
                     A'                     A'                     A'
 Frequencies --   1083.2531              1093.0117              1158.3604
 Red. masses --      3.8941                 3.5296                 2.0666
 Frc consts  --      2.6922                 2.4844                 1.6338
 IR Inten    --     17.7425                28.9458                12.5165
  Atom  AN      X      Y      Z        X      Y      Z        X      Y      Z
     1   6    -0.07   0.00   0.00    -0.07   0.05   0.00     0.08  -0.11   0.00
     2   7    -0.16  -0.15   0.00     0.07  -0.13   0.00    -0.14  -0.03   0.00
     3   7     0.31   0.19   0.00    -0.17   0.03   0.00    -0.08   0.05   0.00
     4   7     0.11  -0.01   0.00     0.31   0.02   0.00     0.14   0.13   0.00
     5   7    -0.14  -0.06   0.00    -0.20   0.03   0.00     0.02   0.00   0.00
     6   1    -0.28   0.60   0.00    -0.13   0.19   0.00     0.29  -0.79   0.00
     7   1    -0.56  -0.18   0.00     0.86  -0.10   0.00    -0.46  -0.05   0.00
                     10                     11                     12
                     A'                     A'                     A'
 Frequencies --   1284.4441              1328.2226              1478.6957
 Red. masses --      2.4687                10.5913                 3.3694
 Frc consts  --      2.3997                11.0089                 4.3407
 IR Inten    --      1.6168                13.0357                 8.7200
  Atom  AN      X      Y      Z        X      Y      Z        X      Y      Z
     1   6     0.17   0.03   0.00     0.28   0.08   0.00    -0.18   0.26   0.00
     2   7     0.07   0.10   0.00    -0.13   0.15   0.00     0.21  -0.14   0.00
     3   7    -0.11  -0.07   0.00    -0.20   0.48   0.00    -0.07   0.10   0.00
     4   7     0.06   0.07   0.00     0.02  -0.58   0.00    -0.01  -0.02   0.00
     5   7    -0.12  -0.18   0.00     0.03  -0.13   0.00     0.07  -0.11   0.00
     6   1     0.01   0.64   0.00     0.37  -0.06   0.00     0.03  -0.51   0.00
     7   1    -0.68   0.07   0.00     0.25   0.22   0.00    -0.70  -0.22   0.00
                     13                     14                     15
                     A'                     A'                     A'
 Frequencies --   1528.0419              3294.2226              3678.8643
 Red. masses --      3.5078                 1.1018                 1.0838
 Frc consts  --      4.8256                 7.0443                 8.6426
 IR Inten    --     16.3931                 1.9319                96.8970
  Atom  AN      X      Y      Z        X      Y      Z        X      Y      Z
     1   6     0.11   0.30   0.00     0.09   0.03   0.00     0.00   0.00   0.00
     2   7    -0.17  -0.03   0.00     0.00   0.00   0.00    -0.01   0.08   0.00
     3   7     0.10  -0.08   0.00     0.00   0.00   0.00     0.00   0.00   0.00
     4   7    -0.06   0.10   0.00     0.00   0.00   0.00     0.00   0.00   0.00
     5   7    -0.05  -0.21   0.00     0.00   0.00   0.00     0.00   0.00   0.00
     6   1     0.37  -0.37   0.00    -0.95  -0.30   0.00    -0.02   0.00   0.00
     7   1     0.72   0.02   0.00     0.01   0.02   0.00     0.06  -1.00   0.00

 -------------------
 - Thermochemistry -
 -------------------
 Temperature   298.150 Kelvin.  Pressure   1.00000 Atm.
 Atom     1 has atomic number  6 and mass  12.00000
 Atom     2 has atomic number  7 and mass  14.00307
 Atom     3 has atomic number  7 and mass  14.00307
 Atom     4 has atomic number  7 and mass  14.00307
 Atom     5 has atomic number  7 and mass  14.00307
 Atom     6 has atomic number  1 and mass   1.00783
 Atom     7 has atomic number  1 and mass   1.00783
 Molecular mass:    70.02795 amu.
 Principal axes and moments of inertia in atomic units:
                           1         2         3
     Eigenvalues --   168.85577 171.42064 340.27641
           X            0.84545   0.53405   0.00000
           Y           -0.53405   0.84545   0.00000
           Z            0.00000   0.00000   1.00000
 This molecule is an asymmetric top.
 Rotational symmetry number  1.
 Rotational temperatures (Kelvin)      0.51295     0.50527     0.25454
 Rotational constants (GHZ):          10.68806    10.52814     5.30375
 Zero-point vibrational energy     125014.3 (Joules/Mol)
                                   29.87915 (Kcal/Mol)
 Warning -- explicit consideration of   1 degrees of freedom as
           vibrations may cause significant error
 Vibrational temperatures:    886.65  1012.15  1089.66  1263.32  1426.18
          (Kelvin)           1478.00  1558.56  1572.60  1666.62  1848.03
                             1911.01  2127.51  2198.51  4739.65  5293.06
 
 Zero-point correction=                           0.047615 (Hartree/Particle)
 Thermal correction to Energy=                    0.051036
 Thermal correction to Enthalpy=                  0.051980
 Thermal correction to Gibbs Free Energy=         0.021563
 Sum of electronic and zero-point Energies=           -258.040099
 Sum of electronic and thermal Energies=              -258.036679
 Sum of electronic and thermal Enthalpies=            -258.035735
 Sum of electronic and thermal Free Energies=         -258.066152
 
                     E (Thermal)             CV                S
                      KCal/Mol        Cal/Mol-Kelvin    Cal/Mol-Kelvin
 Total                   32.025             11.025             64.018
 Electronic               0.000              0.000              0.000
 Translational            0.889              2.981             38.656
 Rotational               0.889              2.981             23.803
 Vibrational             30.248              5.063              1.559
 Vibration     1          0.976              0.998              0.423
                       Q            Log10(Q)             Ln(Q)
 Total Bot       0.120726D-09         -9.918198        -22.837494
 Total V=0       0.962372D+12         11.983343         27.592667
 Vib (Bot)       0.147533D-21        -21.831112        -50.267992
 Vib (Bot)    1  0.238243D+00         -0.622980         -1.434464
 Vib (V=0)       0.117606D+01          0.070429          0.162168
 Vib (V=0)    1  0.105386D+01          0.022782          0.052459
 Electronic      0.100000D+01          0.000000          0.000000
 Translational   0.230336D+08          7.362362         16.952466
 Rotational      0.355265D+05          4.550552         10.478033
 ***** Axes restored to original set *****
 -------------------------------------------------------------------
 Center     Atomic                   Forces (Hartrees/Bohr)
 Number     Number              X              Y              Z
 -------------------------------------------------------------------
      1        6           0.000018841    0.000032658    0.000000000
      2        7          -0.000048541   -0.000010338    0.000000000
      3        7           0.000081629   -0.000073928    0.000000000
      4        7           0.000006403    0.000104625    0.000000000
      5        7          -0.000058525   -0.000056096    0.000000000
      6        1          -0.000004167   -0.000000253    0.000000000
      7        1           0.000004360    0.000003331    0.000000000
 -------------------------------------------------------------------
 Cartesian Forces:  Max     0.000104625 RMS     0.000040012
 -----------------------------------------------------------------------------------------------
                       Internal Coordinate Forces (Hartree/Bohr or radian)
  Cent   Atom   N1       Length/X         N2         Alpha/Y        N3         Beta/Z          J
 -----------------------------------------------------------------------------------------------
         X 
         X        1   0.000000(     1)
      1  C        1   0.000014(     2)      2   0.000000(     9)
      2  N        1  -0.000012(     3)      2   0.000000(    10)      3   0.000102(    16)     0
      3  N        1   0.000007(     4)      2   0.000000(    11)      3  -0.000294(    17)     0
      4  N        1   0.000012(     5)      2   0.000000(    12)      3   0.000222(    18)     0
      5  N        1  -0.000059(     6)      2   0.000000(    13)      3  -0.000094(    19)     0
      6  H        3  -0.000004(     7)      4   0.000001(    14)      5   0.000000(    20)     0
      7  H        4  -0.000001(     8)      5   0.000010(    15)      6   0.000000(    21)     0
 -----------------------------------------------------------------------------------------------
 Internal  Forces:  Max     0.000294423 RMS     0.000087063

 GradGradGradGradGradGradGradGradGradGradGradGradGradGradGradGradGradGrad
 Berny optimization.
 Search for a local minimum.
 Step number   1 out of a maximum of    2
 All quantities printed in internal units (Hartrees-Bohrs-Radians)
 Second derivative matrix not updated -- analytic derivatives used.
 The second derivative matrix:
                          rn1       rn2       rn3       rn4       rch
           rn1          0.60734
           rn2         -0.04839   0.60670
           rn3          0.07304  -0.01517   0.56885
           rn4          0.10037   0.08470   0.00661   0.57341
           rch         -0.00316  -0.00147   0.00051  -0.00333   0.38012
           rnh          0.01239  -0.00685  -0.00002  -0.00020   0.00037
           an1          0.10384  -0.38073  -0.23138   0.14287   0.01314
           an2          0.26611  -0.12438  -0.40410  -0.16986   0.00153
           an3          0.24124   0.50595   0.20604  -0.26381   0.00001
           an4         -0.13033   0.16120   0.30051  -0.15426  -0.01453
           ach          0.03570   0.01270  -0.01441   0.02939   0.00248
           anh         -0.05108   0.02093   0.02491  -0.02024  -0.00099
                          rnh       an1       an2       an3       an4
           rnh          0.48035
           an1         -0.01262   2.78144
           an2          0.01868  -1.17413   3.14503
           an3         -0.00239  -0.35122  -1.47471   2.28452
           an4         -0.00099  -0.24792  -0.24043  -0.29223   1.35661
           ach          0.00035  -0.00102  -0.02126  -0.00632   0.07971
           anh          0.00018  -0.03768  -0.01110   0.00889  -0.00362
                          ach       anh
           ach          0.21232
           anh          0.00114   0.21148
 ITU=  0
     Eigenvalues ---    0.00000   0.15986   0.20971   0.27977   0.38029
     Eigenvalues ---    0.47968   0.63371   0.70999   0.81857   1.74876
     Eigenvalues ---    3.15631   4.63154
 Quadratic step=2.559D+01 exceeds max=3.000D-01 adjusted using Lamda=-1.038D-04.
 Angle between NR and scaled steps=   0.03 degrees.
 Angle between quadratic step and forces=  85.44 degrees.
 Linear search not attempted -- first point.
 Variable       Old X    -DE/DX   Delta X   Delta X   Delta X     New X
                                 (Linear)    (Quad)   (Total)
   rn1        2.43158  -0.00001   0.00000   0.13331   0.13331   2.56488
   rn2        2.62219   0.00001   0.00000   0.10856   0.10856   2.73075
   rn3        2.12882   0.00001   0.00000  -0.02488  -0.02488   2.10394
   rn4        1.69243  -0.00006   0.00000  -0.14163  -0.14163   1.55079
   rch        2.03423   0.00000   0.00000  -0.00003  -0.00003   2.03420
   rnh        1.89965   0.00000   0.00000   0.00002   0.00002   1.89968
   an1        1.22640   0.00010   0.00000  -0.05532  -0.05532   1.17108
   an2        2.26939  -0.00029   0.00000  -0.10991  -0.10991   2.15948
   an3        3.31861   0.00022   0.00000  -0.14062  -0.14062   3.17799
   an4        4.76473  -0.00009   0.00000  -0.07063  -0.07063   4.69409
   ach        2.18251   0.00000   0.00000   0.00007   0.00007   2.18258
   anh        2.10386   0.00001   0.00000  -0.00005  -0.00005   2.10381
         Item               Value     Threshold  Converged?
 Maximum Force            0.000294     0.000450     YES
 RMS     Force            0.000115     0.000300     YES
 Maximum Displacement     0.141631     0.001800     NO 
 RMS     Displacement     0.086668     0.001200     NO 
 Predicted change in Energy=-9.433363D-06
 GradGradGradGradGradGradGradGradGradGradGradGradGradGradGradGradGradGrad

 1\1\GINC-N366\Freq\RHSEH1PBE\Aug-CC-pVTZ\C1H2N4\RDJ3\26-Nov-2013\1\\#N
  Geom=AllCheck Guess=TCheck SCRF=Check GenChk RHSEH1PBE/Aug-CC-pVTZ Fr
 eq\\1H-tetrazole CH2N4 casno=288948 state=1 config=1 method=57 basis=1
 8\\0,1\X\X,1,1.\C,1,1.,2,90.\N,1,rn1,2,90.,3,an1,0\N,1,rn2,2,90.,3,an2
 ,0\N,1,rn3,2,90.,3,an3,0\N,1,rn4,2,90.,3,an4,0\H,3,rch,4,ach,5,180.,0\
 H,4,rnh,5,anh,6,180.,0\\rn1=1.28673465\rn2=1.38760576\rn3=1.12652505\r
 n4=0.89559337\rch=1.07646856\rnh=1.00525358\an1=70.26768468\an2=130.02
 659673\an3=190.14236378\an4=272.9986875\ach=125.04863238\anh=120.54223
 745\\Version=EM64L-G09RevD.01\State=1-A'\HF=-258.0877148\RMSD=5.934e-0
 9\RMSF=4.001e-05\ZeroPoint=0.0476155\Thermal=0.0510357\Dipole=1.733515
 2,-1.1983611,0.\DipoleDeriv=0.1885725,0.0463655,0.,-0.1056746,0.444716
 1,0.,0.,0.,0.0800445,-0.229218,0.2917924,0.,0.2246246,-0.3276849,0.,0.
 ,0.,-0.1078598,0.136072,-0.3436424,0.,-0.2772453,-0.2294931,0.,0.,0.,-
 0.1017434,0.0327358,0.1590197,0.,0.1966209,0.028317,0.,0.,0.,-0.158995
 4,-0.3870967,-0.1273556,0.,-0.0221059,-0.3092484,0.,0.,0.,-0.2068649,0
 .0589791,0.0119709,0.,0.0051427,0.1121502,0.,0.,0.,0.1717558,0.1999552
 ,-0.0381505,0.,-0.0213624,0.281243,0.,0.,0.,0.323663\Polar=45.3997152,
 -0.0781787,44.1987889,0.,0.,26.1468259\PG=CS [SG(C1H2N4)]\NImag=0\\0.9
 7228313,0.03515065,0.62920200,0.,0.,0.14788137,-0.16463135,-0.07533197
 ,0.,0.61183216,-0.10452338,-0.29598804,0.,-0.13499541,1.00870220,0.,0.
 ,-0.06786721,0.,0.,0.10131555,-0.09162018,-0.09476386,0.,-0.24178459,-
 0.03613249,0.,0.47190228,-0.00128603,-0.03215072,0.,-0.00058039,-0.108
 53259,0.,0.06415116,0.60974304,0.,0.,0.02252135,0.,0.,-0.07370787,0.,0
 .,0.12125421,-0.12489372,0.06617212,0.,-0.08681230,0.03791980,0.,-0.11
 811072,0.01479483,0.,0.53327511,-0.03745007,0.03268912,0.,0.11860102,-
 0.09599904,0.,0.07154399,-0.35846024,0.,-0.10205352,0.53967156,0.,0.,0
 .02035151,0.,0.,0.02838402,0.,0.,-0.10188600,0.,0.,0.13038453,-0.25346
 410,0.13665392,0.,0.01403882,0.09625982,0.,-0.02014183,-0.11446213,0.,
 -0.19029374,-0.05482800,0.,0.46440878,0.14546589,-0.26182796,0.,-0.022
 02647,-0.10241216,0.,-0.00471572,-0.10865048,0.,-0.01839988,-0.1181151
 9,0.,-0.08546894,0.58266867,0.,0.,-0.08302631,0.,0.,0.02266472,0.,0.,0
 .03739644,0.,0.,-0.09434541,0.,0.,0.11462548,-0.35448283,-0.05702131,0
 .,-0.00106659,0.00232534,0.,0.00061060,0.00233254,0.,-0.00166490,0.000
 55874,0.,-0.01277066,-0.00512943,0.,0.36975024,-0.05306089,-0.06588434
 ,0.,-0.03236131,0.00126920,0.,-0.00084381,-0.00682043,0.,0.00652383,-0
 .00262657,0.,0.02199057,0.01251313,0.,0.05747466,0.06167963,0.,0.,-0.0
 3145774,0.,0.,-0.00194165,0.,0.,0.00629166,0.,0.,0.00905118,0.,0.,-0.0
 0469745,0.,0.,0.02382160,0.01680905,-0.01085955,0.,-0.13157615,0.13914
 632,0.,-0.00085556,0.03505003,0.,-0.01149973,0.00362783,0.,-0.00177727
 ,-0.00972545,0.,-0.00037585,0.00027694,0.,0.12927553,0.01570382,-0.006
 04006,0.,0.14669453,-0.40703958,0.,0.00076074,0.00487143,0.,-0.0049571
 8,0.00284036,0.,-0.00014524,-0.00417601,0.,-0.00054055,-0.00013062,0.,
 -0.15751612,0.40967448,0.,0.,-0.00840297,0.,0.,-0.00884755,0.,0.,-0.01
 186979,0.,0.,0.00806017,0.,0.,0.00738254,0.,0.,-0.00106759,0.,0.,0.014
 74519\\-0.00001884,-0.00003266,0.,0.00004854,0.00001034,0.,-0.00008163
 ,0.00007393,0.,-0.00000640,-0.00010463,0.,0.00005852,0.00005610,0.,0.0
 0000417,0.00000025,0.,-0.00000436,-0.00000333,0.\\\@


 IT IS WELL TO REMEMBER THAT MAN IS A PART OF NATURE AND THAT HIS WORKS,
 WHATEVER THEY MAY BE, ARE NO MORE "UNNATURAL" THAN 
 THE FLIGHT OF AN EAGLE OR THE PASSAGE OF A TORNADO.

                                    -- CHARLES MCCARRY IN "THE GREAT SOUTHWEST"
 Job cpu time:       0 days  1 hours 47 minutes 26.6 seconds.
 File lengths (MBytes):  RWF=     50 Int=      0 D2E=      0 Chk=      6 Scr=      1
 Normal termination of Gaussian 09 at Tue Nov 26 10:15:43 2013.
