 Entering Gaussian System, Link 0=g09
 Initial command:
 /usr/local/gaussian/g09.d01.em64t.legacy.linda/g09/l1.exe "/tmp/rdj3/g09-23219/Gau-24428.inp" -scrdir="/tmp/rdj3/g09-23219/"
 Entering Link 1 = /usr/local/gaussian/g09.d01.em64t.legacy.linda/g09/l1.exe PID=     24429.
  
 Copyright (c) 1988,1990,1992,1993,1995,1998,2003,2009,2013,
            Gaussian, Inc.  All Rights Reserved.
  
 This is part of the Gaussian(R) 09 program.  It is based on
 the Gaussian(R) 03 system (copyright 2003, Gaussian, Inc.),
 the Gaussian(R) 98 system (copyright 1998, Gaussian, Inc.),
 the Gaussian(R) 94 system (copyright 1995, Gaussian, Inc.),
 the Gaussian 92(TM) system (copyright 1992, Gaussian, Inc.),
 the Gaussian 90(TM) system (copyright 1990, Gaussian, Inc.),
 the Gaussian 88(TM) system (copyright 1988, Gaussian, Inc.),
 the Gaussian 86(TM) system (copyright 1986, Carnegie Mellon
 University), and the Gaussian 82(TM) system (copyright 1983,
 Carnegie Mellon University). Gaussian is a federally registered
 trademark of Gaussian, Inc.
  
 This software contains proprietary and confidential information,
 including trade secrets, belonging to Gaussian, Inc.
  
 This software is provided under written license and may be
 used, copied, transmitted, or stored only in accord with that
 written license.
  
 The following legend is applicable only to US Government
 contracts under FAR:
  
                    RESTRICTED RIGHTS LEGEND
  
 Use, reproduction and disclosure by the US Government is
 subject to restrictions as set forth in subparagraphs (a)
 and (c) of the Commercial Computer Software - Restricted
 Rights clause in FAR 52.227-19.
  
 Gaussian, Inc.
 340 Quinnipiac St., Bldg. 40, Wallingford CT 06492
  
  
 ---------------------------------------------------------------
 Warning -- This program may not be used in any manner that
 competes with the business of Gaussian, Inc. or will provide
 assistance to any competitor of Gaussian, Inc.  The licensee
 of this program is prohibited from giving any competitor of
 Gaussian, Inc. access to this program.  By using this program,
 the user acknowledges that Gaussian, Inc. is engaged in the
 business of creating and licensing software in the field of
 computational chemistry and represents and warrants to the
 licensee that it is not a competitor of Gaussian, Inc. and that
 it will not use this program in any manner prohibited above.
 ---------------------------------------------------------------
  

 Cite this work as:
 Gaussian 09, Revision D.01,
 M. J. Frisch, G. W. Trucks, H. B. Schlegel, G. E. Scuseria, 
 M. A. Robb, J. R. Cheeseman, G. Scalmani, V. Barone, B. Mennucci, 
 G. A. Petersson, H. Nakatsuji, M. Caricato, X. Li, H. P. Hratchian, 
 A. F. Izmaylov, J. Bloino, G. Zheng, J. L. Sonnenberg, M. Hada, 
 M. Ehara, K. Toyota, R. Fukuda, J. Hasegawa, M. Ishida, T. Nakajima, 
 Y. Honda, O. Kitao, H. Nakai, T. Vreven, J. A. Montgomery, Jr., 
 J. E. Peralta, F. Ogliaro, M. Bearpark, J. J. Heyd, E. Brothers, 
 K. N. Kudin, V. N. Staroverov, T. Keith, R. Kobayashi, J. Normand, 
 K. Raghavachari, A. Rendell, J. C. Burant, S. S. Iyengar, J. Tomasi, 
 M. Cossi, N. Rega, J. M. Millam, M. Klene, J. E. Knox, J. B. Cross, 
 V. Bakken, C. Adamo, J. Jaramillo, R. Gomperts, R. E. Stratmann, 
 O. Yazyev, A. J. Austin, R. Cammi, C. Pomelli, J. W. Ochterski, 
 R. L. Martin, K. Morokuma, V. G. Zakrzewski, G. A. Voth, 
 P. Salvador, J. J. Dannenberg, S. Dapprich, A. D. Daniels, 
 O. Farkas, J. B. Foresman, J. V. Ortiz, J. Cioslowski, 
 and D. J. Fox, Gaussian, Inc., Wallingford CT, 2013.
 
 ******************************************
 Gaussian 09:  EM64L-G09RevD.01 24-Apr-2013
                26-Nov-2013 
 ******************************************
 %Nproc=8
 Will use up to    8 processors via shared memory.
 %mem=436000000
 ----------------------------------
 #HSEh1PBE/6-31G* opt=z-matrix freq
 ----------------------------------
 1/10=7,14=-1,18=40,26=3,38=1/1,3;
 2/12=2,17=6,18=5,29=3,40=1/2;
 3/5=1,6=6,7=1,11=2,16=1,25=1,30=1,71=1,74=-51/1,2,3;
 4//1;
 5/5=2,38=5/2;
 6/7=2,8=2,9=2,10=2,28=1/1;
 7/29=1/1,2,3,16;
 1/10=7,14=-1,18=40,26=3/3(2);
 2/29=3/2;
 99//99;
 2/29=3/2;
 3/5=1,6=6,7=1,11=2,16=1,25=1,30=1,71=1,74=-51/1,2,3;
 4/5=5,16=3,69=1/1;
 5/5=2,38=5/2;
 7//1,2,3,16;
 1/14=-1,18=40,26=3/3(-5);
 2/29=3/2;
 6/7=2,8=2,9=2,10=2,19=2,28=1/1;
 99/9=1/99;
 ------------------------------------------------------------------
 1H-tetrazole CH2N4 casno=288948 state=1 config=1 method=57 basis=1
 ------------------------------------------------------------------
 Symbolic Z-matrix:
 Charge =  0 Multiplicity = 1
 X
 X                    1     1. 
 C                    1     1.       2     90. 
 N                    1    rn1      2     90.      3    an1      0
 N                    1    rn2      2     90.      3    an2      0
 N                    1    rn3      2     90.      3    an3      0
 N                    1    rn4      2     90.      3    an4      0
 H                    3    rch      4    ach      5     180.     0
 H                    4    rnh      5    anh      6     180.     0
       Variables:
  rn1                   1.2426                   
  rn2                   1.333                    
  rn3                   1.1146                   
  rn4                   0.9264                   
  rch                   1.0678                   
  rnh                   0.9941                   
  an1                  71.8427                   
  an2                 133.7028                   
  an3                 194.4597                   
  an4                 276.0768                   
  ach                 125.0248                   
  anh                 120.7626                   
 

 GradGradGradGradGradGradGradGradGradGradGradGradGradGradGradGradGradGrad
 Berny optimization.
 Initialization pass.
                       ----------------------------
                       !    Initial Parameters    !
                       ! (Angstroms and Degrees)  !
 ----------------------                            ----------------------
 !      Name          Value   Derivative information (Atomic Units)     !
 ------------------------------------------------------------------------
 !       rn1         1.2426   estimate D2E/DX2                          !
 !       rn2         1.333    estimate D2E/DX2                          !
 !       rn3         1.1146   estimate D2E/DX2                          !
 !       rn4         0.9264   estimate D2E/DX2                          !
 !       rch         1.0678   estimate D2E/DX2                          !
 !       rnh         0.9941   estimate D2E/DX2                          !
 !       an1        71.8427   estimate D2E/DX2                          !
 !       an2       133.7028   estimate D2E/DX2                          !
 !       an3       194.4597   estimate D2E/DX2                          !
 !       an4       276.0768   estimate D2E/DX2                          !
 !       ach       125.0248   estimate D2E/DX2                          !
 !       anh       120.7626   estimate D2E/DX2                          !
 ------------------------------------------------------------------------
 Trust Radius=3.00D-01 FncErr=1.00D-07 GrdErr=1.00D-06
 Number of steps in this run=     22 maximum allowed number of steps=    100.
 GradGradGradGradGradGradGradGradGradGradGradGradGradGradGradGradGradGrad

 ---------------------------------------------------------------------------------------------------
                            Z-MATRIX (ANGSTROMS AND DEGREES)
   CD    Cent   Atom    N1       Length/X        N2       Alpha/Y        N3        Beta/Z          J
 ---------------------------------------------------------------------------------------------------
      1         X 
      2         X        1   1.000000(     1)
      3      1  C        1   1.000000(     2)      2   90.000(     9)
      4      2  N        1   1.242600(     3)      2   90.000(    10)      3   71.843(    16)      0
      5      3  N        1   1.333000(     4)      2   90.000(    11)      3  133.703(    17)      0
      6      4  N        1   1.114600(     5)      2   90.000(    12)      3  194.460(    18)      0
      7      5  N        1   0.926400(     6)      2   90.000(    13)      3  276.077(    19)      0
      8      6  H        3   1.067800(     7)      4  125.025(    14)      5  180.000(    20)      0
      9      7  H        4   0.994100(     8)      5  120.763(    15)      6  180.000(    21)      0
 ---------------------------------------------------------------------------------------------------
                         Z-Matrix orientation:                         
 ---------------------------------------------------------------------
 Center     Atomic      Atomic             Coordinates (Angstroms)
 Number     Number       Type             X           Y           Z
 ---------------------------------------------------------------------
      1         -1           0        0.000000    0.000000    0.000000
      2         -1           0        0.000000    0.000000    1.000000
      3          6           0        1.000000    0.000000    0.000000
      4          7           0        0.387228   -1.180724    0.000000
      5          7           0       -0.920993   -0.963670    0.000000
      6          7           0       -1.079293    0.278314    0.000000
      7          7           0        0.098070    0.921194    0.000000
      8          1           0        2.058429    0.141157    0.000000
      9          1           0        0.749017   -2.106652    0.000000
 ---------------------------------------------------------------------
                    Distance matrix (angstroms):
                    1          2          3          4          5
     1  X    0.000000
     2  X    1.000000   0.000000
     3  C    1.000000   1.414214   0.000000
     4  N    1.242600   1.595009   1.330263   0.000000
     5  N    1.333000   1.666400   2.149157   1.326105   0.000000
     6  N    1.114600   1.497442   2.097837   2.068690   1.252032
     7  N    0.926400   1.363164   1.289216   2.121715   2.142710
     8  H    2.063263   2.292827   1.067800   2.130794   3.177672
     9  H    2.235847   2.449288   2.121551   0.994100   2.023695
                    6          7          8          9
     6  N    0.000000
     7  N    1.341447   0.000000
     8  H    3.140719   2.109850   0.000000
     9  H    3.005127   3.097029   2.601385   0.000000
 Stoichiometry    CH2N4
 Framework group  CS[SG(CH2N4)]
 Deg. of freedom    11
 Full point group                 CS      NOp   2
 Largest Abelian subgroup         CS      NOp   2
 Largest concise Abelian subgroup C1      NOp   1
                         Standard orientation:                         
 ---------------------------------------------------------------------
 Center     Atomic      Atomic             Coordinates (Angstroms)
 Number     Number       Type             X           Y           Z
 ---------------------------------------------------------------------
      1          6           0        1.052733    0.225621    0.000000
      2          7           0        0.000000    1.038857    0.000000
      3          7           0       -1.095416    0.291448    0.000000
      4          7           0       -0.716382   -0.901832    0.000000
      5          7           0        0.622191   -0.989579    0.000000
      6          1           0        2.072287    0.542964    0.000000
      7          1           0       -0.061439    2.031056    0.000000
 ---------------------------------------------------------------------
 Rotational constants (GHZ):     10.9201517     10.7345054      5.4132664
 Standard basis: 6-31G(d) (6D, 7F)
 There are    59 symmetry adapted cartesian basis functions of A'  symmetry.
 There are    20 symmetry adapted cartesian basis functions of A"  symmetry.
 There are    59 symmetry adapted basis functions of A'  symmetry.
 There are    20 symmetry adapted basis functions of A"  symmetry.
    79 basis functions,   148 primitive gaussians,    79 cartesian basis functions
    18 alpha electrons       18 beta electrons
       nuclear repulsion energy       169.8308489506 Hartrees.
 NAtoms=    7 NActive=    7 NUniq=    7 SFac= 1.00D+00 NAtFMM=   60 NAOKFM=F Big=F
 Integral buffers will be    131072 words long.
 Raffenetti 2 integral format.
 Two-electron integral symmetry is turned on.
 One-electron integrals computed using PRISM.
 NBasis=    79 RedAO= T EigKep=  3.48D-03  NBF=    59    20
 NBsUse=    79 1.00D-06 EigRej= -1.00D+00 NBFU=    59    20
 ExpMin= 1.61D-01 ExpMax= 4.17D+03 ExpMxC= 6.27D+02 IAcc=1 IRadAn=         1 AccDes= 0.00D+00
 Harris functional with IExCor= 1009 and IRadAn=       1 diagonalized for initial guess.
 HarFok:  IExCor= 1009 AccDes= 0.00D+00 IRadAn=         1 IDoV= 1 UseB2=F ITyADJ=14
 ICtDFT=  3500011 ScaDFX=  1.000000  1.000000  1.000000  1.000000
 FoFCou: FMM=F IPFlag=           0 FMFlag=      100000 FMFlg1=           0
         NFxFlg=           0 DoJE=T BraDBF=F KetDBF=T FulRan=T
         wScrn=  0.000000 ICntrl=     500 IOpCl=  0 I1Cent=   200000004 NGrid=           0
         NMat0=    1 NMatS0=      1 NMatT0=    0 NMatD0=    1 NMtDS0=    0 NMtDT0=    0
 Petite list used in FoFCou.
 Initial guess orbital symmetries:
       Occupied  (A') (A') (A') (A') (A') (A') (A') (A') (A') (A')
                 (A') (A') (A") (A') (A") (A') (A") (A')
       Virtual   (A") (A") (A') (A') (A') (A') (A') (A') (A') (A')
                 (A") (A') (A') (A') (A') (A') (A") (A") (A') (A")
                 (A') (A") (A') (A') (A') (A') (A') (A') (A') (A")
                 (A") (A") (A') (A') (A") (A") (A') (A') (A') (A')
                 (A') (A') (A") (A") (A') (A') (A") (A") (A') (A')
                 (A") (A') (A') (A') (A') (A') (A') (A') (A') (A')
                 (A')
 The electronic state of the initial guess is 1-A'.
 Keep R1 ints in memory in symmetry-blocked form, NReq=15350670.
 Requested convergence on RMS density matrix=1.00D-08 within 128 cycles.
 Requested convergence on MAX density matrix=1.00D-06.
 Requested convergence on             energy=1.00D-06.
 No special actions if energy rises.
 Integral accuracy reduced to 1.0D-05 until final iterations.
 Initial convergence to 1.0D-05 achieved.  Increase integral accuracy.
 SCF Done:  E(RHSEH1PBE) =  -257.989689076     A.U. after   14 cycles
            NFock= 14  Conv=0.66D-08     -V/T= 2.0070

 **********************************************************************

            Population analysis using the SCF density.

 **********************************************************************

 Orbital symmetries:
       Occupied  (A') (A') (A') (A') (A') (A') (A') (A') (A') (A')
                 (A') (A") (A') (A') (A") (A") (A') (A')
       Virtual   (A") (A") (A') (A') (A') (A') (A') (A') (A') (A")
                 (A') (A') (A') (A') (A") (A') (A') (A") (A') (A")
                 (A') (A") (A') (A') (A') (A') (A') (A') (A') (A")
                 (A") (A") (A') (A') (A") (A") (A') (A') (A') (A')
                 (A') (A') (A") (A") (A') (A') (A") (A") (A') (A')
                 (A") (A') (A') (A') (A') (A') (A') (A') (A') (A')
                 (A')
 The electronic state is 1-A'.
 Alpha  occ. eigenvalues --  -14.49796 -14.45866 -14.43968 -14.41004 -10.30806
 Alpha  occ. eigenvalues --   -1.18542  -0.97034  -0.91904  -0.69366  -0.67981
 Alpha  occ. eigenvalues --   -0.61040  -0.51295  -0.50647  -0.38420  -0.33437
 Alpha  occ. eigenvalues --   -0.31386  -0.29957  -0.28414
 Alpha virt. eigenvalues --   -0.01880   0.01990   0.05929   0.11167   0.19177
 Alpha virt. eigenvalues --    0.20664   0.30083   0.32900   0.43490   0.51891
 Alpha virt. eigenvalues --    0.52184   0.60020   0.60496   0.66420   0.67005
 Alpha virt. eigenvalues --    0.67870   0.69518   0.71099   0.73280   0.79615
 Alpha virt. eigenvalues --    0.82526   0.83959   0.85006   0.87159   0.93602
 Alpha virt. eigenvalues --    1.00301   1.04935   1.08612   1.23499   1.26557
 Alpha virt. eigenvalues --    1.33049   1.36539   1.40151   1.46154   1.55205
 Alpha virt. eigenvalues --    1.57067   1.65739   1.87528   1.95348   2.04482
 Alpha virt. eigenvalues --    2.07746   2.18250   2.19923   2.25456   2.33672
 Alpha virt. eigenvalues --    2.37532   2.38999   2.46068   2.55920   2.56617
 Alpha virt. eigenvalues --    2.65771   2.68406   2.73354   2.97743   3.01494
 Alpha virt. eigenvalues --    3.05389   3.52643   3.64754   3.99214   4.07062
 Alpha virt. eigenvalues --    4.17854
          Condensed to atoms (all electrons):
               1          2          3          4          5          6
     1  C    4.875896   0.306536  -0.116730  -0.105831   0.426457   0.381883
     2  N    0.306536   6.838876   0.191857  -0.089130  -0.072929  -0.043080
     3  N   -0.116730   0.191857   6.779042   0.279283  -0.080232   0.002594
     4  N   -0.105831  -0.089130   0.279283   6.709584   0.276463   0.004741
     5  N    0.426457  -0.072929  -0.080232   0.276463   6.787851  -0.029267
     6  H    0.381883  -0.043080   0.002594   0.004741  -0.029267   0.454723
     7  H   -0.024368   0.308707  -0.024155   0.006850   0.005844   0.001287
               7
     1  C   -0.024368
     2  N    0.308707
     3  N   -0.024155
     4  N    0.006850
     5  N    0.005844
     6  H    0.001287
     7  H    0.340469
 Mulliken charges:
               1
     1  C    0.256157
     2  N   -0.440836
     3  N   -0.031659
     4  N   -0.081960
     5  N   -0.314188
     6  H    0.227119
     7  H    0.385367
 Sum of Mulliken charges =   0.00000
 Mulliken charges with hydrogens summed into heavy atoms:
               1
     1  C    0.483276
     2  N   -0.055469
     3  N   -0.031659
     4  N   -0.081960
     5  N   -0.314188
 Electronic spatial extent (au):  <R**2>=            243.6363
 Charge=              0.0000 electrons
 Dipole moment (field-independent basis, Debye):
    X=              2.4637    Y=              4.7502    Z=              0.0000  Tot=              5.3511
 Quadrupole moment (field-independent basis, Debye-Ang):
   XX=            -28.4775   YY=            -25.9674   ZZ=            -27.9449
   XY=              1.7400   XZ=              0.0000   YZ=              0.0000
 Traceless Quadrupole moment (field-independent basis, Debye-Ang):
   XX=             -1.0142   YY=              1.4958   ZZ=             -0.4816
   XY=              1.7400   XZ=              0.0000   YZ=              0.0000
 Octapole moment (field-independent basis, Debye-Ang**2):
  XXX=             11.3940  YYY=             21.7692  ZZZ=              0.0000  XYY=             -0.6003
  XXY=              4.4243  XXZ=              0.0000  XZZ=             -0.6169  YZZ=              0.5197
  YYZ=              0.0000  XYZ=              0.0000
 Hexadecapole moment (field-independent basis, Debye-Ang**3):
 XXXX=           -136.5565 YYYY=           -114.8174 ZZZZ=            -24.1615 XXXY=              6.1377
 XXXZ=              0.0000 YYYX=             -0.4848 YYYZ=              0.0000 ZZZX=              0.0000
 ZZZY=              0.0000 XXYY=            -51.2398 XXZZ=            -29.0361 YYZZ=            -27.4235
 XXYZ=              0.0000 YYXZ=              0.0000 ZZXY=             -0.1188
 N-N= 1.698308489506D+02 E-N=-9.414809817757D+02  KE= 2.562060992077D+02
 Symmetry A'   KE= 2.467794479795D+02
 Symmetry A"   KE= 9.426651228205D+00
 Calling FoFJK, ICntrl=      2127 FMM=F ISym2X=1 I1Cent= 0 IOpClX= 0 NMat=1 NMatS=1 NMatT=0.
 ***** Axes restored to original set *****
 -------------------------------------------------------------------
 Center     Atomic                   Forces (Hartrees/Bohr)
 Number     Number              X              Y              Z
 -------------------------------------------------------------------
      1        6           0.017348482   -0.006261159    0.000000000
      2        7           0.004298224   -0.002262053    0.000000000
      3        7          -0.012866987   -0.039480760    0.000000000
      4        7          -0.017677717    0.032488878    0.000000000
      5        7          -0.004840561    0.027692731    0.000000000
      6        1           0.008954577    0.001068274    0.000000000
      7        1           0.004783983   -0.013245910    0.000000000
 -------------------------------------------------------------------
 Cartesian Forces:  Max     0.039480760 RMS     0.014680838
 -----------------------------------------------------------------------------------------------
                       Internal Coordinate Forces (Hartree/Bohr or radian)
  Cent   Atom   N1       Length/X         N2         Alpha/Y        N3         Beta/Z          J
 -----------------------------------------------------------------------------------------------
         X 
         X        1   0.000000(     1)
      1  C        1   0.026392(     2)      2   0.000000(     9)
      2  N        1   0.017737(     3)      2   0.000000(    10)      3  -0.008455(    16)     0
      3  N        1   0.037206(     4)      2   0.000000(    11)      3  -0.044894(    17)     0
      4  N        1   0.025230(     5)      2   0.000000(    12)      3   0.056966(    18)     0
      5  N        1   0.027025(     6)      2   0.000000(    13)      3  -0.013559(    19)     0
      6  H        3   0.009017(     7)      4  -0.000252(    14)      5   0.000000(    20)     0
      7  H        4   0.014079(     8)      5  -0.000685(    15)      6   0.000000(    21)     0
 -----------------------------------------------------------------------------------------------
 Internal  Forces:  Max     0.056965920 RMS     0.021334346

 GradGradGradGradGradGradGradGradGradGradGradGradGradGradGradGradGradGrad
 Berny optimization.
 Search for a local minimum.
 Step number   1 out of a maximum of   22
 All quantities printed in internal units (Hartrees-Bohrs-Radians)
 Second derivative matrix not updated -- first step.
 The second derivative matrix:
                          rn1       rn2       rn3       rn4       rch
           rn1          0.65186
           rn2          0.01318   0.69869
           rn3          0.03472   0.07334   0.58262
           rn4          0.03688   0.02662   0.13967   0.63921
           rch          0.00000   0.00000   0.00000   0.00000   0.37510
           rnh          0.00000   0.00000   0.00000   0.00000   0.00000
           an1          0.02012  -0.75016   0.04258  -0.08486   0.00000
           an2          0.72119  -0.31234  -0.71865   0.05436   0.00000
           an3         -0.02914   1.04797   0.05412  -0.58583   0.00000
           an4          0.05328  -0.03228   0.65851  -0.10009   0.00000
           ach          0.04546   0.00000   0.00000   0.05066   0.00000
           anh         -0.10206   0.05276   0.00000   0.00000   0.00000
                          rnh       an1       an2       an3       an4
           rnh          0.48741
           an1          0.00000   4.53257
           an2          0.00000  -2.68051   6.02300
           an3          0.00000  -0.03573  -3.19618   4.47465
           an4          0.00000  -0.12258  -0.06592  -1.16042   2.58479
           ach          0.00000  -0.10460   0.00000   0.00000   0.07318
           anh          0.00000   0.03519  -0.09059   0.00000   0.00000
                          ach       anh
           ach          0.32000
           anh          0.00000   0.32000
 ITU=  0
     Eigenvalues ---    0.00000   0.13346   0.26445   0.33044   0.37510
     Eigenvalues ---    0.40158   0.48741   0.75609   1.20990   2.99509
     Eigenvalues ---    5.09563   9.64077
 RFO step:  Lambda=-5.02669811D-03 EMin=-6.95624114D-16
 Linear search not attempted -- first point.
 Variable       Old X    -DE/DX   Delta X   Delta X   Delta X     New X
                                 (Linear)    (Quad)   (Total)
   rn1        2.34817   0.01774   0.00000   0.01661   0.01661   2.36479
   rn2        2.51900   0.03721   0.00000   0.05175   0.05175   2.57075
   rn3        2.10629   0.02523   0.00000   0.04791   0.04791   2.15420
   rn4        1.75064   0.02702   0.00000   0.03136   0.03136   1.78201
   rch        2.01785   0.00902   0.00000   0.02372   0.02372   2.04157
   rnh        1.87858   0.01408   0.00000   0.02859   0.02859   1.90717
   an1        1.25389  -0.00845   0.00000   0.00934   0.00934   1.26323
   an2        2.33355  -0.04489   0.00000   0.00493   0.00493   2.33849
   an3        3.39396   0.05697   0.00000   0.00439   0.00439   3.39835
   an4        4.81845  -0.01356   0.00000  -0.01331  -0.01331   4.80514
   ach        2.18209  -0.00025   0.00000  -0.00198  -0.00198   2.18011
   anh        2.10770  -0.00069   0.00000  -0.00493  -0.00493   2.10278
         Item               Value     Threshold  Converged?
 Maximum Force            0.056966     0.000450     NO 
 RMS     Force            0.027175     0.000300     NO 
 Maximum Displacement     0.051749     0.001800     NO 
 RMS     Displacement     0.025738     0.001200     NO 
 Predicted change in Energy=-2.533324D-03
 GradGradGradGradGradGradGradGradGradGradGradGradGradGradGradGradGradGrad

 ---------------------------------------------------------------------------------------------------
                            Z-MATRIX (ANGSTROMS AND DEGREES)
   CD    Cent   Atom    N1       Length/X        N2       Alpha/Y        N3        Beta/Z          J
 ---------------------------------------------------------------------------------------------------
      1         X 
      2         X        1   1.000000(     1)
      3      1  C        1   1.000000(     2)      2   90.000(     9)
      4      2  N        1   1.251391(     3)      2   90.000(    10)      3   72.378(    16)      0
      5      3  N        1   1.360384(     4)      2   90.000(    11)      3  133.986(    17)      0
      6      4  N        1   1.139954(     5)      2   90.000(    12)      3  194.711(    18)      0
      7      5  N        1   0.942997(     6)      2   90.000(    13)      3  275.314(    19)      0
      8      6  H        3   1.080353(     7)      4  124.911(    14)      5  180.000(    20)      0
      9      7  H        4   1.009229(     8)      5  120.480(    15)      6  180.000(    21)      0
 ---------------------------------------------------------------------------------------------------
                         Z-Matrix orientation:                         
 ---------------------------------------------------------------------
 Center     Atomic      Atomic             Coordinates (Angstroms)
 Number     Number       Type             X           Y           Z
 ---------------------------------------------------------------------
      1         -1           0        0.000000    0.000000    0.000000
      2         -1           0        0.000000    0.000000    1.000000
      3          6           0        1.000000    0.000000    0.000000
      4          7           0        0.378847   -1.192667    0.000000
      5          7           0       -0.944755   -0.978817    0.000000
      6          7           0       -1.102585    0.289486    0.000000
      7          7           0        0.087335    0.938944    0.000000
      8          1           0        2.071355    0.139148    0.000000
      9          1           0        0.745493   -2.132940    0.000000
 ---------------------------------------------------------------------
                    Distance matrix (angstroms):
                    1          2          3          4          5
     1  X    0.000000
     2  X    1.000000   0.000000
     3  C    1.000000   1.414214   0.000000
     4  N    1.251391   1.601868   1.344725   0.000000
     5  N    1.360384   1.688385   2.177190   1.340766   0.000000
     6  N    1.139954   1.516408   2.122419   2.095571   1.278086
     7  N    0.942997   1.374497   1.309417   2.151451   2.177847
     8  H    2.076023   2.304316   1.080353   2.153674   3.216638
     9  H    2.259468   2.470869   2.148071   1.009229   2.046689
                    6          7          8          9
     6  N    0.000000
     7  N    1.355619   0.000000
     8  H    3.177498   2.139161   0.000000
     9  H    3.046890   3.141599   2.630645   0.000000
 Stoichiometry    CH2N4
 Framework group  CS[SG(CH2N4)]
 Deg. of freedom    11
 Full point group                 CS      NOp   2
 Largest Abelian subgroup         CS      NOp   2
 Largest concise Abelian subgroup C1      NOp   1
                         Standard orientation:                         
 ---------------------------------------------------------------------
 Center     Atomic      Atomic             Coordinates (Angstroms)
 Number     Number       Type             X           Y           Z
 ---------------------------------------------------------------------
      1          6           0        1.064570    0.229510    0.000000
      2          7           0        0.000000    1.051079    0.000000
      3          7           0       -1.111440    0.301175    0.000000
      4          7           0       -0.722077   -0.916158    0.000000
      5          7           0        0.630569   -1.005891    0.000000
      6          1           0        2.095316    0.553122    0.000000
      7          1           0       -0.062100    2.058395    0.000000
 ---------------------------------------------------------------------
 Rotational constants (GHZ):     10.6373947     10.4408202      5.2690954
 Standard basis: 6-31G(d) (6D, 7F)
 There are    59 symmetry adapted cartesian basis functions of A'  symmetry.
 There are    20 symmetry adapted cartesian basis functions of A"  symmetry.
 There are    59 symmetry adapted basis functions of A'  symmetry.
 There are    20 symmetry adapted basis functions of A"  symmetry.
    79 basis functions,   148 primitive gaussians,    79 cartesian basis functions
    18 alpha electrons       18 beta electrons
       nuclear repulsion energy       167.5304531499 Hartrees.
 NAtoms=    7 NActive=    7 NUniq=    7 SFac= 1.00D+00 NAtFMM=   60 NAOKFM=F Big=F
 Integral buffers will be    131072 words long.
 Raffenetti 2 integral format.
 Two-electron integral symmetry is turned on.
 One-electron integrals computed using PRISM.
 NBasis=    79 RedAO= T EigKep=  3.72D-03  NBF=    59    20
 NBsUse=    79 1.00D-06 EigRej= -1.00D+00 NBFU=    59    20
 Initial guess from the checkpoint file:  "/tmp/rdj3/g09-23219/Gau-24429.chk"
 B after Tr=     0.000000    0.000000    0.000000
         Rot=    1.000000    0.000000    0.000000    0.000022 Ang=   0.00 deg.
 Initial guess orbital symmetries:
       Occupied  (A') (A') (A') (A') (A') (A') (A') (A') (A') (A')
                 (A') (A") (A') (A') (A") (A") (A') (A')
       Virtual   (A') (A') (A') (A') (A') (A') (A') (A') (A') (A')
                 (A') (A') (A') (A') (A') (A') (A') (A') (A') (A')
                 (A') (A') (A') (A') (A') (A') (A') (A') (A') (A')
                 (A') (A') (A') (A') (A') (A') (A') (A') (A') (A')
                 (A') (A') (A') (A') (A") (A") (A") (A") (A") (A")
                 (A") (A") (A") (A") (A") (A") (A") (A") (A") (A")
                 (A")
 ExpMin= 1.61D-01 ExpMax= 4.17D+03 ExpMxC= 6.27D+02 IAcc=1 IRadAn=         1 AccDes= 0.00D+00
 Harris functional with IExCor= 1009 and IRadAn=       1 diagonalized for initial guess.
 HarFok:  IExCor= 1009 AccDes= 0.00D+00 IRadAn=         1 IDoV= 1 UseB2=F ITyADJ=14
 ICtDFT=  3500011 ScaDFX=  1.000000  1.000000  1.000000  1.000000
 FoFCou: FMM=F IPFlag=           0 FMFlag=      100000 FMFlg1=           0
         NFxFlg=           0 DoJE=T BraDBF=F KetDBF=T FulRan=T
         wScrn=  0.000000 ICntrl=     500 IOpCl=  0 I1Cent=   200000004 NGrid=           0
         NMat0=    1 NMatS0=      1 NMatT0=    0 NMatD0=    1 NMtDS0=    0 NMtDT0=    0
 Petite list used in FoFCou.
 Keep R1 ints in memory in symmetry-blocked form, NReq=15350670.
 Requested convergence on RMS density matrix=1.00D-08 within 128 cycles.
 Requested convergence on MAX density matrix=1.00D-06.
 Requested convergence on             energy=1.00D-06.
 No special actions if energy rises.
 Integral accuracy reduced to 1.0D-05 until final iterations.
 Initial convergence to 1.0D-05 achieved.  Increase integral accuracy.
 SCF Done:  E(RHSEH1PBE) =  -257.992288310     A.U. after   13 cycles
            NFock= 13  Conv=0.28D-08     -V/T= 2.0082
 Calling FoFJK, ICntrl=      2127 FMM=F ISym2X=1 I1Cent= 0 IOpClX= 0 NMat=1 NMatS=1 NMatT=0.
 ***** Axes restored to original set *****
 -------------------------------------------------------------------
 Center     Atomic                   Forces (Hartrees/Bohr)
 Number     Number              X              Y              Z
 -------------------------------------------------------------------
      1        6           0.001714633   -0.002960902    0.000000000
      2        7           0.001061231    0.003709889    0.000000000
      3        7          -0.000263893   -0.007407737    0.000000000
      4        7          -0.000519831    0.006741296    0.000000000
      5        7          -0.001214123   -0.000193287    0.000000000
      6        1          -0.000659054   -0.000145590    0.000000000
      7        1          -0.000118962    0.000256331    0.000000000
 -------------------------------------------------------------------
 Cartesian Forces:  Max     0.007407737 RMS     0.002481385
 -----------------------------------------------------------------------------------------------
                       Internal Coordinate Forces (Hartree/Bohr or radian)
  Cent   Atom   N1       Length/X         N2         Alpha/Y        N3         Beta/Z          J
 -----------------------------------------------------------------------------------------------
         X 
         X        1   0.000000(     1)
      1  C        1   0.001098(     2)      2   0.000000(     9)
      2  N        1  -0.003517(     3)      2   0.000000(    10)      3  -0.004869(    16)     0
      3  N        1   0.005502(     4)      2   0.000000(    11)      3  -0.012718(    17)     0
      4  N        1   0.002215(     5)      2   0.000000(    12)      3   0.013762(    18)     0
      5  N        1  -0.000305(     6)      2   0.000000(    13)      3  -0.002122(    19)     0
      6  H        3  -0.000672(     7)      4  -0.000121(    14)      5   0.000000(    20)     0
      7  H        4  -0.000282(     8)      5  -0.000034(    15)      6   0.000000(    21)     0
 -----------------------------------------------------------------------------------------------
 Internal  Forces:  Max     0.013761675 RMS     0.004518364

 GradGradGradGradGradGradGradGradGradGradGradGradGradGradGradGradGradGrad
 Berny optimization.
 Search for a local minimum.
 Step number   2 out of a maximum of   22
 All quantities printed in internal units (Hartrees-Bohrs-Radians)
 Update second derivatives using D2CorN and points    1    2
 DE= -2.60D-03 DEPred=-2.53D-03 R= 1.03D+00
 TightC=F SS=  1.41D+00  RLast= 8.92D-02 DXNew= 5.0454D-01 2.6748D-01
 Trust test= 1.03D+00 RLast= 8.92D-02 DXMaxT set to 3.00D-01
 The second derivative matrix:
                          rn1       rn2       rn3       rn4       rch
           rn1          0.65939
           rn2          0.01942   0.66456
           rn3          0.04351   0.05112   0.57072
           rn4          0.04447   0.01778   0.13717   0.64104
           rch          0.00620  -0.00525  -0.00056   0.00225   0.37746
           rnh          0.00692  -0.00804  -0.00227   0.00167   0.00206
           an1          0.02737  -0.73724   0.05624  -0.07489   0.00780
           an2          0.73562  -0.27249  -0.68086   0.07964   0.01926
           an3         -0.04250   1.00180   0.01217  -0.61280  -0.02028
           an4          0.05241  -0.02120   0.66636  -0.09643   0.00240
           ach          0.04513   0.00102   0.00058   0.05082   0.00007
           anh         -0.10316   0.05441   0.00064  -0.00013  -0.00023
                          rnh       an1       an2       an3       an4
           rnh          0.48894
           an1          0.00909   4.53835
           an2          0.02305  -2.67150   6.03091
           an3         -0.02459  -0.04245  -3.19693   4.46707
           an4          0.00334  -0.12549  -0.07595  -1.14835   2.58135
           ach          0.00015  -0.10514  -0.00156   0.00175   0.07283
           anh         -0.00012   0.03367  -0.09454   0.00426  -0.00064
                          ach       anh
           ach          0.31997
           anh         -0.00004   0.31999
 ITU=  1  0
     Eigenvalues ---    0.00001   0.12769   0.26431   0.32916   0.37723
     Eigenvalues ---    0.39956   0.48871   0.75962   1.20893   2.99318
     Eigenvalues ---    5.08216   9.62918
 RFO step:  Lambda=-8.63914239D-05 EMin= 1.08643744D-05
 Quartic linear search produced a step of  0.06346.
 Variable       Old X    -DE/DX   Delta X   Delta X   Delta X     New X
                                 (Linear)    (Quad)   (Total)
   rn1        2.36479  -0.00352   0.00105  -0.12586  -0.12481   2.23998
   rn2        2.57075   0.00550   0.00328  -0.08539  -0.08210   2.48865
   rn3        2.15420   0.00221   0.00304   0.03522   0.03826   2.19246
   rn4        1.78201  -0.00030   0.00199   0.12023   0.12222   1.90422
   rch        2.04157  -0.00067   0.00151  -0.00286  -0.00135   2.04022
   rnh        1.90717  -0.00028   0.00181  -0.00195  -0.00013   1.90703
   an1        1.26323  -0.00487   0.00059   0.04904   0.04963   1.31286
   an2        2.33849  -0.01272   0.00031   0.09993   0.10024   2.43873
   an3        3.39835   0.01376   0.00028   0.12340   0.12368   3.52203
   an4        4.80514  -0.00212  -0.00084   0.05688   0.05603   4.86117
   ach        2.18011  -0.00012  -0.00013   0.00148   0.00135   2.18146
   anh        2.10278  -0.00003  -0.00031  -0.00327  -0.00358   2.09920
         Item               Value     Threshold  Converged?
 Maximum Force            0.013762     0.000450     NO 
 RMS     Force            0.005969     0.000300     NO 
 Maximum Displacement     0.124809     0.001800     NO 
 RMS     Displacement     0.076204     0.001200     NO 
 Predicted change in Energy=-5.239905D-05
 GradGradGradGradGradGradGradGradGradGradGradGradGradGradGradGradGradGrad

 ---------------------------------------------------------------------------------------------------
                            Z-MATRIX (ANGSTROMS AND DEGREES)
   CD    Cent   Atom    N1       Length/X        N2       Alpha/Y        N3        Beta/Z          J
 ---------------------------------------------------------------------------------------------------
      1         X 
      2         X        1   1.000000(     1)
      3      1  C        1   1.000000(     2)      2   90.000(     9)
      4      2  N        1   1.185345(     3)      2   90.000(    10)      3   75.221(    16)      0
      5      3  N        1   1.316936(     4)      2   90.000(    11)      3  139.729(    17)      0
      6      4  N        1   1.160201(     5)      2   90.000(    12)      3  201.797(    18)      0
      7      5  N        1   1.007672(     6)      2   90.000(    13)      3  278.525(    19)      0
      8      6  H        3   1.079637(     7)      4  124.988(    14)      5  180.000(    20)      0
      9      7  H        4   1.009159(     8)      5  120.275(    15)      6  180.000(    21)      0
 ---------------------------------------------------------------------------------------------------
                         Z-Matrix orientation:                         
 ---------------------------------------------------------------------
 Center     Atomic      Atomic             Coordinates (Angstroms)
 Number     Number       Type             X           Y           Z
 ---------------------------------------------------------------------
      1         -1           0        0.000000    0.000000    0.000000
      2         -1           0        0.000000    0.000000    1.000000
      3          6           0        1.000000    0.000000    0.000000
      4          7           0        0.302368   -1.146131    0.000000
      5          7           0       -1.004817   -0.851272    0.000000
      6          7           0       -1.077251    0.430811    0.000000
      7          7           0        0.149371    0.996540    0.000000
      8          1           0        2.077435    0.068923    0.000000
      9          1           0        0.606902   -2.108244    0.000000
 ---------------------------------------------------------------------
                    Distance matrix (angstroms):
                    1          2          3          4          5
     1  X    0.000000
     2  X    1.000000   0.000000
     3  C    1.000000   1.414214   0.000000
     4  N    1.185345   1.550820   1.341755   0.000000
     5  N    1.316936   1.653578   2.178062   1.340028   0.000000
     6  N    1.160201   1.531688   2.121454   2.095256   1.284128
     7  N    1.007672   1.419649   1.310214   2.148127   2.178660
     8  H    2.078578   2.306618   1.079637   2.151097   3.216681
     9  H    2.193861   2.411021   2.144579   1.009159   2.043922
                    6          7          8          9
     6  N    0.000000
     7  N    1.350796   0.000000
     8  H    3.175374   2.139604   0.000000
     9  H    3.046830   3.138315   2.627266   0.000000
 Stoichiometry    CH2N4
 Framework group  CS[SG(CH2N4)]
 Deg. of freedom    11
 Full point group                 CS      NOp   2
 Largest Abelian subgroup         CS      NOp   2
 Largest concise Abelian subgroup C1      NOp   1
                         Standard orientation:                         
 ---------------------------------------------------------------------
 Center     Atomic      Atomic             Coordinates (Angstroms)
 Number     Number       Type             X           Y           Z
 ---------------------------------------------------------------------
      1          6           0        1.063839    0.231506    0.000000
      2          7           0        0.000000    1.049157    0.000000
      3          7           0       -1.113050    0.302970    0.000000
      4          7           0       -0.718517   -0.919048    0.000000
      5          7           0        0.629564   -1.004644    0.000000
      6          1           0        2.093698    0.555553    0.000000
      7          1           0       -0.062707    2.056366    0.000000
 ---------------------------------------------------------------------
 Rotational constants (GHZ):     10.6413924     10.4502575      5.2724794
 Standard basis: 6-31G(d) (6D, 7F)
 There are    59 symmetry adapted cartesian basis functions of A'  symmetry.
 There are    20 symmetry adapted cartesian basis functions of A"  symmetry.
 There are    59 symmetry adapted basis functions of A'  symmetry.
 There are    20 symmetry adapted basis functions of A"  symmetry.
    79 basis functions,   148 primitive gaussians,    79 cartesian basis functions
    18 alpha electrons       18 beta electrons
       nuclear repulsion energy       167.5679863506 Hartrees.
 NAtoms=    7 NActive=    7 NUniq=    7 SFac= 1.00D+00 NAtFMM=   60 NAOKFM=F Big=F
 Integral buffers will be    131072 words long.
 Raffenetti 2 integral format.
 Two-electron integral symmetry is turned on.
 One-electron integrals computed using PRISM.
 NBasis=    79 RedAO= T EigKep=  3.70D-03  NBF=    59    20
 NBsUse=    79 1.00D-06 EigRej= -1.00D+00 NBFU=    59    20
 Initial guess from the checkpoint file:  "/tmp/rdj3/g09-23219/Gau-24429.chk"
 B after Tr=     0.000000    0.000000    0.000000
         Rot=    1.000000    0.000000    0.000000   -0.000442 Ang=  -0.05 deg.
 Initial guess orbital symmetries:
       Occupied  (A') (A') (A') (A') (A') (A') (A') (A') (A') (A')
                 (A') (A") (A') (A') (A") (A") (A') (A')
       Virtual   (A') (A') (A') (A') (A') (A') (A') (A') (A') (A')
                 (A') (A') (A') (A') (A') (A') (A') (A') (A') (A')
                 (A') (A') (A') (A') (A') (A') (A') (A') (A') (A')
                 (A') (A') (A') (A') (A') (A') (A') (A') (A') (A')
                 (A') (A') (A') (A') (A") (A") (A") (A") (A") (A")
                 (A") (A") (A") (A") (A") (A") (A") (A") (A") (A")
                 (A")
 ExpMin= 1.61D-01 ExpMax= 4.17D+03 ExpMxC= 6.27D+02 IAcc=1 IRadAn=         1 AccDes= 0.00D+00
 Harris functional with IExCor= 1009 and IRadAn=       1 diagonalized for initial guess.
 HarFok:  IExCor= 1009 AccDes= 0.00D+00 IRadAn=         1 IDoV= 1 UseB2=F ITyADJ=14
 ICtDFT=  3500011 ScaDFX=  1.000000  1.000000  1.000000  1.000000
 FoFCou: FMM=F IPFlag=           0 FMFlag=      100000 FMFlg1=           0
         NFxFlg=           0 DoJE=T BraDBF=F KetDBF=T FulRan=T
         wScrn=  0.000000 ICntrl=     500 IOpCl=  0 I1Cent=   200000004 NGrid=           0
         NMat0=    1 NMatS0=      1 NMatT0=    0 NMatD0=    1 NMtDS0=    0 NMtDT0=    0
 Petite list used in FoFCou.
 Keep R1 ints in memory in symmetry-blocked form, NReq=15350670.
 Requested convergence on RMS density matrix=1.00D-08 within 128 cycles.
 Requested convergence on MAX density matrix=1.00D-06.
 Requested convergence on             energy=1.00D-06.
 No special actions if energy rises.
 Integral accuracy reduced to 1.0D-05 until final iterations.
 Initial convergence to 1.0D-05 achieved.  Increase integral accuracy.
 SCF Done:  E(RHSEH1PBE) =  -257.992350027     A.U. after   11 cycles
            NFock= 11  Conv=0.96D-08     -V/T= 2.0082
 Calling FoFJK, ICntrl=      2127 FMM=F ISym2X=1 I1Cent= 0 IOpClX= 0 NMat=1 NMatS=1 NMatT=0.
 ***** Axes restored to original set *****
 -------------------------------------------------------------------
 Center     Atomic                   Forces (Hartrees/Bohr)
 Number     Number              X              Y              Z
 -------------------------------------------------------------------
      1        6           0.001776702   -0.001545091    0.000000000
      2        7           0.000259220    0.000525201    0.000000000
      3        7          -0.000179580   -0.001589749    0.000000000
      4        7          -0.001947645    0.001336140    0.000000000
      5        7           0.000150632    0.001168225    0.000000000
      6        1          -0.000172159   -0.000052779    0.000000000
      7        1           0.000112830    0.000158054    0.000000000
 -------------------------------------------------------------------
 Cartesian Forces:  Max     0.001947645 RMS     0.000858646
 -----------------------------------------------------------------------------------------------
                       Internal Coordinate Forces (Hartree/Bohr or radian)
  Cent   Atom   N1       Length/X         N2         Alpha/Y        N3         Beta/Z          J
 -----------------------------------------------------------------------------------------------
         X 
         X        1   0.000000(     1)
      1  C        1   0.001633(     2)      2   0.000000(     9)
      2  N        1  -0.000694(     3)      2   0.000000(    10)      3  -0.001265(    16)     0
      3  N        1   0.001258(     4)      2   0.000000(    11)      3  -0.002905(    17)     0
      4  N        1   0.002305(     5)      2   0.000000(    12)      3   0.001134(    18)     0
      5  N        1   0.001178(     6)      2   0.000000(    13)      3  -0.000046(    19)     0
      6  H        3  -0.000175(     7)      4  -0.000085(    14)      5   0.000000(    20)     0
      7  H        4  -0.000117(     8)      5   0.000296(    15)      6   0.000000(    21)     0
 -----------------------------------------------------------------------------------------------
 Internal  Forces:  Max     0.002904973 RMS     0.001044169

 GradGradGradGradGradGradGradGradGradGradGradGradGradGradGradGradGradGrad
 Berny optimization.
 Search for a local minimum.
 Step number   3 out of a maximum of   22
 All quantities printed in internal units (Hartrees-Bohrs-Radians)
 Update second derivatives using D2CorN and points    1    2    3
 DE= -6.17D-05 DEPred=-5.24D-05 R= 1.18D+00
 TightC=F SS=  1.41D+00  RLast= 2.64D-01 DXNew= 5.0454D-01 7.9193D-01
 Trust test= 1.18D+00 RLast= 2.64D-01 DXMaxT set to 5.05D-01
 The second derivative matrix:
                          rn1       rn2       rn3       rn4       rch
           rn1          0.65641
           rn2          0.02154   0.66590
           rn3          0.04789   0.05049   0.56706
           rn4          0.04798   0.01509   0.13290   0.63840
           rch          0.00619  -0.00576  -0.00050   0.00287   0.37772
           rnh          0.00714  -0.00866  -0.00243   0.00209   0.00233
           an1          0.02580  -0.73909   0.05690  -0.07178   0.00864
           an2          0.73129  -0.27607  -0.67844   0.08734   0.02111
           an3         -0.03682   0.99933   0.00484  -0.62036  -0.02097
           an4          0.05256  -0.02215   0.66559  -0.09623   0.00270
           ach          0.04500   0.00098   0.00066   0.05096   0.00008
           anh         -0.10294   0.05474   0.00058  -0.00054  -0.00033
                          rnh       an1       an2       an3       an4
           rnh          0.48920
           an1          0.01001   4.54112
           an2          0.02515  -2.66573   6.04261
           an3         -0.02574  -0.04186  -3.19388   4.45723
           an4          0.00362  -0.12427  -0.07324  -1.14921   2.58165
           ach          0.00016  -0.10511  -0.00150   0.00193   0.07287
           anh         -0.00021   0.03328  -0.09538   0.00425  -0.00084
                          ach       anh
           ach          0.31997
           anh         -0.00004   0.32004
 ITU=  1  1  0
     Eigenvalues ---    0.00078   0.12693   0.26435   0.32895   0.37746
     Eigenvalues ---    0.39947   0.48894   0.75929   1.20878   2.99294
     Eigenvalues ---    5.08117   9.62827
 RFO step:  Lambda=-2.20320159D-05 EMin= 7.76828360D-04
 Quartic linear search produced a step of -0.00996.
 Variable       Old X    -DE/DX   Delta X   Delta X   Delta X     New X
                                 (Linear)    (Quad)   (Total)
   rn1        2.23998  -0.00069   0.00124   0.02700   0.02825   2.26823
   rn2        2.48865   0.00126   0.00082   0.02440   0.02521   2.51386
   rn3        2.19246   0.00230  -0.00038  -0.00164  -0.00202   2.19045
   rn4        1.90422   0.00118  -0.00122  -0.03062  -0.03184   1.87239
   rch        2.04022  -0.00018   0.00001  -0.00030  -0.00028   2.03993
   rnh        1.90703  -0.00012   0.00000  -0.00010  -0.00010   1.90693
   an1        1.31286  -0.00127  -0.00049  -0.01165  -0.01214   1.30072
   an2        2.43873  -0.00290  -0.00100  -0.02387  -0.02487   2.41386
   an3        3.52203   0.00113  -0.00123  -0.03055  -0.03178   3.49025
   an4        4.86117  -0.00005  -0.00056  -0.01594  -0.01650   4.84467
   ach        2.18146  -0.00009  -0.00001   0.00062   0.00060   2.18206
   anh        2.09920   0.00030   0.00004  -0.00016  -0.00012   2.09908
         Item               Value     Threshold  Converged?
 Maximum Force            0.002905     0.000450     NO 
 RMS     Force            0.001298     0.000300     NO 
 Maximum Displacement     0.031838     0.001800     NO 
 RMS     Displacement     0.019365     0.001200     NO 
 Predicted change in Energy=-1.129589D-05
 GradGradGradGradGradGradGradGradGradGradGradGradGradGradGradGradGradGrad

 ---------------------------------------------------------------------------------------------------
                            Z-MATRIX (ANGSTROMS AND DEGREES)
   CD    Cent   Atom    N1       Length/X        N2       Alpha/Y        N3        Beta/Z          J
 ---------------------------------------------------------------------------------------------------
      1         X 
      2         X        1   1.000000(     1)
      3      1  C        1   1.000000(     2)      2   90.000(     9)
      4      2  N        1   1.200293(     3)      2   90.000(    10)      3   74.526(    16)      0
      5      3  N        1   1.330279(     4)      2   90.000(    11)      3  138.304(    17)      0
      6      4  N        1   1.159135(     5)      2   90.000(    12)      3  199.976(    18)      0
      7      5  N        1   0.990824(     6)      2   90.000(    13)      3  277.579(    19)      0
      8      6  H        3   1.079486(     7)      4  125.023(    14)      5  180.000(    20)      0
      9      7  H        4   1.009105(     8)      5  120.268(    15)      6  180.000(    21)      0
 ---------------------------------------------------------------------------------------------------
                         Z-Matrix orientation:                         
 ---------------------------------------------------------------------
 Center     Atomic      Atomic             Coordinates (Angstroms)
 Number     Number       Type             X           Y           Z
 ---------------------------------------------------------------------
      1         -1           0        0.000000    0.000000    0.000000
      2         -1           0        0.000000    0.000000    1.000000
      3          6           0        1.000000    0.000000    0.000000
      4          7           0        0.320249   -1.156782    0.000000
      5          7           0       -0.993301   -0.884870    0.000000
      6          7           0       -1.089393    0.395999    0.000000
      7          7           0        0.130689    0.982168    0.000000
      8          1           0        2.076034    0.086265    0.000000
      9          1           0        0.641658   -2.113332    0.000000
 ---------------------------------------------------------------------
                    Distance matrix (angstroms):
                    1          2          3          4          5
     1  X    0.000000
     2  X    1.000000   0.000000
     3  C    1.000000   1.414214   0.000000
     4  N    1.200293   1.562275   1.341717   0.000000
     5  N    1.330279   1.664224   2.180881   1.341398   0.000000
     6  N    1.159135   1.530880   2.126589   2.097193   1.284468
     7  N    0.990824   1.407740   1.311623   2.147333   2.179262
     8  H    2.077825   2.305940   1.079486   2.151266   3.219304
     9  H    2.208596   2.424438   2.143498   1.009105   2.045045
                    6          7          8          9
     6  N    0.000000
     7  N    1.353585   0.000000
     8  H    3.180545   2.141730   0.000000
     9  H    3.048489   3.137389   2.625959   0.000000
 Stoichiometry    CH2N4
 Framework group  CS[SG(CH2N4)]
 Deg. of freedom    11
 Full point group                 CS      NOp   2
 Largest Abelian subgroup         CS      NOp   2
 Largest concise Abelian subgroup C1      NOp   1
                         Standard orientation:                         
 ---------------------------------------------------------------------
 Center     Atomic      Atomic             Coordinates (Angstroms)
 Number     Number       Type             X           Y           Z
 ---------------------------------------------------------------------
      1          6           0        1.065671    0.233640    0.000000
      2          7           0        0.000000    1.048839    0.000000
      3          7           0       -1.114144    0.301823    0.000000
      4          7           0       -0.720303   -0.920776    0.000000
      5          7           0        0.630735   -1.003771    0.000000
      6          1           0        2.094842    0.559367    0.000000
      7          1           0       -0.062889    2.055983    0.000000
 ---------------------------------------------------------------------
 Rotational constants (GHZ):     10.6128744     10.4437674      5.2638209
 Standard basis: 6-31G(d) (6D, 7F)
 There are    59 symmetry adapted cartesian basis functions of A'  symmetry.
 There are    20 symmetry adapted cartesian basis functions of A"  symmetry.
 There are    59 symmetry adapted basis functions of A'  symmetry.
 There are    20 symmetry adapted basis functions of A"  symmetry.
    79 basis functions,   148 primitive gaussians,    79 cartesian basis functions
    18 alpha electrons       18 beta electrons
       nuclear repulsion energy       167.4322665266 Hartrees.
 NAtoms=    7 NActive=    7 NUniq=    7 SFac= 1.00D+00 NAtFMM=   60 NAOKFM=F Big=F
 Integral buffers will be    131072 words long.
 Raffenetti 2 integral format.
 Two-electron integral symmetry is turned on.
 One-electron integrals computed using PRISM.
 NBasis=    79 RedAO= T EigKep=  3.72D-03  NBF=    59    20
 NBsUse=    79 1.00D-06 EigRej= -1.00D+00 NBFU=    59    20
 Initial guess from the checkpoint file:  "/tmp/rdj3/g09-23219/Gau-24429.chk"
 B after Tr=     0.000000    0.000000    0.000000
         Rot=    1.000000    0.000000    0.000000   -0.000375 Ang=  -0.04 deg.
 Initial guess orbital symmetries:
       Occupied  (A') (A') (A') (A') (A') (A') (A') (A') (A') (A')
                 (A') (A") (A') (A') (A") (A") (A') (A')
       Virtual   (A') (A') (A') (A') (A') (A') (A') (A') (A') (A')
                 (A') (A') (A') (A') (A') (A') (A') (A') (A') (A')
                 (A') (A') (A') (A') (A') (A') (A') (A') (A') (A')
                 (A') (A') (A') (A') (A') (A') (A') (A') (A') (A')
                 (A') (A') (A') (A') (A") (A") (A") (A") (A") (A")
                 (A") (A") (A") (A") (A") (A") (A") (A") (A") (A")
                 (A")
 ExpMin= 1.61D-01 ExpMax= 4.17D+03 ExpMxC= 6.27D+02 IAcc=1 IRadAn=         1 AccDes= 0.00D+00
 Harris functional with IExCor= 1009 and IRadAn=       1 diagonalized for initial guess.
 HarFok:  IExCor= 1009 AccDes= 0.00D+00 IRadAn=         1 IDoV= 1 UseB2=F ITyADJ=14
 ICtDFT=  3500011 ScaDFX=  1.000000  1.000000  1.000000  1.000000
 FoFCou: FMM=F IPFlag=           0 FMFlag=      100000 FMFlg1=           0
         NFxFlg=           0 DoJE=T BraDBF=F KetDBF=T FulRan=T
         wScrn=  0.000000 ICntrl=     500 IOpCl=  0 I1Cent=   200000004 NGrid=           0
         NMat0=    1 NMatS0=      1 NMatT0=    0 NMatD0=    1 NMtDS0=    0 NMtDT0=    0
 Petite list used in FoFCou.
 Keep R1 ints in memory in symmetry-blocked form, NReq=15350670.
 Requested convergence on RMS density matrix=1.00D-08 within 128 cycles.
 Requested convergence on MAX density matrix=1.00D-06.
 Requested convergence on             energy=1.00D-06.
 No special actions if energy rises.
 Integral accuracy reduced to 1.0D-05 until final iterations.
 Initial convergence to 1.0D-05 achieved.  Increase integral accuracy.
 SCF Done:  E(RHSEH1PBE) =  -257.992352477     A.U. after   11 cycles
            NFock= 11  Conv=0.83D-08     -V/T= 2.0082
 Calling FoFJK, ICntrl=      2127 FMM=F ISym2X=1 I1Cent= 0 IOpClX= 0 NMat=1 NMatS=1 NMatT=0.
 ***** Axes restored to original set *****
 -------------------------------------------------------------------
 Center     Atomic                   Forces (Hartrees/Bohr)
 Number     Number              X              Y              Z
 -------------------------------------------------------------------
      1        6          -0.001272046   -0.000511357    0.000000000
      2        7          -0.000513487    0.000218065    0.000000000
      3        7           0.000806902   -0.001339960    0.000000000
      4        7           0.001489287    0.000814334    0.000000000
      5        7          -0.000326432    0.000729804    0.000000000
      6        1          -0.000131652    0.000078962    0.000000000
      7        1          -0.000052571    0.000010151    0.000000000
 -------------------------------------------------------------------
 Cartesian Forces:  Max     0.001489287 RMS     0.000624275
 -----------------------------------------------------------------------------------------------
                       Internal Coordinate Forces (Hartree/Bohr or radian)
  Cent   Atom   N1       Length/X         N2         Alpha/Y        N3         Beta/Z          J
 -----------------------------------------------------------------------------------------------
         X 
         X        1   0.000000(     1)
      1  C        1  -0.001466(     2)      2   0.000000(     9)
      2  N        1  -0.000288(     3)      2   0.000000(    10)      3   0.001022(    16)     0
      3  N        1   0.000261(     4)      2   0.000000(    11)      3  -0.003812(    17)     0
      4  N        1  -0.001121(     5)      2   0.000000(    12)      3   0.002791(    18)     0
      5  N        1   0.000680(     6)      2   0.000000(    13)      3  -0.000786(    19)     0
      6  H        3  -0.000125(     7)      4   0.000182(    14)      5   0.000000(    20)     0
      7  H        4  -0.000026(     8)      5  -0.000089(    15)      6   0.000000(    21)     0
 -----------------------------------------------------------------------------------------------
 Internal  Forces:  Max     0.003811910 RMS     0.001155934

 GradGradGradGradGradGradGradGradGradGradGradGradGradGradGradGradGradGrad
 Berny optimization.
 Search for a local minimum.
 Step number   4 out of a maximum of   22
 All quantities printed in internal units (Hartrees-Bohrs-Radians)
 Update second derivatives using D2CorN and points    1    2    3    4
 DE= -2.45D-06 DEPred=-1.13D-05 R= 2.17D-01
 Trust test= 2.17D-01 RLast= 6.71D-02 DXMaxT set to 5.05D-01
 The second derivative matrix:
                          rn1       rn2       rn3       rn4       rch
           rn1          0.65773
           rn2          0.02277   0.66300
           rn3          0.05219   0.05237   0.56765
           rn4          0.04673   0.01301   0.12896   0.64160
           rch          0.00691  -0.00554   0.00004   0.00284   0.37806
           rnh          0.00776  -0.00889  -0.00197   0.00219   0.00268
           an1          0.02328  -0.74124   0.05615  -0.06757   0.00898
           an2          0.73941  -0.26231  -0.67440   0.08226   0.02295
           an3         -0.04386   0.98876  -0.00410  -0.61428  -0.02293
           an4          0.05375  -0.01901   0.66466  -0.09678   0.00273
           ach          0.04457   0.00044   0.00062   0.05134   0.00006
           anh         -0.10281   0.05512   0.00048  -0.00078  -0.00039
                          rnh       an1       an2       an3       an4
           rnh          0.48953
           an1          0.01045   4.54377
           an2          0.02786  -2.66557   6.02983
           an3         -0.02802  -0.03687  -3.19785   4.47032
           an4          0.00394  -0.12330  -0.08148  -1.14598   2.57889
           ach          0.00012  -0.10505  -0.00080   0.00224   0.07324
           anh         -0.00026   0.03314  -0.09650   0.00463  -0.00114
                          ach       anh
           ach          0.31994
           anh         -0.00001   0.32004
 ITU=  0  1  1  0
     Eigenvalues ---    0.00169   0.13053   0.26485   0.32964   0.37774
     Eigenvalues ---    0.39941   0.48922   0.75963   1.20829   2.99288
     Eigenvalues ---    5.08001   9.62646
 RFO step:  Lambda=-4.79618792D-06 EMin= 1.69114664D-03
 Quartic linear search produced a step of -0.45393.
 Variable       Old X    -DE/DX   Delta X   Delta X   Delta X     New X
                                 (Linear)    (Quad)   (Total)
   rn1        2.26823  -0.00029  -0.01282  -0.00803  -0.02085   2.24737
   rn2        2.51386   0.00026  -0.01145  -0.00541  -0.01686   2.49701
   rn3        2.19045  -0.00112   0.00092   0.00252   0.00343   2.19388
   rn4        1.87239   0.00068   0.01445   0.00952   0.02397   1.89636
   rch        2.03993  -0.00012   0.00013  -0.00036  -0.00023   2.03970
   rnh        1.90693  -0.00003   0.00005  -0.00011  -0.00006   1.90687
   an1        1.30072   0.00102   0.00551   0.00296   0.00847   1.30918
   an2        2.41386  -0.00381   0.01129   0.00602   0.01730   2.43117
   an3        3.49025   0.00279   0.01443   0.00814   0.02257   3.51281
   an4        4.84467  -0.00079   0.00749   0.00362   0.01111   4.85578
   ach        2.18206   0.00018  -0.00027  -0.00012  -0.00039   2.18167
   anh        2.09908  -0.00009   0.00006   0.00004   0.00010   2.09917
         Item               Value     Threshold  Converged?
 Maximum Force            0.003812     0.000450     NO 
 RMS     Force            0.001469     0.000300     NO 
 Maximum Displacement     0.023970     0.001800     NO 
 RMS     Displacement     0.013872     0.001200     NO 
 Predicted change in Energy=-4.825922D-06
 GradGradGradGradGradGradGradGradGradGradGradGradGradGradGradGradGradGrad

 ---------------------------------------------------------------------------------------------------
                            Z-MATRIX (ANGSTROMS AND DEGREES)
   CD    Cent   Atom    N1       Length/X        N2       Alpha/Y        N3        Beta/Z          J
 ---------------------------------------------------------------------------------------------------
      1         X 
      2         X        1   1.000000(     1)
      3      1  C        1   1.000000(     2)      2   90.000(     9)
      4      2  N        1   1.189259(     3)      2   90.000(    10)      3   75.011(    16)      0
      5      3  N        1   1.321358(     4)      2   90.000(    11)      3  139.296(    17)      0
      6      4  N        1   1.160952(     5)      2   90.000(    12)      3  201.269(    18)      0
      7      5  N        1   1.003508(     6)      2   90.000(    13)      3  278.216(    19)      0
      8      6  H        3   1.079363(     7)      4  125.001(    14)      5  180.000(    20)      0
      9      7  H        4   1.009073(     8)      5  120.274(    15)      6  180.000(    21)      0
 ---------------------------------------------------------------------------------------------------
                         Z-Matrix orientation:                         
 ---------------------------------------------------------------------
 Center     Atomic      Atomic             Coordinates (Angstroms)
 Number     Number       Type             X           Y           Z
 ---------------------------------------------------------------------
      1         -1           0        0.000000    0.000000    0.000000
      2         -1           0        0.000000    0.000000    1.000000
      3          6           0        1.000000    0.000000    0.000000
      4          7           0        0.307588   -1.148794    0.000000
      5          7           0       -1.001701   -0.861733    0.000000
      6          7           0       -1.081874    0.421139    0.000000
      7          7           0        0.143400    0.993210    0.000000
      8          1           0        2.076836    0.073828    0.000000
      9          1           0        0.617858   -2.108981    0.000000
 ---------------------------------------------------------------------
                    Distance matrix (angstroms):
                    1          2          3          4          5
     1  X    0.000000
     2  X    1.000000   0.000000
     3  C    1.000000   1.414214   0.000000
     4  N    1.189259   1.553814   1.341328   0.000000
     5  N    1.321358   1.657102   2.179309   1.340388   0.000000
     6  N    1.160952   1.532256   2.124042   2.096495   1.285375
     7  N    1.003508   1.416697   1.311575   2.148287   2.179924
     8  H    2.078147   2.306230   1.079363   2.150591   3.217555
     9  H    2.197624   2.414446   2.143323   1.009073   2.044162
                    6          7          8          9
     6  N    0.000000
     7  N    1.352243   0.000000
     8  H    3.177746   2.140896   0.000000
     9  H    3.048048   3.138264   2.625504   0.000000
 Stoichiometry    CH2N4
 Framework group  CS[SG(CH2N4)]
 Deg. of freedom    11
 Full point group                 CS      NOp   2
 Largest Abelian subgroup         CS      NOp   2
 Largest concise Abelian subgroup C1      NOp   1
                         Standard orientation:                         
 ---------------------------------------------------------------------
 Center     Atomic      Atomic             Coordinates (Angstroms)
 Number     Number       Type             X           Y           Z
 ---------------------------------------------------------------------
      1          6           0        1.064490    0.232859    0.000000
      2          7           0        0.000000    1.048962    0.000000
      3          7           0       -1.113688    0.303080    0.000000
      4          7           0       -0.719273   -0.920286    0.000000
      5          7           0        0.630328   -1.004772    0.000000
      6          1           0        2.093765    0.557850    0.000000
      7          1           0       -0.062270    2.056111    0.000000
 ---------------------------------------------------------------------
 Rotational constants (GHZ):     10.6242825     10.4440964      5.2667095
 Standard basis: 6-31G(d) (6D, 7F)
 There are    59 symmetry adapted cartesian basis functions of A'  symmetry.
 There are    20 symmetry adapted cartesian basis functions of A"  symmetry.
 There are    59 symmetry adapted basis functions of A'  symmetry.
 There are    20 symmetry adapted basis functions of A"  symmetry.
    79 basis functions,   148 primitive gaussians,    79 cartesian basis functions
    18 alpha electrons       18 beta electrons
       nuclear repulsion energy       167.4761776970 Hartrees.
 NAtoms=    7 NActive=    7 NUniq=    7 SFac= 1.00D+00 NAtFMM=   60 NAOKFM=F Big=F
 Integral buffers will be    131072 words long.
 Raffenetti 2 integral format.
 Two-electron integral symmetry is turned on.
 One-electron integrals computed using PRISM.
 NBasis=    79 RedAO= T EigKep=  3.71D-03  NBF=    59    20
 NBsUse=    79 1.00D-06 EigRej= -1.00D+00 NBFU=    59    20
 Initial guess from the checkpoint file:  "/tmp/rdj3/g09-23219/Gau-24429.chk"
 B after Tr=     0.000000    0.000000    0.000000
         Rot=    1.000000    0.000000    0.000000    0.000201 Ang=   0.02 deg.
 Initial guess orbital symmetries:
       Occupied  (A') (A') (A') (A') (A') (A') (A') (A') (A') (A')
                 (A') (A") (A') (A') (A") (A") (A') (A')
       Virtual   (A') (A') (A') (A') (A') (A') (A') (A') (A') (A')
                 (A') (A') (A') (A') (A') (A') (A') (A') (A') (A')
                 (A') (A') (A') (A') (A') (A') (A') (A') (A') (A')
                 (A') (A') (A') (A') (A') (A') (A') (A') (A') (A')
                 (A') (A') (A') (A') (A") (A") (A") (A") (A") (A")
                 (A") (A") (A") (A") (A") (A") (A") (A") (A") (A")
                 (A")
 ExpMin= 1.61D-01 ExpMax= 4.17D+03 ExpMxC= 6.27D+02 IAcc=1 IRadAn=         1 AccDes= 0.00D+00
 Harris functional with IExCor= 1009 and IRadAn=       1 diagonalized for initial guess.
 HarFok:  IExCor= 1009 AccDes= 0.00D+00 IRadAn=         1 IDoV= 1 UseB2=F ITyADJ=14
 ICtDFT=  3500011 ScaDFX=  1.000000  1.000000  1.000000  1.000000
 FoFCou: FMM=F IPFlag=           0 FMFlag=      100000 FMFlg1=           0
         NFxFlg=           0 DoJE=T BraDBF=F KetDBF=T FulRan=T
         wScrn=  0.000000 ICntrl=     500 IOpCl=  0 I1Cent=   200000004 NGrid=           0
         NMat0=    1 NMatS0=      1 NMatT0=    0 NMatD0=    1 NMtDS0=    0 NMtDT0=    0
 Petite list used in FoFCou.
 Keep R1 ints in memory in symmetry-blocked form, NReq=15350670.
 Requested convergence on RMS density matrix=1.00D-08 within 128 cycles.
 Requested convergence on MAX density matrix=1.00D-06.
 Requested convergence on             energy=1.00D-06.
 No special actions if energy rises.
 Integral accuracy reduced to 1.0D-05 until final iterations.
 Initial convergence to 1.0D-05 achieved.  Increase integral accuracy.
 SCF Done:  E(RHSEH1PBE) =  -257.992358671     A.U. after   10 cycles
            NFock= 10  Conv=0.65D-08     -V/T= 2.0082
 Calling FoFJK, ICntrl=      2127 FMM=F ISym2X=1 I1Cent= 0 IOpClX= 0 NMat=1 NMatS=1 NMatT=0.
 ***** Axes restored to original set *****
 -------------------------------------------------------------------
 Center     Atomic                   Forces (Hartrees/Bohr)
 Number     Number              X              Y              Z
 -------------------------------------------------------------------
      1        6           0.000118174   -0.000295136    0.000000000
      2        7          -0.000163656    0.000281301    0.000000000
      3        7           0.000124486   -0.000379727    0.000000000
      4        7          -0.000090406    0.000261887    0.000000000
      5        7          -0.000025692    0.000092815    0.000000000
      6        1           0.000000711    0.000022168    0.000000000
      7        1           0.000036383    0.000016690    0.000000000
 -------------------------------------------------------------------
 Cartesian Forces:  Max     0.000379727 RMS     0.000147164
 -----------------------------------------------------------------------------------------------
                       Internal Coordinate Forces (Hartree/Bohr or radian)
  Cent   Atom   N1       Length/X         N2         Alpha/Y        N3         Beta/Z          J
 -----------------------------------------------------------------------------------------------
         X 
         X        1   0.000000(     1)
      1  C        1   0.000104(     2)      2   0.000000(     9)
      2  N        1  -0.000335(     3)      2   0.000000(    10)      3   0.000044(    16)     0
      3  N        1   0.000177(     4)      2   0.000000(    11)      3  -0.000966(    17)     0
      4  N        1   0.000179(     5)      2   0.000000(    12)      3   0.000463(    18)     0
      5  N        1   0.000088(     6)      2   0.000000(    13)      3  -0.000073(    19)     0
      6  H        3   0.000002(     7)      4   0.000045(    14)      5   0.000000(    20)     0
      7  H        4  -0.000005(     8)      5   0.000076(    15)      6   0.000000(    21)     0
 -----------------------------------------------------------------------------------------------
 Internal  Forces:  Max     0.000966417 RMS     0.000254288

 GradGradGradGradGradGradGradGradGradGradGradGradGradGradGradGradGradGrad
 Berny optimization.
 Search for a local minimum.
 Step number   5 out of a maximum of   22
 All quantities printed in internal units (Hartrees-Bohrs-Radians)
 Update second derivatives using D2CorN and points    1    2    3    4    5

 DE= -6.19D-06 DEPred=-4.83D-06 R= 1.28D+00
 TightC=F SS=  1.41D+00  RLast= 4.81D-02 DXNew= 8.4853D-01 1.4416D-01
 Trust test= 1.28D+00 RLast= 4.81D-02 DXMaxT set to 5.05D-01
 The second derivative matrix:
                          rn1       rn2       rn3       rn4       rch
           rn1          0.65841
           rn2          0.02448   0.65784
           rn3          0.05696   0.05366   0.57038
           rn4          0.04626   0.01072   0.12508   0.64342
           rch          0.00721  -0.00487   0.00058   0.00289   0.37822
           rnh          0.00819  -0.00888  -0.00147   0.00218   0.00288
           an1          0.02134  -0.74380   0.05359  -0.06499   0.00923
           an2          0.74642  -0.24062  -0.66191   0.07921   0.02247
           an3         -0.05041   0.97617  -0.01669  -0.60954  -0.02357
           an4          0.05419  -0.01399   0.66507  -0.09661   0.00238
           ach          0.04429  -0.00046   0.00015   0.05149   0.00011
           anh         -0.10273   0.05524   0.00014  -0.00096  -0.00039
                          rnh       an1       an2       an3       an4
           rnh          0.48973
           an1          0.01057   4.54594
           an2          0.02954  -2.66782   6.00834
           an3         -0.02965  -0.03137  -3.20333   4.48659
           an4          0.00410  -0.12229  -0.09469  -1.14109   2.57482
           ach          0.00008  -0.10498   0.00029   0.00243   0.07383
           anh         -0.00027   0.03318  -0.09739   0.00510  -0.00130
                          ach       anh
           ach          0.31988
           anh          0.00001   0.32003
 ITU=  1  0  1  1  0
     Eigenvalues ---   -0.00177   0.13594   0.26580   0.33118   0.37787
     Eigenvalues ---    0.39915   0.48938   0.75949   1.20435   2.99259
     Eigenvalues ---    5.07853   9.62109
 RFO step:  Lambda=-1.77319217D-03 EMin=-1.77318919D-03
 I=     1 Eig=   -1.77D-03 Dot1= -8.12D-07
 I=     1 Stepn= -6.00D-01 RXN=   6.00D-01 EDone=F
 Mixed    1 eigenvectors in step.  Raw Step.Grad=  8.12D-07.
 RFO eigenvector is Hessian eigenvector with negative curvature.
 Taking step of  6.00D-01 in eigenvector direction(s).  Step.Grad=  9.23D-05.
 Quartic linear search produced a step of  0.00042.
 Maximum step size (   0.505) exceeded in Quadratic search.
    -- Step size scaled by   0.841
 Variable       Old X    -DE/DX   Delta X   Delta X   Delta X     New X
                                 (Linear)    (Quad)   (Total)
   rn1        2.24737  -0.00033  -0.00001  -0.24084  -0.24085   2.00652
   rn2        2.49701   0.00018  -0.00001  -0.15628  -0.15629   2.34072
   rn3        2.19388   0.00018   0.00000   0.10650   0.10650   2.30038
   rn4        1.89636   0.00009   0.00001   0.21695   0.21696   2.11332
   rch        2.03970   0.00000   0.00000   0.00010   0.00010   2.03981
   rnh        1.90687   0.00000   0.00000  -0.00062  -0.00062   1.90625
   an1        1.30918   0.00004   0.00000   0.10001   0.10002   1.40920
   an2        2.43117  -0.00097   0.00001   0.20147   0.20147   2.63264
   an3        3.51281   0.00046   0.00001   0.23081   0.23082   3.74363
   an4        4.85578  -0.00007   0.00000   0.09905   0.09906   4.95484
   ach        2.18167   0.00005   0.00000   0.00614   0.00614   2.18781
   anh        2.09917   0.00008   0.00000  -0.00205  -0.00205   2.09712
         Item               Value     Threshold  Converged?
 Maximum Force            0.000966     0.000450     NO 
 RMS     Force            0.000335     0.000300     NO 
 Maximum Displacement     0.240853     0.001800     NO 
 RMS     Displacement     0.145653     0.001200     NO 
 Predicted change in Energy=-2.263923D-04
 GradGradGradGradGradGradGradGradGradGradGradGradGradGradGradGradGradGrad

 ---------------------------------------------------------------------------------------------------
                            Z-MATRIX (ANGSTROMS AND DEGREES)
   CD    Cent   Atom    N1       Length/X        N2       Alpha/Y        N3        Beta/Z          J
 ---------------------------------------------------------------------------------------------------
      1         X 
      2         X        1   1.000000(     1)
      3      1  C        1   1.000000(     2)      2   90.000(     9)
      4      2  N        1   1.061805(     3)      2   90.000(    10)      3   80.741(    16)      0
      5      3  N        1   1.238654(     4)      2   90.000(    11)      3  150.839(    17)      0
      6      4  N        1   1.217310(     5)      2   90.000(    12)      3  214.494(    18)      0
      7      5  N        1   1.118319(     6)      2   90.000(    13)      3  283.891(    19)      0
      8      6  H        3   1.079418(     7)      4  125.352(    14)      5  180.000(    20)      0
      9      7  H        4   1.008745(     8)      5  120.156(    15)      6  180.000(    21)      0
 ---------------------------------------------------------------------------------------------------
                         Z-Matrix orientation:                         
 ---------------------------------------------------------------------
 Center     Atomic      Atomic             Coordinates (Angstroms)
 Number     Number       Type             X           Y           Z
 ---------------------------------------------------------------------
      1         -1           0        0.000000    0.000000    0.000000
      2         -1           0        0.000000    0.000000    1.000000
      3          6           0        1.000000    0.000000    0.000000
      4          7           0        0.170836   -1.047972    0.000000
      5          7           0       -1.081661   -0.603549    0.000000
      6          7           0       -1.003287    0.689391    0.000000
      7          7           0        0.268486    1.085612    0.000000
      8          1           0        2.077940   -0.056472    0.000000
      9          1           0        0.356742   -2.039438    0.000000
 ---------------------------------------------------------------------
                    Distance matrix (angstroms):
                    1          2          3          4          5
[...]
 Octapole moment (field-independent basis, Debye-Ang**2):
  XXX=             11.7693  YYY=             22.3421  ZZZ=              0.0000  XYY=             -0.5695
  XXY=              4.5273  XXZ=              0.0000  XZZ=             -0.6048  YZZ=              0.5139
  YYZ=              0.0000  XYZ=              0.0000
 Hexadecapole moment (field-independent basis, Debye-Ang**3):
 XXXX=           -139.1732 YYYY=           -117.3679 ZZZZ=            -24.5198 XXXY=              6.6434
 XXXZ=              0.0000 YYYX=             -0.4686 YYYZ=              0.0000 ZZZX=              0.0000
 ZZZY=              0.0000 XXYY=            -52.4874 XXZZ=            -29.7673 YYZZ=            -28.1826
 XXYZ=              0.0000 YYXZ=              0.0000 ZZXY=             -0.1120
 N-N= 1.674730621331D+02 E-N=-9.365741493064D+02  KE= 2.558910052701D+02
 Symmetry A'   KE= 2.465117349910D+02
 Symmetry A"   KE= 9.379270279140D+00
  Exact polarizability:  37.236   0.950  36.654   0.000   0.000  15.614
 Approx polarizability:  66.427   0.256  70.145   0.000   0.000  24.261
 Calling FoFJK, ICntrl=    100127 FMM=F ISym2X=1 I1Cent= 0 IOpClX= 0 NMat=1 NMatS=1 NMatT=0.
 Full mass-weighted force constant matrix:
 Low frequencies ---   -6.9753   -3.6592   -0.0011   -0.0008   -0.0007    4.8571
 Low frequencies ---  597.8265  703.0132  752.8020
 Diagonal vibrational polarizability:
        1.1764893       1.0560086       8.6517378
 Harmonic frequencies (cm**-1), IR intensities (KM/Mole), Raman scattering
 activities (A**4/AMU), depolarization ratios for plane and unpolarized
 incident light, reduced masses (AMU), force constants (mDyne/A),
 and normal coordinates:
                      1                      2                      3
                     A"                     A"                     A"
 Frequencies --    597.8265               703.0132               752.8019
 Red. masses --      1.7806                 1.9705                 8.1060
 Frc consts  --      0.3749                 0.5738                 2.7066
 IR Inten    --     93.2334                 9.9909                 8.6954
  Atom  AN      X      Y      Z        X      Y      Z        X      Y      Z
     1   6     0.00   0.00  -0.09     0.00   0.00   0.17     0.00   0.00  -0.09
     2   7     0.00   0.00   0.21     0.00   0.00  -0.10     0.00   0.00  -0.12
     3   7     0.00   0.00  -0.08     0.00   0.00   0.10     0.00   0.00   0.42
     4   7     0.00   0.00   0.00     0.00   0.00   0.04     0.00   0.00  -0.49
     5   7     0.00   0.00   0.03     0.00   0.00  -0.17     0.00   0.00   0.33
     6   1     0.00   0.00  -0.21     0.00   0.00   0.53     0.00   0.00  -0.06
     7   1     0.00   0.00  -0.95     0.00   0.00  -0.80     0.00   0.00  -0.67
                      4                      5                      6
                     A"                     A'                     A'
 Frequencies --    857.3234               995.3371              1029.5517
 Red. masses --      1.3600                 4.3004                 5.4385
 Frc consts  --      0.5890                 2.5101                 3.3964
 IR Inten    --     18.4229                 3.4146                 1.6677
  Atom  AN      X      Y      Z        X      Y      Z        X      Y      Z
     1   6     0.00   0.00   0.17     0.16   0.11   0.00    -0.31  -0.04   0.00
     2   7     0.00   0.00  -0.03     0.09   0.00   0.00     0.02   0.40   0.00
     3   7     0.00   0.00   0.00     0.12  -0.13   0.00     0.16  -0.08   0.00
     4   7     0.00   0.00  -0.02    -0.04  -0.17   0.00     0.16  -0.10   0.00
     5   7     0.00   0.00  -0.03    -0.30   0.26   0.00    -0.06  -0.16   0.00
     6   1     0.00   0.00  -0.98     0.38  -0.61   0.00    -0.13  -0.67   0.00
     7   1     0.00   0.00  -0.08    -0.47  -0.04   0.00    -0.04   0.41   0.00
                      7                      8                      9
                     A'                     A'                     A'
 Frequencies --   1097.7389              1113.4143              1169.0743
 Red. masses --      3.0796                 4.9791                 1.9542
 Frc consts  --      2.1865                 3.6367                 1.5736
 IR Inten    --     28.2826                21.7646                10.9577
  Atom  AN      X      Y      Z        X      Y      Z        X      Y      Z
     1   6    -0.05  -0.01   0.00    -0.13   0.05   0.00     0.07  -0.10   0.00
     2   7    -0.15  -0.09   0.00     0.03  -0.18   0.00    -0.14  -0.03   0.00
     3   7     0.32   0.14   0.00    -0.06   0.08   0.00    -0.05   0.05   0.00
     4   7    -0.01  -0.02   0.00     0.40   0.02   0.00     0.13   0.12   0.00
     5   7    -0.06  -0.06   0.00    -0.29   0.02   0.00     0.02   0.00   0.00
     6   1    -0.23   0.54   0.00    -0.23   0.30   0.00     0.28  -0.77   0.00
     7   1    -0.70  -0.13   0.00     0.73  -0.15   0.00    -0.50  -0.05   0.00
                     10                     11                     12
                     A'                     A'                     A'
 Frequencies --   1297.1194              1341.2743              1496.2283
 Red. masses --      2.5748                10.3741                 3.4693
 Frc consts  --      2.5524                10.9960                 4.5760
 IR Inten    --      1.5339                17.6128                 8.8221
  Atom  AN      X      Y      Z        X      Y      Z        X      Y      Z
     1   6     0.18   0.03   0.00     0.25   0.07   0.00    -0.18   0.28   0.00
     2   7     0.07   0.11   0.00    -0.15   0.13   0.00     0.21  -0.14   0.00
     3   7    -0.11  -0.07   0.00    -0.18   0.50   0.00    -0.07   0.09   0.00
     4   7     0.06   0.06   0.00     0.05  -0.57   0.00    -0.01  -0.02   0.00
     5   7    -0.13  -0.18   0.00     0.03  -0.12   0.00     0.07  -0.12   0.00
     6   1     0.02   0.64   0.00     0.35  -0.12   0.00     0.04  -0.50   0.00
     7   1    -0.67   0.08   0.00     0.30   0.20   0.00    -0.70  -0.23   0.00
                     13                     14                     15
                     A'                     A'                     A'
 Frequencies --   1542.7077              3334.0799              3693.2680
 Red. masses --      3.4850                 1.1013                 1.0839
 Frc consts  --      4.8867                 7.2126                 8.7109
 IR Inten    --     17.8645                 1.1557                90.5833
  Atom  AN      X      Y      Z        X      Y      Z        X      Y      Z
     1   6     0.12   0.29   0.00     0.09   0.03   0.00     0.00   0.00   0.00
     2   7    -0.18  -0.03   0.00     0.00   0.00   0.00    -0.01   0.08   0.00
     3   7     0.11  -0.08   0.00     0.00   0.00   0.00     0.00   0.00   0.00
     4   7    -0.06   0.09   0.00     0.00   0.00   0.00     0.00   0.00   0.00
     5   7    -0.05  -0.21   0.00     0.00   0.00   0.00     0.00   0.00   0.00
     6   1     0.36  -0.35   0.00    -0.95  -0.30   0.00    -0.02   0.00   0.00
     7   1     0.74   0.03   0.00     0.01   0.02   0.00     0.06  -0.99   0.00

 -------------------
 - Thermochemistry -
 -------------------
 Temperature   298.150 Kelvin.  Pressure   1.00000 Atm.
 Atom     1 has atomic number  6 and mass  12.00000
 Atom     2 has atomic number  7 and mass  14.00307
 Atom     3 has atomic number  7 and mass  14.00307
 Atom     4 has atomic number  7 and mass  14.00307
 Atom     5 has atomic number  7 and mass  14.00307
 Atom     6 has atomic number  1 and mass   1.00783
 Atom     7 has atomic number  1 and mass   1.00783
 Molecular mass:    70.02795 amu.
 Principal axes and moments of inertia in atomic units:
                           1         2         3
     Eigenvalues --   169.88112 172.79812 342.67924
           X            0.83272   0.55369   0.00000
           Y           -0.55369   0.83272   0.00000
           Z            0.00000   0.00000   1.00000
 This molecule is an asymmetric top.
 Rotational symmetry number  1.
 Rotational temperatures (Kelvin)      0.50985     0.50124     0.25275
 Rotational constants (GHZ):          10.62355    10.44422     5.26656
 Zero-point vibrational energy     125732.1 (Joules/Mol)
                                   30.05068 (Kcal/Mol)
 Warning -- explicit consideration of   1 degrees of freedom as
           vibrations may cause significant error
 Vibrational temperatures:    860.14  1011.48  1083.11  1233.50  1432.07
          (Kelvin)           1481.29  1579.40  1601.95  1682.04  1866.26
                             1929.79  2152.74  2219.61  4796.99  5313.78
 
 Zero-point correction=                           0.047889 (Hartree/Particle)
 Thermal correction to Energy=                    0.051319
 Thermal correction to Enthalpy=                  0.052263
 Thermal correction to Gibbs Free Energy=         0.021821
 Sum of electronic and zero-point Energies=           -257.944470
 Sum of electronic and thermal Energies=              -257.941040
 Sum of electronic and thermal Enthalpies=            -257.940096
 Sum of electronic and thermal Free Energies=         -257.970538
 
                     E (Thermal)             CV                S
                      KCal/Mol        Cal/Mol-Kelvin    Cal/Mol-Kelvin
 Total                   32.203             11.038             64.070
 Electronic               0.000              0.000              0.000
 Translational            0.889              2.981             38.656
 Rotational               0.889              2.981             23.824
 Vibrational             30.425              5.076              1.590
 Vibration     1          0.956              1.036              0.453
                       Q            Log10(Q)             Ln(Q)
 Total Bot       0.918521D-10        -10.036911        -23.110841
 Total V=0       0.978063D+12         11.990367         27.608840
 Vib (Bot)       0.111069D-21        -21.954405        -50.551887
 Vib (Bot)    1  0.250329D+00         -0.601488         -1.384978
 Vib (V=0)       0.118269D+01          0.072872          0.167794
 Vib (V=0)    1  0.105916D+01          0.024963          0.057480
 Electronic      0.100000D+01          0.000000          0.000000
 Translational   0.230336D+08          7.362362         16.952466
 Rotational      0.359031D+05          4.555132         10.488580
 ***** Axes restored to original set *****
 -------------------------------------------------------------------
 Center     Atomic                   Forces (Hartrees/Bohr)
 Number     Number              X              Y              Z
 -------------------------------------------------------------------
      1        6          -0.000001649    0.000018581    0.000000000
      2        7          -0.000048490    0.000052217    0.000000000
      3        7          -0.000002298   -0.000052743    0.000000000
      4        7           0.000044098   -0.000006324    0.000000000
      5        7           0.000007418   -0.000020800    0.000000000
      6        1           0.000001231    0.000003797    0.000000000
      7        1          -0.000000309    0.000005272    0.000000000
 -------------------------------------------------------------------
 Cartesian Forces:  Max     0.000052743 RMS     0.000022603
 -----------------------------------------------------------------------------------------------
                       Internal Coordinate Forces (Hartree/Bohr or radian)
  Cent   Atom   N1       Length/X         N2         Alpha/Y        N3         Beta/Z          J
 -----------------------------------------------------------------------------------------------
         X 
         X        1   0.000000(     1)
      1  C        1  -0.000003(     2)      2   0.000000(     9)
      2  N        1  -0.000067(     3)      2   0.000000(    10)      3   0.000067(    16)     0
      3  N        1   0.000037(     4)      2   0.000000(    11)      3  -0.000098(    17)     0
      4  N        1  -0.000043(     5)      2   0.000000(    12)      3   0.000022(    18)     0
      5  N        1  -0.000020(     6)      2   0.000000(    13)      3   0.000020(    19)     0
      6  H        3   0.000001(     7)      4   0.000008(    14)      5   0.000000(    20)     0
      7  H        4  -0.000005(     8)      5   0.000003(    15)      6   0.000000(    21)     0
 -----------------------------------------------------------------------------------------------
 Internal  Forces:  Max     0.000097714 RMS     0.000033169

 GradGradGradGradGradGradGradGradGradGradGradGradGradGradGradGradGradGrad
 Berny optimization.
 Search for a local minimum.
 Step number   1 out of a maximum of    2
 All quantities printed in internal units (Hartrees-Bohrs-Radians)
 Second derivative matrix not updated -- analytic derivatives used.
 The second derivative matrix:
                          rn1       rn2       rn3       rn4       rch
           rn1          0.61319
           rn2         -0.03699   0.60838
           rn3          0.08313  -0.00302   0.59057
           rn4          0.09919   0.07821  -0.00352   0.58226
           rch         -0.00304  -0.00134   0.00071  -0.00296   0.38945
           rnh          0.01326  -0.00719   0.00010   0.00008   0.00041
           an1          0.10799  -0.39089  -0.22348   0.14080   0.01173
           an2          0.28051  -0.14141  -0.44546  -0.17339   0.00260
           an3          0.23561   0.50679   0.18670  -0.27753  -0.00103
           an4         -0.14073   0.17724   0.33651  -0.17022  -0.01589
           ach          0.03668   0.01219  -0.01496   0.02908   0.00289
           anh         -0.05264   0.02054   0.02656  -0.02122  -0.00125
                          rnh       an1       an2       an3       an4
           rnh          0.48412
           an1         -0.01060   2.46150
           an2          0.01743  -1.01701   2.98490
           an3         -0.00118  -0.27465  -1.49736   2.44463
           an4         -0.00206  -0.26069  -0.27852  -0.45439   1.76322
           ach          0.00064   0.00248  -0.02196  -0.00427   0.09162
           anh         -0.00082  -0.03752  -0.01652   0.00569  -0.00516
                          ach       anh
           ach          0.21546
           anh          0.00044   0.21826
 ITU=  0
     Eigenvalues ---    0.00000   0.16225   0.21435   0.27692   0.38963
     Eigenvalues ---    0.48340   0.63106   0.72379   0.85533   2.19163
     Eigenvalues ---    2.92530   4.50228
 Eigenvalue     1 is  -1.62D-06 should be greater than     0.000000 Eigenvector:
                          rn4       rn1       an3       an2       rn2
   1                    0.46902  -0.45774   0.45223   0.39528  -0.30843
                          an4       an1       rn3       ach       anh
   1                    0.21482   0.19649   0.17277  -0.00029   0.00021
 Quadratic step=5.279D+00 exceeds max=3.000D-01 adjusted using Lamda=-2.682D-05.
 Angle between NR and scaled steps=   0.03 degrees.
 Angle between quadratic step and forces=  86.76 degrees.
 Linear search not attempted -- first point.
 Variable       Old X    -DE/DX   Delta X   Delta X   Delta X     New X
                                 (Linear)    (Quad)   (Total)
   rn1        2.24433  -0.00007   0.00000   0.13723   0.13723   2.38156
   rn2        2.49544   0.00004   0.00000   0.09260   0.09260   2.58804
   rn3        2.19526  -0.00004   0.00000  -0.05189  -0.05189   2.14337
   rn4        1.89912  -0.00002   0.00000  -0.14075  -0.14075   1.75837
   rch        2.03969   0.00000   0.00000   0.00000   0.00000   2.03969
   rnh        1.90689  -0.00001   0.00000   0.00002   0.00002   1.90691
   an1        1.31026   0.00007   0.00000  -0.05892  -0.05892   1.25134
   an2        2.43319  -0.00010   0.00000  -0.11861  -0.11861   2.31458
   an3        3.51536   0.00002   0.00000  -0.13567  -0.13567   3.37969
   an4        4.85676   0.00002   0.00000  -0.06444  -0.06444   4.79232
   ach        2.18201   0.00001   0.00000   0.00013   0.00013   2.18214
   anh        2.09932   0.00000   0.00000  -0.00007  -0.00007   2.09924
         Item               Value     Threshold  Converged?
 Maximum Force            0.000098     0.000450     YES
 RMS     Force            0.000044     0.000300     YES
 Maximum Displacement     0.140746     0.001800     NO 
 RMS     Displacement     0.086607     0.001200     NO 
 Predicted change in Energy=-2.640529D-06
 GradGradGradGradGradGradGradGradGradGradGradGradGradGradGradGradGradGrad

 1\1\GINC-N366\Freq\RHSEH1PBE\6-31G(d)\C1H2N4\RDJ3\26-Nov-2013\1\\#N Ge
 om=AllCheck Guess=TCheck SCRF=Check GenChk RHSEH1PBE/6-31G(d) Freq\\1H
 -tetrazole CH2N4 casno=288948 state=1 config=1 method=57 basis=1\\0,1\
 X\X,1,1.\C,1,1.,2,90.\N,1,rn1,2,90.,3,an1,0\N,1,rn2,2,90.,3,an2,0\N,1,
 rn3,2,90.,3,an3,0\N,1,rn4,2,90.,3,an4,0\H,3,rch,4,ach,5,180.,0\H,4,rnh
 ,5,anh,6,180.,0\\rn1=1.18764711\rn2=1.32052891\rn3=1.16168366\rn4=1.00
 496881\rch=1.07935817\rnh=1.00908389\an1=75.07215576\an2=139.41168462\
 an3=201.41551434\an4=278.27203843\ach=125.01974194\anh=120.28195187\\V
 ersion=EM64L-G09RevD.01\State=1-A'\HF=-257.9923589\RMSD=7.104e-09\RMSF
 =2.260e-05\ZeroPoint=0.0478888\Thermal=0.0513186\Dipole=1.6066921,-1.3
 935544,0.\DipoleDeriv=0.2003555,0.0742933,0.,-0.0718817,0.434137,0.,0.
 ,0.,0.1026999,-0.192175,0.2812041,0.,0.1815723,-0.3628443,0.,0.,0.,-0.
 1634582,0.0513457,-0.3868585,0.,-0.3460276,-0.1360839,0.,0.,0.,-0.0963
 365,0.0594598,0.1595449,0.,0.2127899,-0.0225464,0.,0.,0.,-0.1558966,-0
 .3805288,-0.1194878,0.,0.0169429,-0.3092961,0.,0.,0.,-0.2075052,0.0530
 568,0.012647,0.,0.0123106,0.1171949,0.,0.,0.,0.1658656,0.2084859,-0.02
 13429,0.,-0.0057063,0.2794388,0.,0.,0.,0.354631\Polar=37.8036761,-0.50
 01212,36.0862274,0.,0.,15.6136461\PG=CS [SG(C1H2N4)]\NImag=0\\0.988522
 97,-0.00297908,0.64177544,0.,0.,0.14043031,-0.18846662,-0.09184369,0.,
 0.60398873,-0.12078617,-0.28465060,0.,-0.08433833,1.04570041,0.,0.,-0.
 06255274,0.,0.,0.09548543,-0.09878265,-0.08773212,0.,-0.25665901,-0.02
 016312,0.,0.49739541,0.00922928,-0.02226274,0.,0.01643910,-0.10781670,
 0.,0.07369776,0.60823084,0.,0.,0.02152082,0.,0.,-0.07119364,0.,0.,0.11
 918291,-0.11804145,0.08253918,0.,-0.07023082,0.03368986,0.,-0.11135935
 ,-0.01543187,0.,0.52164538,-0.02276070,0.02627554,0.,0.11435607,-0.111
 67779,0.,0.04662395,-0.37717589,0.,-0.09068085,0.57621357,0.,0.,0.0198
 0600,0.,0.,0.02761208,0.,0.,-0.10045695,0.,0.,0.12901368,-0.22879258,0
 .13953723,0.,0.02069569,0.08306336,0.,-0.03482407,-0.12138000,0.,-0.20
 879374,-0.05350438,0.,0.46530286,0.14521925,-0.29760171,0.,-0.03586486
 ,-0.10746076,0.,-0.01109203,-0.09536304,0.,-0.01298239,-0.11245069,0.,
 -0.07261968,0.60584530,0.,0.,-0.08028354,0.,0.,0.02131679,0.,0.,0.0368
 9825,0.,0.,-0.09330597,0.,0.,0.11303261,-0.37186001,-0.02571824,0.,-0.
 00405024,0.00296236,0.,0.00035007,0.00165338,0.,-0.00126258,0.00006298
 ,0.,-0.01039634,-0.00244273,0.,0.38773349,-0.02162995,-0.05765453,0.,-
 0.03212323,0.00444659,0.,-0.00169435,-0.00698789,0.,0.00641150,-0.0035
 7019,0.,0.02481594,0.01056656,0.,0.02405051,0.05350475,0.,0.,-0.029277
 28,0.,0.,-0.00321230,0.,0.,0.00646718,0.,0.,0.00915348,0.,0.,-0.005398
 46,0.,0.,0.02306409,0.01742032,-0.01380328,0.,-0.10527773,0.10557202,0
 .,0.00387959,0.03579234,0.,-0.01195744,0.00590292,0.,-0.00319182,-0.01
 021757,0.,-0.00051439,0.00016959,0.,0.09964146,0.01370736,-0.00588140,
 0.,0.11337493,-0.43854115,0.,0.00035990,0.00137543,0.,-0.00354544,0.00
 238545,0.,0.00008754,-0.00353567,0.,-0.00056825,-0.00030528,0.,-0.1234
 1603,0.44450261,0.,0.,-0.00964357,0.,0.,-0.00745562,0.,0.,-0.01241856,
 0.,0.,0.00817767,0.,0.,0.00774032,0.,0.,-0.00079671,0.,0.,0.01439646\\
 0.00000165,-0.00001858,0.,0.00004849,-0.00005222,0.,0.00000230,0.00005
 274,0.,-0.00004410,0.00000632,0.,-0.00000742,0.00002080,0.,-0.00000123
 ,-0.00000380,0.,0.00000031,-0.00000527,0.\\\@


 OLD AGE AND TREACHERY WILL ALWAYS PREVAIL OVER YOUTH AND SKILL.
 Job cpu time:       0 days  0 hours  1 minutes 16.5 seconds.
 File lengths (MBytes):  RWF=     10 Int=      0 D2E=      0 Chk=      2 Scr=      1
 Normal termination of Gaussian 09 at Tue Nov 26 10:21:30 2013.
