 Entering Gaussian System, Link 0=g09
 Initial command:
 /usr/local/gaussian/g09.d01.em64t.legacy.linda/g09/l1.exe "/tmp/rdj3/g09-18029/Gau-14289.inp" -scrdir="/tmp/rdj3/g09-18029/"
 Entering Link 1 = /usr/local/gaussian/g09.d01.em64t.legacy.linda/g09/l1.exe PID=     14290.
  
 Copyright (c) 1988,1990,1992,1993,1995,1998,2003,2009,2013,
            Gaussian, Inc.  All Rights Reserved.
  
 This is part of the Gaussian(R) 09 program.  It is based on
 the Gaussian(R) 03 system (copyright 2003, Gaussian, Inc.),
 the Gaussian(R) 98 system (copyright 1998, Gaussian, Inc.),
 the Gaussian(R) 94 system (copyright 1995, Gaussian, Inc.),
 the Gaussian 92(TM) system (copyright 1992, Gaussian, Inc.),
 the Gaussian 90(TM) system (copyright 1990, Gaussian, Inc.),
 the Gaussian 88(TM) system (copyright 1988, Gaussian, Inc.),
 the Gaussian 86(TM) system (copyright 1986, Carnegie Mellon
 University), and the Gaussian 82(TM) system (copyright 1983,
 Carnegie Mellon University). Gaussian is a federally registered
 trademark of Gaussian, Inc.
  
 This software contains proprietary and confidential information,
 including trade secrets, belonging to Gaussian, Inc.
  
 This software is provided under written license and may be
 used, copied, transmitted, or stored only in accord with that
 written license.
  
 The following legend is applicable only to US Government
 contracts under FAR:
  
                    RESTRICTED RIGHTS LEGEND
  
 Use, reproduction and disclosure by the US Government is
 subject to restrictions as set forth in subparagraphs (a)
 and (c) of the Commercial Computer Software - Restricted
 Rights clause in FAR 52.227-19.
  
 Gaussian, Inc.
 340 Quinnipiac St., Bldg. 40, Wallingford CT 06492
  
  
 ---------------------------------------------------------------
 Warning -- This program may not be used in any manner that
 competes with the business of Gaussian, Inc. or will provide
 assistance to any competitor of Gaussian, Inc.  The licensee
 of this program is prohibited from giving any competitor of
 Gaussian, Inc. access to this program.  By using this program,
 the user acknowledges that Gaussian, Inc. is engaged in the
 business of creating and licensing software in the field of
 computational chemistry and represents and warrants to the
 licensee that it is not a competitor of Gaussian, Inc. and that
 it will not use this program in any manner prohibited above.
 ---------------------------------------------------------------
  

 Cite this work as:
 Gaussian 09, Revision D.01,
 M. J. Frisch, G. W. Trucks, H. B. Schlegel, G. E. Scuseria, 
 M. A. Robb, J. R. Cheeseman, G. Scalmani, V. Barone, B. Mennucci, 
 G. A. Petersson, H. Nakatsuji, M. Caricato, X. Li, H. P. Hratchian, 
 A. F. Izmaylov, J. Bloino, G. Zheng, J. L. Sonnenberg, M. Hada, 
 M. Ehara, K. Toyota, R. Fukuda, J. Hasegawa, M. Ishida, T. Nakajima, 
 Y. Honda, O. Kitao, H. Nakai, T. Vreven, J. A. Montgomery, Jr., 
 J. E. Peralta, F. Ogliaro, M. Bearpark, J. J. Heyd, E. Brothers, 
 K. N. Kudin, V. N. Staroverov, T. Keith, R. Kobayashi, J. Normand, 
 K. Raghavachari, A. Rendell, J. C. Burant, S. S. Iyengar, J. Tomasi, 
 M. Cossi, N. Rega, J. M. Millam, M. Klene, J. E. Knox, J. B. Cross, 
 V. Bakken, C. Adamo, J. Jaramillo, R. Gomperts, R. E. Stratmann, 
 O. Yazyev, A. J. Austin, R. Cammi, C. Pomelli, J. W. Ochterski, 
 R. L. Martin, K. Morokuma, V. G. Zakrzewski, G. A. Voth, 
 P. Salvador, J. J. Dannenberg, S. Dapprich, A. D. Daniels, 
 O. Farkas, J. B. Foresman, J. V. Ortiz, J. Cioslowski, 
 and D. J. Fox, Gaussian, Inc., Wallingford CT, 2013.
 
 ******************************************
 Gaussian 09:  EM64L-G09RevD.01 24-Apr-2013
                16-Dec-2013 
 ******************************************
 %Nproc=8
 Will use up to    8 processors via shared memory.
 %mem=436000000
 -----------------------
 #M062X/cc-pVDZ opt freq
 -----------------------
 1/14=-1,18=20,19=15,26=3,38=1/1,3;
 2/9=110,12=2,17=6,18=5,40=1/2;
 3/5=16,11=2,16=1,25=1,30=1,71=1,74=-55/1,2,3;
 4//1;
 5/5=2,38=5/2;
 6/7=2,8=2,9=2,10=2,28=1/1;
 7//1,2,3,16;
 1/14=-1,18=20,19=15,26=3/3(2);
 2/9=110/2;
 99//99;
 2/9=110/2;
 3/5=16,11=2,16=1,25=1,30=1,71=1,74=-55/1,2,3;
 4/5=5,16=3,69=1/1;
 5/5=2,38=5/2;
 7//1,2,3,16;
 1/14=-1,18=20,19=15,26=3/3(-5);
 2/9=110/2;
 6/7=2,8=2,9=2,10=2,19=2,28=1/1;
 99/9=1/99;
 ------------------------------------------------------------------
 1H-tetrazole CH2N4 casno=288948 state=1 config=1 method=58 basis=5
 ------------------------------------------------------------------
 Symbolic Z-matrix:
 Charge =  0 Multiplicity = 1
 X
 X                    1     1. 
 C                    1     1.       2     90. 
 N                    1    rn1      2     90.      3    an1      0
 N                    1    rn2      2     90.      3    an2      0
 N                    1    rn3      2     90.      3    an3      0
 N                    1    rn4      2     90.      3    an4      0
 H                    3    rch      4    ach      5     180.     0
 H                    4    rnh      5    anh      6     180.     0
       Variables:
  rn1                   1.2426                   
  rn2                   1.333                    
  rn3                   1.1146                   
  rn4                   0.9264                   
  rch                   1.0678                   
  rnh                   0.9941                   
  an1                  71.8427                   
  an2                 133.7028                   
  an3                 194.4597                   
  an4                 276.0768                   
  ach                 125.0248                   
  anh                 120.7626                   
 

 GradGradGradGradGradGradGradGradGradGradGradGradGradGradGradGradGradGrad
 Berny optimization.
 Initialization pass.
                           ----------------------------
                           !    Initial Parameters    !
                           ! (Angstroms and Degrees)  !
 --------------------------                            --------------------------
 ! Name  Definition              Value          Derivative Info.                !
 --------------------------------------------------------------------------------
 ! R1    R(1,2)                  1.3303         estimate D2E/DX2                !
 ! R2    R(1,5)                  1.2892         estimate D2E/DX2                !
 ! R3    R(1,6)                  1.0678         estimate D2E/DX2                !
 ! R4    R(2,3)                  1.3261         estimate D2E/DX2                !
 ! R5    R(2,7)                  0.9941         estimate D2E/DX2                !
 ! R6    R(3,4)                  1.252          estimate D2E/DX2                !
 ! R7    R(4,5)                  1.3414         estimate D2E/DX2                !
 ! A1    A(2,1,5)              108.177          estimate D2E/DX2                !
 ! A2    A(2,1,6)              125.0248         estimate D2E/DX2                !
 ! A3    A(5,1,6)              126.7982         estimate D2E/DX2                !
 ! A4    A(1,2,3)              108.008          estimate D2E/DX2                !
 ! A5    A(1,2,7)              131.2294         estimate D2E/DX2                !
 ! A6    A(3,2,7)              120.7626         estimate D2E/DX2                !
 ! A7    A(2,3,4)              106.684          estimate D2E/DX2                !
 ! A8    A(3,4,5)              111.3724         estimate D2E/DX2                !
 ! A9    A(1,5,4)              105.7586         estimate D2E/DX2                !
 ! D1    D(5,1,2,3)              0.0            estimate D2E/DX2                !
 ! D2    D(5,1,2,7)            180.0            estimate D2E/DX2                !
 ! D3    D(6,1,2,3)            180.0            estimate D2E/DX2                !
 ! D4    D(6,1,2,7)              0.0            estimate D2E/DX2                !
 ! D5    D(2,1,5,4)              0.0            estimate D2E/DX2                !
 ! D6    D(6,1,5,4)            180.0            estimate D2E/DX2                !
 ! D7    D(1,2,3,4)              0.0            estimate D2E/DX2                !
 ! D8    D(7,2,3,4)            180.0            estimate D2E/DX2                !
 ! D9    D(2,3,4,5)              0.0            estimate D2E/DX2                !
 ! D10   D(3,4,5,1)              0.0            estimate D2E/DX2                !
 --------------------------------------------------------------------------------
 Trust Radius=3.00D-01 FncErr=1.00D-07 GrdErr=1.00D-06
 Number of steps in this run=     36 maximum allowed number of steps=    100.
 GradGradGradGradGradGradGradGradGradGradGradGradGradGradGradGradGradGrad

                          Input orientation:                          
 ---------------------------------------------------------------------
 Center     Atomic      Atomic             Coordinates (Angstroms)
 Number     Number       Type             X           Y           Z
 ---------------------------------------------------------------------
      1          6           0        1.000000    0.000000    0.000000
      2          7           0        0.387228   -1.180724    0.000000
      3          7           0       -0.920993   -0.963670    0.000000
      4          7           0       -1.079293    0.278314    0.000000
      5          7           0        0.098070    0.921194    0.000000
      6          1           0        2.058429    0.141157    0.000000
      7          1           0        0.749017   -2.106652    0.000000
 ---------------------------------------------------------------------
                    Distance matrix (angstroms):
                    1          2          3          4          5
     1  C    0.000000
     2  N    1.330263   0.000000
     3  N    2.149157   1.326105   0.000000
     4  N    2.097837   2.068690   1.252032   0.000000
     5  N    1.289216   2.121715   2.142710   1.341447   0.000000
     6  H    1.067800   2.130794   3.177672   3.140719   2.109850
     7  H    2.121551   0.994100   2.023695   3.005127   3.097029
                    6          7
     6  H    0.000000
     7  H    2.601385   0.000000
 Stoichiometry    CH2N4
 Framework group  CS[SG(CH2N4)]
 Deg. of freedom    11
 Full point group                 CS      NOp   2
 Largest Abelian subgroup         CS      NOp   2
 Largest concise Abelian subgroup C1      NOp   1
                         Standard orientation:                         
 ---------------------------------------------------------------------
 Center     Atomic      Atomic             Coordinates (Angstroms)
 Number     Number       Type             X           Y           Z
 ---------------------------------------------------------------------
      1          6           0        1.052733    0.225621    0.000000
      2          7           0        0.000000    1.038857    0.000000
      3          7           0       -1.095416    0.291448    0.000000
      4          7           0       -0.716382   -0.901832    0.000000
      5          7           0        0.622191   -0.989579    0.000000
      6          1           0        2.072287    0.542964    0.000000
      7          1           0       -0.061439    2.031056    0.000000
 ---------------------------------------------------------------------
 Rotational constants (GHZ):     10.9201517     10.7345054      5.4132664
 Standard basis: CC-pVDZ (5D, 7F)
 There are    63 symmetry adapted cartesian basis functions of A'  symmetry.
 There are    22 symmetry adapted cartesian basis functions of A"  symmetry.
 There are    58 symmetry adapted basis functions of A'  symmetry.
 There are    22 symmetry adapted basis functions of A"  symmetry.
    80 basis functions,   179 primitive gaussians,    85 cartesian basis functions
    18 alpha electrons       18 beta electrons
       nuclear repulsion energy       169.8308489506 Hartrees.
 NAtoms=    7 NActive=    7 NUniq=    7 SFac= 1.00D+00 NAtFMM=   60 NAOKFM=F Big=F
 Integral buffers will be    131072 words long.
 Raffenetti 2 integral format.
 Two-electron integral symmetry is turned on.
 One-electron integrals computed using PRISM.
 NBasis=    80 RedAO= T EigKep=  5.85D-03  NBF=    58    22
 NBsUse=    80 1.00D-06 EigRej= -1.00D+00 NBFU=    58    22
 ExpMin= 1.22D-01 ExpMax= 9.05D+03 ExpMxC= 3.09D+02 IAcc=1 IRadAn=         1 AccDes= 0.00D+00
 Harris functional with IExCor= 1009 and IRadAn=       1 diagonalized for initial guess.
 HarFok:  IExCor= 1009 AccDes= 0.00D+00 IRadAn=         1 IDoV= 1 UseB2=F ITyADJ=14
 ICtDFT=  3500011 ScaDFX=  1.000000  1.000000  1.000000  1.000000
 FoFCou: FMM=F IPFlag=           0 FMFlag=      100000 FMFlg1=           0
         NFxFlg=           0 DoJE=T BraDBF=F KetDBF=T FulRan=T
         wScrn=  0.000000 ICntrl=     500 IOpCl=  0 I1Cent=   200000004 NGrid=           0
         NMat0=    1 NMatS0=      1 NMatT0=    0 NMatD0=    1 NMtDS0=    0 NMtDT0=    0
 Petite list used in FoFCou.
 Initial guess orbital symmetries:
       Occupied  (A') (A') (A') (A') (A') (A') (A') (A') (A') (A')
                 (A') (A') (A") (A') (A") (A') (A") (A')
       Virtual   (A") (A") (A') (A') (A') (A') (A') (A') (A') (A')
                 (A") (A') (A') (A') (A') (A') (A") (A') (A") (A')
                 (A') (A") (A") (A') (A') (A") (A') (A") (A') (A')
                 (A') (A") (A') (A") (A') (A") (A') (A') (A') (A")
                 (A') (A") (A') (A') (A') (A") (A') (A") (A') (A')
                 (A') (A") (A") (A') (A') (A") (A') (A') (A') (A')
                 (A') (A')
 The electronic state of the initial guess is 1-A'.
 Keep R1 ints in memory in symmetry-blocked form, NReq=8043961.
 Requested convergence on RMS density matrix=1.00D-08 within 128 cycles.
 Requested convergence on MAX density matrix=1.00D-06.
 Requested convergence on             energy=1.00D-06.
 No special actions if energy rises.
 Integral accuracy reduced to 1.0D-05 until final iterations.
 Initial convergence to 1.0D-05 achieved.  Increase integral accuracy.
 SCF Done:  E(RM062X) =  -258.182105433     A.U. after   16 cycles
            NFock= 16  Conv=0.39D-08     -V/T= 2.0042

 **********************************************************************

            Population analysis using the SCF density.

 **********************************************************************

 Orbital symmetries:
       Occupied  (A') (A') (A') (A') (A') (A') (A') (A') (A') (A')
                 (A') (A") (A') (A') (A") (A") (A') (A')
       Virtual   (A") (A') (A") (A') (A') (A') (A') (A') (A') (A")
                 (A') (A') (A') (A') (A') (A") (A') (A') (A") (A')
                 (A') (A") (A") (A') (A') (A") (A') (A') (A") (A')
                 (A') (A") (A') (A") (A') (A") (A') (A') (A') (A")
                 (A") (A') (A') (A') (A') (A") (A') (A") (A') (A')
                 (A") (A') (A") (A') (A') (A") (A') (A') (A') (A')
                 (A') (A')
 The electronic state is 1-A'.
 Alpha  occ. eigenvalues --  -14.86841 -14.83389 -14.81374 -14.78314 -10.63522
 Alpha  occ. eigenvalues --   -1.28716  -1.06416  -1.01146  -0.77112  -0.75653
 Alpha  occ. eigenvalues --   -0.68439  -0.59061  -0.57114  -0.45830  -0.39494
 Alpha  occ. eigenvalues --   -0.37323  -0.37062  -0.35549
 Alpha virt. eigenvalues --    0.03857   0.07582   0.08064   0.12383   0.24121
 Alpha virt. eigenvalues --    0.24930   0.30494   0.36902   0.45553   0.50310
 Alpha virt. eigenvalues --    0.51863   0.60092   0.63717   0.66198   0.70650
 Alpha virt. eigenvalues --    0.75610   0.76276   0.77603   0.79197   0.81903
 Alpha virt. eigenvalues --    0.84979   0.88406   0.92971   0.94283   0.99616
 Alpha virt. eigenvalues --    1.01930   1.08861   1.17287   1.17453   1.19051
 Alpha virt. eigenvalues --    1.27469   1.31379   1.43299   1.51909   1.51921
 Alpha virt. eigenvalues --    1.55078   1.56379   1.60280   1.71384   1.77619
 Alpha virt. eigenvalues --    1.82778   1.84058   1.95681   1.97252   2.11985
 Alpha virt. eigenvalues --    2.20363   2.23008   2.26257   2.32557   2.37205
 Alpha virt. eigenvalues --    2.49944   2.50160   2.56468   2.58505   2.64218
 Alpha virt. eigenvalues --    2.69848   2.73238   2.76070   2.85638   3.06657
 Alpha virt. eigenvalues --    3.14202   3.38978
          Condensed to atoms (all electrons):
               1          2          3          4          5          6
     1  C    4.666355   0.435722  -0.110968  -0.135209   0.566473   0.404281
     2  N    0.435722   6.121019   0.319489  -0.110234  -0.068920  -0.026191
     3  N   -0.110968   0.319489   6.550469   0.437057  -0.116779   0.003551
     4  N   -0.135209  -0.110234   0.437057   6.489198   0.395794   0.002613
     5  N    0.566473  -0.068920  -0.116779   0.395794   6.421898  -0.017513
     6  H    0.404281  -0.026191   0.003551   0.002613  -0.017513   0.578085
     7  H   -0.029970   0.382847  -0.022563   0.007174   0.006637  -0.002261
               7
     1  C   -0.029970
     2  N    0.382847
     3  N   -0.022563
     4  N    0.007174
     5  N    0.006637
     6  H   -0.002261
     7  H    0.530918
 Mulliken charges:
               1
     1  C    0.203316
     2  N   -0.053732
     3  N   -0.060255
     4  N   -0.086392
     5  N   -0.187590
     6  H    0.057435
     7  H    0.127218
 Sum of Mulliken charges =   0.00000
 Mulliken charges with hydrogens summed into heavy atoms:
               1
     1  C    0.260751
     2  N    0.073487
     3  N   -0.060255
     4  N   -0.086392
     5  N   -0.187590
 Electronic spatial extent (au):  <R**2>=            243.6974
 Charge=              0.0000 electrons
 Dipole moment (field-independent basis, Debye):
    X=              2.3768    Y=              4.6716    Z=              0.0000  Tot=              5.2414
 Quadrupole moment (field-independent basis, Debye-Ang):
   XX=            -28.5275   YY=            -26.0638   ZZ=            -27.8806
   XY=              1.6976   XZ=              0.0000   YZ=              0.0000
 Traceless Quadrupole moment (field-independent basis, Debye-Ang):
   XX=             -1.0368   YY=              1.4268   ZZ=             -0.3900
   XY=              1.6976   XZ=              0.0000   YZ=              0.0000
 Octapole moment (field-independent basis, Debye-Ang**2):
  XXX=             10.8888  YYY=             21.1468  ZZZ=              0.0000  XYY=             -0.6504
  XXY=              4.2974  XXZ=              0.0000  XZZ=             -0.8541  YZZ=              0.4914
  YYZ=              0.0000  XYZ=              0.0000
 Hexadecapole moment (field-independent basis, Debye-Ang**3):
 XXXX=           -136.9460 YYYY=           -115.5403 ZZZZ=            -24.1186 XXXY=              5.9585
 XXXZ=              0.0000 YYYX=             -0.5988 YYYZ=              0.0000 ZZZX=              0.0000
 ZZZY=              0.0000 XXYY=            -51.1800 XXZZ=            -28.9847 YYZZ=            -27.2075
 XXYZ=              0.0000 YYXZ=              0.0000 ZZXY=             -0.1548
 N-N= 1.698308489506D+02 E-N=-9.423844214505D+02  KE= 2.571093151571D+02
 Symmetry A'   KE= 2.477647069632D+02
 Symmetry A"   KE= 9.344608193915D+00
 Calling FoFJK, ICntrl=      2127 FMM=F ISym2X=1 I1Cent= 0 IOpClX= 0 NMat=1 NMatS=1 NMatT=0.
 ***** Axes restored to original set *****
 -------------------------------------------------------------------
 Center     Atomic                   Forces (Hartrees/Bohr)
 Number     Number              X              Y              Z
 -------------------------------------------------------------------
      1        6           0.014806880   -0.004824454    0.000000000
      2        7           0.000040457   -0.003274578    0.000000000
      3        7          -0.011011277   -0.035375124    0.000000000
      4        7          -0.017492287    0.029526729    0.000000000
      5        7          -0.005768882    0.028788934    0.000000000
      6        1           0.012997683    0.001486280    0.000000000
      7        1           0.006427427   -0.016327787    0.000000000
 -------------------------------------------------------------------
 Cartesian Forces:  Max     0.035375124 RMS     0.014048960

 GradGradGradGradGradGradGradGradGradGradGradGradGradGradGradGradGradGrad
 Berny optimization.
 FormGI is forming the generalized inverse of G from B-inverse, IUseBI=4.
 Internal  Forces:  Max     0.037048975 RMS     0.011687793
 Search for a local minimum.
 Step number   1 out of a maximum of   36
 All quantities printed in internal units (Hartrees-Bohrs-Radians)
 Mixed Optimization -- RFO/linear search
 Second derivative matrix not updated -- first step.
 ITU=  0
     Eigenvalues ---    0.02505   0.02639   0.02674   0.02834   0.16000
     Eigenvalues ---    0.16000   0.22605   0.24688   0.37510   0.48741
     Eigenvalues ---    0.50870   0.56601   0.58498   0.66939   0.78934
 RFO step:  Lambda=-5.36706253D-03 EMin= 2.50488176D-02
 Linear search not attempted -- first point.
 Iteration  1 RMS(Cart)=  0.02014695 RMS(Int)=  0.00002069
 Iteration  2 RMS(Cart)=  0.00002264 RMS(Int)=  0.00000648
 Iteration  3 RMS(Cart)=  0.00000000 RMS(Int)=  0.00000648
 ClnCor:  largest displacement from symmetrization is 1.14D-11 for atom     1.
 Variable       Old X    -DE/DX   Delta X   Delta X   Delta X     New X
                                 (Linear)    (Quad)   (Total)
    R1        2.51383   0.02033   0.00000   0.03250   0.03249   2.54633
    R2        2.43626   0.02849   0.00000   0.03972   0.03972   2.47599
    R3        2.01785   0.01307   0.00000   0.03435   0.03435   2.05220
    R4        2.50598   0.01556   0.00000   0.02526   0.02526   2.53123
    R5        1.87858   0.01755   0.00000   0.03562   0.03562   1.91420
    R6        2.36600   0.03705   0.00000   0.04552   0.04553   2.41153
    R7        2.53497   0.01486   0.00000   0.02699   0.02700   2.56197
    A1        1.88804   0.00192   0.00000   0.00322   0.00321   1.89125
    A2        2.18209  -0.00116   0.00000  -0.00278  -0.00278   2.17932
    A3        2.21305  -0.00077   0.00000  -0.00044  -0.00043   2.21262
    A4        1.88509   0.00132   0.00000   0.00134   0.00132   1.88642
    A5        2.29039  -0.00075   0.00000  -0.00121  -0.00120   2.28918
    A6        2.10770  -0.00057   0.00000  -0.00013  -0.00012   2.10758
    A7        1.86199  -0.00113   0.00000  -0.00229  -0.00229   1.85970
    A8        1.94382  -0.00083   0.00000   0.00253   0.00254   1.94636
    A9        1.84584  -0.00129   0.00000  -0.00479  -0.00478   1.84105
    D1        0.00000   0.00000   0.00000   0.00000   0.00000   0.00000
    D2        3.14159   0.00000   0.00000   0.00000   0.00000   3.14159
    D3        3.14159   0.00000   0.00000   0.00000   0.00000   3.14159
    D4        0.00000   0.00000   0.00000   0.00000   0.00000   0.00000
    D5        0.00000   0.00000   0.00000   0.00000   0.00000   0.00000
    D6        3.14159   0.00000   0.00000   0.00000   0.00000   3.14159
    D7        0.00000   0.00000   0.00000   0.00000   0.00000   0.00000
    D8        3.14159   0.00000   0.00000   0.00000   0.00000   3.14159
    D9        0.00000   0.00000   0.00000   0.00000   0.00000   0.00000
   D10        0.00000   0.00000   0.00000   0.00000   0.00000   0.00000
         Item               Value     Threshold  Converged?
 Maximum Force            0.037049     0.000450     NO 
 RMS     Force            0.011688     0.000300     NO 
 Maximum Displacement     0.050900     0.001800     NO 
 RMS     Displacement     0.020142     0.001200     NO 
 Predicted change in Energy=-2.706469D-03
 GradGradGradGradGradGradGradGradGradGradGradGradGradGradGradGradGradGrad

                          Input orientation:                          
 ---------------------------------------------------------------------
 Center     Atomic      Atomic             Coordinates (Angstroms)
 Number     Number       Type             X           Y           Z
 ---------------------------------------------------------------------
      1          6           0        1.006220    0.005627    0.000000
      2          7           0        0.386418   -1.190820    0.000000
      3          7           0       -0.935439   -0.974308    0.000000
      4          7           0       -1.096499    0.291613    0.000000
      5          7           0        0.091896    0.944098    0.000000
      6          1           0        2.082959    0.146996    0.000000
      7          1           0        0.756902   -2.133588    0.000000
 ---------------------------------------------------------------------
                    Distance matrix (angstroms):
                    1          2          3          4          5
     1  C    0.000000
     2  N    1.347458   0.000000
     3  N    2.174929   1.339471   0.000000
     4  N    2.122078   2.096820   1.276126   0.000000
     5  N    1.310235   2.155138   2.176166   1.355735   0.000000
     6  H    1.085980   2.160557   3.219946   3.182746   2.144692
     7  H    2.153695   1.012951   2.051328   3.052326   3.148711
                    6          7
     6  H    0.000000
     7  H    2.638085   0.000000
 Stoichiometry    CH2N4
 Framework group  CS[SG(CH2N4)]
 Deg. of freedom    11
 Full point group                 CS      NOp   2
 Largest Abelian subgroup         CS      NOp   2
 Largest concise Abelian subgroup C1      NOp   1
                         Standard orientation:                         
 ---------------------------------------------------------------------
 Center     Atomic      Atomic             Coordinates (Angstroms)
 Number     Number       Type             X           Y           Z
 ---------------------------------------------------------------------
      1          6           0        1.064678    0.227173    0.000000
      2          7           0        0.000000    1.053069    0.000000
      3          7           0       -1.108970    0.301824    0.000000
      4          7           0       -0.723914   -0.914823    0.000000
      5          7           0        0.628590   -1.008360    0.000000
      6          1           0        2.101343    0.550710    0.000000
      7          1           0       -0.059351    2.064280    0.000000
 ---------------------------------------------------------------------
 Rotational constants (GHZ):     10.6270528     10.4376014      5.2657376
 Standard basis: CC-pVDZ (5D, 7F)
 There are    63 symmetry adapted cartesian basis functions of A'  symmetry.
 There are    22 symmetry adapted cartesian basis functions of A"  symmetry.
 There are    58 symmetry adapted basis functions of A'  symmetry.
 There are    22 symmetry adapted basis functions of A"  symmetry.
    80 basis functions,   179 primitive gaussians,    85 cartesian basis functions
    18 alpha electrons       18 beta electrons
       nuclear repulsion energy       167.4729399694 Hartrees.
 NAtoms=    7 NActive=    7 NUniq=    7 SFac= 1.00D+00 NAtFMM=   60 NAOKFM=F Big=F
 Integral buffers will be    131072 words long.
 Raffenetti 2 integral format.
 Two-electron integral symmetry is turned on.
 One-electron integrals computed using PRISM.
 NBasis=    80 RedAO= T EigKep=  6.29D-03  NBF=    58    22
 NBsUse=    80 1.00D-06 EigRej= -1.00D+00 NBFU=    58    22
 Initial guess from the checkpoint file:  "/tmp/rdj3/g09-18029/Gau-14290.chk"
 B after Tr=     0.000000    0.000000    0.000000
         Rot=    1.000000    0.000000    0.000000    0.000812 Ang=   0.09 deg.
 Initial guess orbital symmetries:
       Occupied  (A') (A') (A') (A') (A') (A') (A') (A') (A') (A')
                 (A') (A") (A') (A') (A") (A") (A') (A')
       Virtual   (A') (A') (A') (A') (A') (A') (A') (A') (A') (A')
                 (A') (A') (A') (A') (A') (A') (A') (A') (A') (A')
                 (A') (A') (A') (A') (A') (A') (A') (A') (A') (A')
                 (A') (A') (A') (A') (A') (A') (A') (A') (A') (A')
                 (A') (A') (A') (A") (A") (A") (A") (A") (A") (A")
                 (A") (A") (A") (A") (A") (A") (A") (A") (A") (A")
                 (A") (A")
 ExpMin= 1.22D-01 ExpMax= 9.05D+03 ExpMxC= 3.09D+02 IAcc=1 IRadAn=         1 AccDes= 0.00D+00
 Harris functional with IExCor= 1009 and IRadAn=       1 diagonalized for initial guess.
 HarFok:  IExCor= 1009 AccDes= 0.00D+00 IRadAn=         1 IDoV= 1 UseB2=F ITyADJ=14
 ICtDFT=  3500011 ScaDFX=  1.000000  1.000000  1.000000  1.000000
 FoFCou: FMM=F IPFlag=           0 FMFlag=      100000 FMFlg1=           0
         NFxFlg=           0 DoJE=T BraDBF=F KetDBF=T FulRan=T
         wScrn=  0.000000 ICntrl=     500 IOpCl=  0 I1Cent=   200000004 NGrid=           0
         NMat0=    1 NMatS0=      1 NMatT0=    0 NMatD0=    1 NMtDS0=    0 NMtDT0=    0
 Petite list used in FoFCou.
 Keep R1 ints in memory in symmetry-blocked form, NReq=8043961.
 Requested convergence on RMS density matrix=1.00D-08 within 128 cycles.
 Requested convergence on MAX density matrix=1.00D-06.
 Requested convergence on             energy=1.00D-06.
 No special actions if energy rises.
 Integral accuracy reduced to 1.0D-05 until final iterations.
 Initial convergence to 1.0D-05 achieved.  Increase integral accuracy.
 SCF Done:  E(RM062X) =  -258.184767042     A.U. after   14 cycles
            NFock= 14  Conv=0.62D-08     -V/T= 2.0054
 Calling FoFJK, ICntrl=      2127 FMM=F ISym2X=1 I1Cent= 0 IOpClX= 0 NMat=1 NMatS=1 NMatT=0.
 ***** Axes restored to original set *****
 -------------------------------------------------------------------
 Center     Atomic                   Forces (Hartrees/Bohr)
 Number     Number              X              Y              Z
 -------------------------------------------------------------------
      1        6           0.001861072   -0.001612779    0.000000000
      2        7          -0.000342776    0.004002625    0.000000000
      3        7          -0.000135754   -0.005848727    0.000000000
      4        7           0.000051651    0.004664255    0.000000000
      5        7          -0.000594687   -0.001211613    0.000000000
      6        1          -0.000723219   -0.000223687    0.000000000
      7        1          -0.000116288    0.000229926    0.000000000
 -------------------------------------------------------------------
 Cartesian Forces:  Max     0.005848727 RMS     0.001959692

 GradGradGradGradGradGradGradGradGradGradGradGradGradGradGradGradGradGrad
 Berny optimization.
 Using GEDIIS/GDIIS optimizer.
 FormGI is forming the generalized inverse of G from B-inverse, IUseBI=4.
 Internal  Forces:  Max     0.003881719 RMS     0.001086579
 Search for a local minimum.
 Step number   2 out of a maximum of   36
 All quantities printed in internal units (Hartrees-Bohrs-Radians)
 Mixed Optimization -- RFO/linear search
 Update second derivatives using D2CorX and points    1    2
 DE= -2.66D-03 DEPred=-2.71D-03 R= 9.83D-01
 TightC=F SS=  1.41D+00  RLast= 9.26D-02 DXNew= 5.0454D-01 2.7787D-01
 Trust test= 9.83D-01 RLast= 9.26D-02 DXMaxT set to 3.00D-01
 ITU=  1  0
 Use linear search instead of GDIIS.
     Eigenvalues ---    0.02505   0.02640   0.02674   0.02834   0.15998
     Eigenvalues ---    0.16000   0.22558   0.24659   0.37941   0.48888
     Eigenvalues ---    0.50995   0.56861   0.60518   0.67893   0.73998
 RFO step:  Lambda=-7.20634375D-05 EMin= 2.50507552D-02
 Quartic linear search produced a step of  0.01429.
 Iteration  1 RMS(Cart)=  0.00264943 RMS(Int)=  0.00000667
 Iteration  2 RMS(Cart)=  0.00000625 RMS(Int)=  0.00000254
 Iteration  3 RMS(Cart)=  0.00000000 RMS(Int)=  0.00000254
 ClnCor:  largest displacement from symmetrization is 2.38D-12 for atom     1.
 Variable       Old X    -DE/DX   Delta X   Delta X   Delta X     New X
                                 (Linear)    (Quad)   (Total)
    R1        2.54633  -0.00177   0.00046  -0.00358  -0.00312   2.54321
    R2        2.47599   0.00004   0.00057  -0.00021   0.00036   2.47634
    R3        2.05220  -0.00075   0.00049  -0.00201  -0.00152   2.05068
    R4        2.53123  -0.00018   0.00036  -0.00033   0.00003   2.53127
    R5        1.91420  -0.00025   0.00051  -0.00051  -0.00001   1.91419
    R6        2.41153   0.00388   0.00065   0.00516   0.00581   2.41734
    R7        2.56197  -0.00040   0.00039  -0.00030   0.00008   2.56205
    A1        1.89125  -0.00056   0.00005  -0.00500  -0.00496   1.88630
    A2        2.17932   0.00019  -0.00004   0.00189   0.00185   2.18117
    A3        2.21262   0.00038  -0.00001   0.00311   0.00310   2.21572
    A4        1.88642   0.00211   0.00002   0.00799   0.00801   1.89443
    A5        2.28918  -0.00106  -0.00002  -0.00405  -0.00407   2.28511
    A6        2.10758  -0.00105   0.00000  -0.00394  -0.00394   2.10364
    A7        1.85970  -0.00180  -0.00003  -0.00610  -0.00612   1.85357
    A8        1.94636  -0.00065   0.00004  -0.00028  -0.00024   1.94612
    A9        1.84105   0.00091  -0.00007   0.00339   0.00331   1.84436
    D1        0.00000   0.00000   0.00000   0.00000   0.00000   0.00000
    D2        3.14159   0.00000   0.00000   0.00000   0.00000   3.14159
    D3        3.14159   0.00000   0.00000   0.00000   0.00000   3.14159
    D4        0.00000   0.00000   0.00000   0.00000   0.00000   0.00000
    D5        0.00000   0.00000   0.00000   0.00000   0.00000   0.00000
    D6        3.14159   0.00000   0.00000   0.00000   0.00000   3.14159
    D7        0.00000   0.00000   0.00000   0.00000   0.00000   0.00000
    D8        3.14159   0.00000   0.00000   0.00000   0.00000   3.14159
    D9        0.00000   0.00000   0.00000   0.00000   0.00000   0.00000
   D10        0.00000   0.00000   0.00000   0.00000   0.00000   0.00000
         Item               Value     Threshold  Converged?
 Maximum Force            0.003882     0.000450     NO 
 RMS     Force            0.001087     0.000300     NO 
 Maximum Displacement     0.006758     0.001800     NO 
 RMS     Displacement     0.002649     0.001200     NO 
 Predicted change in Energy=-3.651579D-05
 GradGradGradGradGradGradGradGradGradGradGradGradGradGradGradGradGradGrad

                          Input orientation:                          
 ---------------------------------------------------------------------
 Center     Atomic      Atomic             Coordinates (Angstroms)
 Number     Number       Type             X           Y           Z
 ---------------------------------------------------------------------
      1          6           0        1.008277    0.005447    0.000000
      2          7           0        0.385508   -1.187600    0.000000
      3          7           0       -0.937411   -0.977554    0.000000
      4          7           0       -1.097297    0.291617    0.000000
      5          7           0        0.092097    0.942371    0.000000
      6          1           0        2.084394    0.145349    0.000000
      7          1           0        0.756888   -2.130012    0.000000
 ---------------------------------------------------------------------
                    Distance matrix (angstroms):
                    1          2          3          4          5
     1  C    0.000000
     2  N    1.345809   0.000000
     3  N    2.179906   1.339490   0.000000
     4  N    2.124932   2.094467   1.279203   0.000000
     5  N    1.310425   2.150085   2.178531   1.355779   0.000000
     6  H    1.085174   2.159391   3.223696   3.185052   2.145808
     7  H    2.150204   1.012948   2.049099   3.049965   3.143482
                    6          7
     6  H    0.000000
     7  H    2.634300   0.000000
 Stoichiometry    CH2N4
 Framework group  CS[SG(CH2N4)]
 Deg. of freedom    11
 Full point group                 CS      NOp   2
 Largest Abelian subgroup         CS      NOp   2
 Largest concise Abelian subgroup C1      NOp   1
                         Standard orientation:                         
 ---------------------------------------------------------------------
 Center     Atomic      Atomic             Coordinates (Angstroms)
 Number     Number       Type             X           Y           Z
 ---------------------------------------------------------------------
      1          6           0        1.066667    0.228977    0.000000
      2          7           0        0.000000    1.049601    0.000000
      3          7           0       -1.111989    0.302799    0.000000
      4          7           0       -0.723430   -0.915963    0.000000
      5          7           0        0.629335   -1.006318    0.000000
      6          1           0        2.101866    0.554498    0.000000
      7          1           0       -0.059281    2.060812    0.000000
 ---------------------------------------------------------------------
 Rotational constants (GHZ):     10.6310943     10.4277557      5.2642216
 Standard basis: CC-pVDZ (5D, 7F)
 There are    63 symmetry adapted cartesian basis functions of A'  symmetry.
 There are    22 symmetry adapted cartesian basis functions of A"  symmetry.
 There are    58 symmetry adapted basis functions of A'  symmetry.
 There are    22 symmetry adapted basis functions of A"  symmetry.
    80 basis functions,   179 primitive gaussians,    85 cartesian basis functions
    18 alpha electrons       18 beta electrons
       nuclear repulsion energy       167.4403485052 Hartrees.
 NAtoms=    7 NActive=    7 NUniq=    7 SFac= 1.00D+00 NAtFMM=   60 NAOKFM=F Big=F
 Integral buffers will be    131072 words long.
 Raffenetti 2 integral format.
 Two-electron integral symmetry is turned on.
 One-electron integrals computed using PRISM.
 NBasis=    80 RedAO= T EigKep=  6.30D-03  NBF=    58    22
 NBsUse=    80 1.00D-06 EigRej= -1.00D+00 NBFU=    58    22
 Initial guess from the checkpoint file:  "/tmp/rdj3/g09-18029/Gau-14290.chk"
 B after Tr=     0.000000    0.000000    0.000000
         Rot=    1.000000    0.000000    0.000000   -0.000366 Ang=  -0.04 deg.
 Initial guess orbital symmetries:
       Occupied  (A') (A') (A') (A') (A') (A') (A') (A') (A') (A')
                 (A') (A") (A') (A') (A") (A') (A") (A')
       Virtual   (A') (A') (A') (A') (A') (A') (A') (A') (A') (A')
                 (A') (A') (A') (A') (A') (A') (A') (A') (A') (A')
                 (A') (A') (A') (A') (A') (A') (A') (A') (A') (A')
                 (A') (A') (A') (A') (A') (A') (A') (A') (A') (A')
                 (A') (A') (A') (A") (A") (A") (A") (A") (A") (A")
                 (A") (A") (A") (A") (A") (A") (A") (A") (A") (A")
                 (A") (A")
 Keep R1 ints in memory in symmetry-blocked form, NReq=8043961.
 Requested convergence on RMS density matrix=1.00D-08 within 128 cycles.
 Requested convergence on MAX density matrix=1.00D-06.
 Requested convergence on             energy=1.00D-06.
 No special actions if energy rises.
 SCF Done:  E(RM062X) =  -258.184800909     A.U. after   10 cycles
            NFock= 10  Conv=0.42D-08     -V/T= 2.0055
 Calling FoFJK, ICntrl=      2127 FMM=F ISym2X=1 I1Cent= 0 IOpClX= 0 NMat=1 NMatS=1 NMatT=0.
 ***** Axes restored to original set *****
 -------------------------------------------------------------------
 Center     Atomic                   Forces (Hartrees/Bohr)
 Number     Number              X              Y              Z
 -------------------------------------------------------------------
      1        6          -0.000723060   -0.001208011    0.000000000
      2        7          -0.000074597   -0.000428841    0.000000000
      3        7           0.001961296   -0.001209411    0.000000000
      4        7           0.000702578    0.002774277    0.000000000
      5        7          -0.001625859    0.000067975    0.000000000
      6        1          -0.000234753   -0.000111039    0.000000000
      7        1          -0.000005607    0.000115050    0.000000000
 -------------------------------------------------------------------
 Cartesian Forces:  Max     0.002774277 RMS     0.000936048

 GradGradGradGradGradGradGradGradGradGradGradGradGradGradGradGradGradGrad
 Berny optimization.
 Using GEDIIS/GDIIS optimizer.
 FormGI is forming the generalized inverse of G from B-inverse, IUseBI=4.
 Internal  Forces:  Max     0.001877537 RMS     0.000676970
 Search for a local minimum.
 Step number   3 out of a maximum of   36
 All quantities printed in internal units (Hartrees-Bohrs-Radians)
 Mixed Optimization -- En-DIIS/RFO-DIIS
 Update second derivatives using D2CorX and points    1    2    3
 DE= -3.39D-05 DEPred=-3.65D-05 R= 9.27D-01
 TightC=F SS=  1.41D+00  RLast= 1.51D-02 DXNew= 5.0454D-01 4.5339D-02
 Trust test= 9.27D-01 RLast= 1.51D-02 DXMaxT set to 3.00D-01
 ITU=  1  1  0
 Use linear search instead of GDIIS.
     Eigenvalues ---    0.02505   0.02639   0.02674   0.02834   0.15932
     Eigenvalues ---    0.16003   0.24159   0.30544   0.37395   0.44529
     Eigenvalues ---    0.49235   0.53221   0.64795   0.67062   0.70287
 RFO step:  Lambda=-2.14784650D-05 EMin= 2.50487766D-02
 Quartic linear search produced a step of -0.07515.
 Iteration  1 RMS(Cart)=  0.00134813 RMS(Int)=  0.00000074
 Iteration  2 RMS(Cart)=  0.00000039 RMS(Int)=  0.00000060
 ClnCor:  largest displacement from symmetrization is 1.27D-12 for atom     1.
 Variable       Old X    -DE/DX   Delta X   Delta X   Delta X     New X
                                 (Linear)    (Quad)   (Total)
    R1        2.54321  -0.00077   0.00023  -0.00237  -0.00213   2.54108
    R2        2.47634   0.00087  -0.00003   0.00133   0.00130   2.47765
    R3        2.05068  -0.00025   0.00011  -0.00108  -0.00097   2.04972
    R4        2.53127  -0.00111   0.00000  -0.00160  -0.00160   2.52967
    R5        1.91419  -0.00011   0.00000  -0.00009  -0.00009   1.91410
    R6        2.41734   0.00188  -0.00044   0.00448   0.00404   2.42138
    R7        2.56205  -0.00173  -0.00001  -0.00263  -0.00264   2.55941
    A1        1.88630   0.00083   0.00037   0.00114   0.00151   1.88781
    A2        2.18117  -0.00046  -0.00014  -0.00109  -0.00123   2.17994
    A3        2.21572  -0.00036  -0.00023  -0.00005  -0.00029   2.21543
    A4        1.89443  -0.00075  -0.00060  -0.00047  -0.00107   1.89335
    A5        2.28511   0.00031   0.00031  -0.00017   0.00014   2.28525
    A6        2.10364   0.00044   0.00030   0.00064   0.00093   2.10458
    A7        1.85357   0.00071   0.00046   0.00074   0.00120   1.85477
    A8        1.94612  -0.00057   0.00002  -0.00169  -0.00167   1.94445
    A9        1.84436  -0.00021  -0.00025   0.00028   0.00003   1.84439
    D1        0.00000   0.00000   0.00000   0.00000   0.00000   0.00000
    D2        3.14159   0.00000   0.00000   0.00000   0.00000   3.14159
    D3        3.14159   0.00000   0.00000   0.00000   0.00000   3.14159
    D4        0.00000   0.00000   0.00000   0.00000   0.00000   0.00000
    D5        0.00000   0.00000   0.00000   0.00000   0.00000   0.00000
    D6        3.14159   0.00000   0.00000   0.00000   0.00000   3.14159
    D7        0.00000   0.00000   0.00000   0.00000   0.00000   0.00000
    D8        3.14159   0.00000   0.00000   0.00000   0.00000   3.14159
    D9        0.00000   0.00000   0.00000   0.00000   0.00000   0.00000
   D10        0.00000   0.00000   0.00000   0.00000   0.00000   0.00000
         Item               Value     Threshold  Converged?
 Maximum Force            0.001878     0.000450     NO 
 RMS     Force            0.000677     0.000300     NO 
 Maximum Displacement     0.003621     0.001800     NO 
 RMS     Displacement     0.001348     0.001200     NO 
 Predicted change in Energy=-1.096177D-05
 GradGradGradGradGradGradGradGradGradGradGradGradGradGradGradGradGradGrad

                          Input orientation:                          
 ---------------------------------------------------------------------
 Center     Atomic      Atomic             Coordinates (Angstroms)
 Number     Number       Type             X           Y           Z
 ---------------------------------------------------------------------
      1          6           0        1.007327    0.004693    0.000000
      2          7           0        0.386054   -1.187861    0.000000
      3          7           0       -0.935974   -0.977607    0.000000
      4          7           0       -1.097322    0.293534    0.000000
      5          7           0        0.091321    0.942750    0.000000
      6          1           0        2.082996    0.144086    0.000000
      7          1           0        0.758055   -2.129976    0.000000
 ---------------------------------------------------------------------
                    Distance matrix (angstroms):
                    1          2          3          4          5
     1  C    0.000000
     2  N    1.344681   0.000000
     3  N    2.177461   1.338643   0.000000
     4  N    2.124377   2.096409   1.281340   0.000000
     5  N    1.311113   2.150900   2.177868   1.354383   0.000000
     6  H    1.084663   2.157242   3.220617   3.183827   2.145841
     7  H    2.149174   1.012900   2.048826   3.052183   3.144229
                    6          7
     6  H    0.000000
     7  H    2.631886   0.000000
 Stoichiometry    CH2N4
 Framework group  CS[SG(CH2N4)]
 Deg. of freedom    11
 Full point group                 CS      NOp   2
 Largest Abelian subgroup         CS      NOp   2
 Largest concise Abelian subgroup C1      NOp   1
                         Standard orientation:                         
 ---------------------------------------------------------------------
 Center     Atomic      Atomic             Coordinates (Angstroms)
 Number     Number       Type             X           Y           Z
 ---------------------------------------------------------------------
      1          6           0        1.065284    0.229674    0.000000
      2          7           0        0.000000    1.050244    0.000000
      3          7           0       -1.110929    0.303383    0.000000
      4          7           0       -0.722598   -0.917695    0.000000
      5          7           0        0.628859   -1.006672    0.000000
      6          1           0        2.099790    0.555697    0.000000
      7          1           0       -0.058816    2.061435    0.000000
 ---------------------------------------------------------------------
 Rotational constants (GHZ):     10.6210465     10.4409793      5.2651216
 Standard basis: CC-pVDZ (5D, 7F)
 There are    63 symmetry adapted cartesian basis functions of A'  symmetry.
 There are    22 symmetry adapted cartesian basis functions of A"  symmetry.
 There are    58 symmetry adapted basis functions of A'  symmetry.
 There are    22 symmetry adapted basis functions of A"  symmetry.
    80 basis functions,   179 primitive gaussians,    85 cartesian basis functions
    18 alpha electrons       18 beta electrons
       nuclear repulsion energy       167.4499655323 Hartrees.
 NAtoms=    7 NActive=    7 NUniq=    7 SFac= 1.00D+00 NAtFMM=   60 NAOKFM=F Big=F
 Integral buffers will be    131072 words long.
 Raffenetti 2 integral format.
 Two-electron integral symmetry is turned on.
 One-electron integrals computed using PRISM.
 NBasis=    80 RedAO= T EigKep=  6.30D-03  NBF=    58    22
 NBsUse=    80 1.00D-06 EigRej= -1.00D+00 NBFU=    58    22
 Initial guess from the checkpoint file:  "/tmp/rdj3/g09-18029/Gau-14290.chk"
 B after Tr=     0.000000    0.000000    0.000000
         Rot=    1.000000    0.000000    0.000000   -0.000109 Ang=  -0.01 deg.
 Initial guess orbital symmetries:
       Occupied  (A') (A') (A') (A') (A') (A') (A') (A') (A') (A')
                 (A') (A") (A') (A') (A") (A') (A") (A')
       Virtual   (A') (A') (A') (A') (A') (A') (A') (A') (A') (A')
                 (A') (A') (A') (A') (A') (A') (A') (A') (A') (A')
                 (A') (A') (A') (A') (A') (A') (A') (A') (A') (A')
                 (A') (A') (A') (A') (A') (A') (A') (A') (A') (A')
                 (A') (A') (A') (A") (A") (A") (A") (A") (A") (A")
                 (A") (A") (A") (A") (A") (A") (A") (A") (A") (A")
                 (A") (A")
 Keep R1 ints in memory in symmetry-blocked form, NReq=8043961.
 Requested convergence on RMS density matrix=1.00D-08 within 128 cycles.
 Requested convergence on MAX density matrix=1.00D-06.
 Requested convergence on             energy=1.00D-06.
 No special actions if energy rises.
 SCF Done:  E(RM062X) =  -258.184812686     A.U. after    9 cycles
            NFock=  9  Conv=0.68D-08     -V/T= 2.0055
 Calling FoFJK, ICntrl=      2127 FMM=F ISym2X=1 I1Cent= 0 IOpClX= 0 NMat=1 NMatS=1 NMatT=0.
 ***** Axes restored to original set *****
 -------------------------------------------------------------------
 Center     Atomic                   Forces (Hartrees/Bohr)
 Number     Number              X              Y              Z
 -------------------------------------------------------------------
      1        6          -0.000011751   -0.000012189    0.000000000
      2        7          -0.000721875   -0.000007631    0.000000000
      3        7           0.000325633   -0.000147553    0.000000000
      4        7           0.001156595    0.000227262    0.000000000
      5        7          -0.000825596   -0.000175930    0.000000000
      6        1           0.000137919    0.000048712    0.000000000
      7        1          -0.000060925    0.000067329    0.000000000
 -------------------------------------------------------------------
 Cartesian Forces:  Max     0.001156595 RMS     0.000363896

 GradGradGradGradGradGradGradGradGradGradGradGradGradGradGradGradGradGrad
 Berny optimization.
 Using GEDIIS/GDIIS optimizer.
 FormGI is forming the generalized inverse of G from B-inverse, IUseBI=4.
 Internal  Forces:  Max     0.000880509 RMS     0.000238257
 Search for a local minimum.
 Step number   4 out of a maximum of   36
 All quantities printed in internal units (Hartrees-Bohrs-Radians)
 Mixed Optimization -- En-DIIS/RFO-DIIS
 Swapping is turned off.
 Update second derivatives using D2CorX and points    1    2    3    4
 DE= -1.18D-05 DEPred=-1.10D-05 R= 1.07D+00
 TightC=F SS=  1.41D+00  RLast= 6.57D-03 DXNew= 5.0454D-01 1.9710D-02
 Trust test= 1.07D+00 RLast= 6.57D-03 DXMaxT set to 3.00D-01
 ITU=  1  1  1  0
     Eigenvalues ---    0.02505   0.02639   0.02674   0.02835   0.15966
     Eigenvalues ---    0.16062   0.24052   0.25647   0.38152   0.47953
     Eigenvalues ---    0.49275   0.53356   0.61854   0.69005   0.70979
 En-DIIS/RFO-DIIS IScMMF=        0 using points:     4    3
 RFO step:  Lambda=-2.21698046D-06.
 DidBck=F Rises=F RFO-DIIS coefs:    1.07025   -0.07025
 Iteration  1 RMS(Cart)=  0.00051076 RMS(Int)=  0.00000017
 Iteration  2 RMS(Cart)=  0.00000012 RMS(Int)=  0.00000007
 ClnCor:  largest displacement from symmetrization is 2.99D-13 for atom     1.
 Variable       Old X    -DE/DX   Delta X   Delta X   Delta X     New X
                                 (Linear)    (Quad)   (Total)
    R1        2.54108   0.00017  -0.00015   0.00006  -0.00009   2.54099
    R2        2.47765   0.00000   0.00009   0.00020   0.00029   2.47794
    R3        2.04972   0.00014  -0.00007   0.00026   0.00020   2.04991
    R4        2.52967  -0.00061  -0.00011  -0.00120  -0.00131   2.52836
    R5        1.91410  -0.00008  -0.00001  -0.00015  -0.00016   1.91394
    R6        2.42138  -0.00004   0.00028   0.00059   0.00087   2.42225
    R7        2.55941  -0.00088  -0.00019  -0.00192  -0.00211   2.55731
    A1        1.88781  -0.00008   0.00011  -0.00018  -0.00008   1.88774
    A2        2.17994   0.00010  -0.00009   0.00044   0.00035   2.18029
    A3        2.21543  -0.00003  -0.00002  -0.00025  -0.00027   2.21516
    A4        1.89335   0.00002  -0.00008   0.00061   0.00053   1.89388
    A5        2.28525  -0.00001   0.00001  -0.00033  -0.00032   2.28493
    A6        2.10458  -0.00001   0.00007  -0.00028  -0.00021   2.10437
    A7        1.85477  -0.00019   0.00008  -0.00116  -0.00108   1.85369
    A8        1.94445   0.00043  -0.00012   0.00134   0.00122   1.94567
    A9        1.84439  -0.00018   0.00000  -0.00060  -0.00060   1.84380
    D1        0.00000   0.00000   0.00000   0.00000   0.00000   0.00000
    D2        3.14159   0.00000   0.00000   0.00000   0.00000   3.14159
    D3        3.14159   0.00000   0.00000   0.00000   0.00000   3.14159
    D4        0.00000   0.00000   0.00000   0.00000   0.00000   0.00000
    D5        0.00000   0.00000   0.00000   0.00000   0.00000   0.00000
    D6        3.14159   0.00000   0.00000   0.00000   0.00000   3.14159
    D7        0.00000   0.00000   0.00000   0.00000   0.00000   0.00000
    D8        3.14159   0.00000   0.00000   0.00000   0.00000   3.14159
    D9        0.00000   0.00000   0.00000   0.00000   0.00000   0.00000
   D10        0.00000   0.00000   0.00000   0.00000   0.00000   0.00000
         Item               Value     Threshold  Converged?
 Maximum Force            0.000881     0.000450     NO 
 RMS     Force            0.000238     0.000300     YES
 Maximum Displacement     0.002004     0.001800     NO 
 RMS     Displacement     0.000511     0.001200     YES
 Predicted change in Energy=-1.769649D-06
 GradGradGradGradGradGradGradGradGradGradGradGradGradGradGradGradGradGrad

                          Input orientation:                          
 ---------------------------------------------------------------------
 Center     Atomic      Atomic             Coordinates (Angstroms)
 Number     Number       Type             X           Y           Z
 ---------------------------------------------------------------------
      1          6           0        1.007106    0.004624    0.000000
      2          7           0        0.385664   -1.187788    0.000000
      3          7           0       -0.935758   -0.978134    0.000000
      4          7           0       -1.096261    0.293579    0.000000
      5          7           0        0.091071    0.942870    0.000000
      6          1           0        2.082851    0.144234    0.000000
      7          1           0        0.757785   -2.129766    0.000000
 ---------------------------------------------------------------------
                    Distance matrix (angstroms):
                    1          2          3          4          5
     1  C    0.000000
     2  N    1.344633   0.000000
     3  N    2.177276   1.337950   0.000000
     4  N    2.123123   2.095365   1.281802   0.000000
     5  N    1.311269   2.150927   2.178217   1.353268   0.000000
     6  H    1.084766   2.157482   3.220513   3.182618   2.145928
     7  H    2.148902   1.012816   2.048009   3.051244   3.144137
                    6          7
     6  H    0.000000
     7  H    2.631896   0.000000
 Stoichiometry    CH2N4
 Framework group  CS[SG(CH2N4)]
 Deg. of freedom    11
 Full point group                 CS      NOp   2
 Largest Abelian subgroup         CS      NOp   2
 Largest concise Abelian subgroup C1      NOp   1
                         Standard orientation:                         
 ---------------------------------------------------------------------
 Center     Atomic      Atomic             Coordinates (Angstroms)
 Number     Number       Type             X           Y           Z
 ---------------------------------------------------------------------
      1          6           0        1.065090    0.229187    0.000000
      2          7           0        0.000000    1.049931    0.000000
      3          7           0       -1.110892    0.304257    0.000000
      4          7           0       -0.721982   -0.917122    0.000000
      5          7           0        0.628286   -1.007190    0.000000
      6          1           0        2.099870    0.554682    0.000000
      7          1           0       -0.058295    2.061067    0.000000
 ---------------------------------------------------------------------
 Rotational constants (GHZ):     10.6308529     10.4391856      5.2670737
 Standard basis: CC-pVDZ (5D, 7F)
 There are    63 symmetry adapted cartesian basis functions of A'  symmetry.
 There are    22 symmetry adapted cartesian basis functions of A"  symmetry.
 There are    58 symmetry adapted basis functions of A'  symmetry.
 There are    22 symmetry adapted basis functions of A"  symmetry.
    80 basis functions,   179 primitive gaussians,    85 cartesian basis functions
    18 alpha electrons       18 beta electrons
       nuclear repulsion energy       167.4797528511 Hartrees.
 NAtoms=    7 NActive=    7 NUniq=    7 SFac= 1.00D+00 NAtFMM=   60 NAOKFM=F Big=F
 Integral buffers will be    131072 words long.
 Raffenetti 2 integral format.
 Two-electron integral symmetry is turned on.
 One-electron integrals computed using PRISM.
 NBasis=    80 RedAO= T EigKep=  6.30D-03  NBF=    58    22
 NBsUse=    80 1.00D-06 EigRej= -1.00D+00 NBFU=    58    22
 Initial guess from the checkpoint file:  "/tmp/rdj3/g09-18029/Gau-14290.chk"
 B after Tr=     0.000000    0.000000    0.000000
         Rot=    1.000000    0.000000    0.000000    0.000173 Ang=   0.02 deg.
 Initial guess orbital symmetries:
       Occupied  (A') (A') (A') (A') (A') (A') (A') (A') (A') (A')
                 (A') (A") (A') (A') (A") (A') (A") (A')
       Virtual   (A') (A') (A') (A') (A') (A') (A') (A') (A') (A')
                 (A') (A') (A') (A') (A') (A') (A') (A') (A') (A')
                 (A') (A') (A') (A') (A') (A') (A') (A') (A') (A')
                 (A') (A') (A') (A') (A') (A') (A') (A') (A') (A')
                 (A') (A') (A') (A") (A") (A") (A") (A") (A") (A")
                 (A") (A") (A") (A") (A") (A") (A") (A") (A") (A")
                 (A") (A")
 Keep R1 ints in memory in symmetry-blocked form, NReq=8043961.
 Requested convergence on RMS density matrix=1.00D-08 within 128 cycles.
 Requested convergence on MAX density matrix=1.00D-06.
 Requested convergence on             energy=1.00D-06.
 No special actions if energy rises.
 SCF Done:  E(RM062X) =  -258.184814018     A.U. after    9 cycles
            NFock=  9  Conv=0.44D-08     -V/T= 2.0055
 Calling FoFJK, ICntrl=      2127 FMM=F ISym2X=1 I1Cent= 0 IOpClX= 0 NMat=1 NMatS=1 NMatT=0.
 ***** Axes restored to original set *****
 -------------------------------------------------------------------
 Center     Atomic                   Forces (Hartrees/Bohr)
 Number     Number              X              Y              Z
 -------------------------------------------------------------------
      1        6           0.000343138    0.000034810    0.000000000
      2        7          -0.000154667   -0.000177081    0.000000000
      3        7           0.000170196    0.000492515    0.000000000
      4        7          -0.000069766    0.000049494    0.000000000
      5        7          -0.000369557   -0.000386104    0.000000000
      6        1           0.000069195   -0.000014008    0.000000000
      7        1           0.000011461    0.000000373    0.000000000
 -------------------------------------------------------------------
 Cartesian Forces:  Max     0.000492515 RMS     0.000188206

 GradGradGradGradGradGradGradGradGradGradGradGradGradGradGradGradGradGrad
 Berny optimization.
 Using GEDIIS/GDIIS optimizer.
 FormGI is forming the generalized inverse of G from B-inverse, IUseBI=4.
 Internal  Forces:  Max     0.000309589 RMS     0.000137266
 Search for a local minimum.
 Step number   5 out of a maximum of   36
 All quantities printed in internal units (Hartrees-Bohrs-Radians)
 Mixed Optimization -- En-DIIS/RFO-DIIS
 Swapping is turned off.
 Update second derivatives using D2CorX and points    1    2    3    4    5
 DE= -1.33D-06 DEPred=-1.77D-06 R= 7.53D-01
 TightC=F SS=  1.41D+00  RLast= 3.27D-03 DXNew= 5.0454D-01 9.8235D-03
 Trust test= 7.53D-01 RLast= 3.27D-03 DXMaxT set to 3.00D-01
 ITU=  1  1  1  1  0
     Eigenvalues ---    0.02505   0.02639   0.02674   0.02835   0.15173
     Eigenvalues ---    0.16036   0.17951   0.38174   0.42557   0.45171
     Eigenvalues ---    0.49132   0.55762   0.59633   0.67784   0.73262
 En-DIIS/RFO-DIIS IScMMF=        0 using points:     5    4    3
 RFO step:  Lambda=-7.38428828D-07.
 DidBck=F Rises=F RFO-DIIS coefs:    0.84115    0.22507   -0.06622
 Iteration  1 RMS(Cart)=  0.00030662 RMS(Int)=  0.00000010
 Iteration  2 RMS(Cart)=  0.00000008 RMS(Int)=  0.00000007
 ClnCor:  largest displacement from symmetrization is 1.06D-13 for atom     1.
 Variable       Old X    -DE/DX   Delta X   Delta X   Delta X     New X
                                 (Linear)    (Quad)   (Total)
    R1        2.54099   0.00003  -0.00013   0.00016   0.00003   2.54102
    R2        2.47794   0.00014   0.00004   0.00021   0.00025   2.47819
    R3        2.04991   0.00006  -0.00009   0.00025   0.00016   2.05007
    R4        2.52836   0.00003   0.00010  -0.00039  -0.00028   2.52807
    R5        1.91394   0.00001   0.00002  -0.00005  -0.00003   1.91391
    R6        2.42225  -0.00025   0.00013  -0.00015  -0.00002   2.42224
    R7        2.55731  -0.00023   0.00016  -0.00105  -0.00089   2.55641
    A1        1.88774  -0.00025   0.00011  -0.00082  -0.00070   1.88703
    A2        2.18029   0.00013  -0.00014   0.00061   0.00047   2.18076
    A3        2.21516   0.00011   0.00002   0.00021   0.00023   2.21539
    A4        1.89388  -0.00010  -0.00016   0.00014  -0.00002   1.89387
    A5        2.28493   0.00001   0.00006  -0.00026  -0.00020   2.28473
    A6        2.10437   0.00009   0.00010   0.00012   0.00022   2.10459
    A7        1.85369   0.00028   0.00025   0.00024   0.00049   1.85418
    A8        1.94567  -0.00024  -0.00030  -0.00036  -0.00066   1.94501
    A9        1.84380   0.00031   0.00010   0.00079   0.00089   1.84469
    D1        0.00000   0.00000   0.00000   0.00000   0.00000   0.00000
    D2        3.14159   0.00000   0.00000   0.00000   0.00000   3.14159
    D3        3.14159   0.00000   0.00000   0.00000   0.00000   3.14159
    D4        0.00000   0.00000   0.00000   0.00000   0.00000   0.00000
    D5        0.00000   0.00000   0.00000   0.00000   0.00000   0.00000
    D6        3.14159   0.00000   0.00000   0.00000   0.00000   3.14159
    D7        0.00000   0.00000   0.00000   0.00000   0.00000   0.00000
    D8        3.14159   0.00000   0.00000   0.00000   0.00000   3.14159
    D9        0.00000   0.00000   0.00000   0.00000   0.00000   0.00000
   D10        0.00000   0.00000   0.00000   0.00000   0.00000   0.00000
         Item               Value     Threshold  Converged?
 Maximum Force            0.000310     0.000450     YES
 RMS     Force            0.000137     0.000300     YES
 Maximum Displacement     0.000921     0.001800     YES
 RMS     Displacement     0.000307     0.001200     YES
 Predicted change in Energy=-5.921995D-07
 Optimization completed.
    -- Stationary point found.
                           ----------------------------
                           !   Optimized Parameters   !
                           ! (Angstroms and Degrees)  !
 --------------------------                            --------------------------
 ! Name  Definition              Value          Derivative Info.                !
 --------------------------------------------------------------------------------
 ! R1    R(1,2)                  1.3446         -DE/DX =    0.0                 !
 ! R2    R(1,5)                  1.3113         -DE/DX =    0.0001              !
 ! R3    R(1,6)                  1.0848         -DE/DX =    0.0001              !
 ! R4    R(2,3)                  1.3379         -DE/DX =    0.0                 !
 ! R5    R(2,7)                  1.0128         -DE/DX =    0.0                 !
 ! R6    R(3,4)                  1.2818         -DE/DX =   -0.0003              !
 ! R7    R(4,5)                  1.3533         -DE/DX =   -0.0002              !
 ! A1    A(2,1,5)              108.1593         -DE/DX =   -0.0002              !
 ! A2    A(2,1,6)              124.9214         -DE/DX =    0.0001              !
 ! A3    A(5,1,6)              126.9192         -DE/DX =    0.0001              !
 ! A4    A(1,2,3)              108.5116         -DE/DX =   -0.0001              !
 ! A5    A(1,2,7)              130.917          -DE/DX =    0.0                 !
 ! A6    A(3,2,7)              120.5714         -DE/DX =    0.0001              !
 ! A7    A(2,3,4)              106.2086         -DE/DX =    0.0003              !
 ! A8    A(3,4,5)              111.4787         -DE/DX =   -0.0002              !
 ! A9    A(1,5,4)              105.6418         -DE/DX =    0.0003              !
 ! D1    D(5,1,2,3)              0.0            -DE/DX =    0.0                 !
 ! D2    D(5,1,2,7)            180.0            -DE/DX =    0.0                 !
 ! D3    D(6,1,2,3)            180.0            -DE/DX =    0.0                 !
 ! D4    D(6,1,2,7)              0.0            -DE/DX =    0.0                 !
 ! D5    D(2,1,5,4)              0.0            -DE/DX =    0.0                 !
 ! D6    D(6,1,5,4)            180.0            -DE/DX =    0.0                 !
 ! D7    D(1,2,3,4)              0.0            -DE/DX =    0.0                 !
 ! D8    D(7,2,3,4)            180.0            -DE/DX =    0.0                 !
 ! D9    D(2,3,4,5)              0.0            -DE/DX =    0.0                 !
 ! D10   D(3,4,5,1)              0.0            -DE/DX =    0.0                 !
 --------------------------------------------------------------------------------
 GradGradGradGradGradGradGradGradGradGradGradGradGradGradGradGradGradGrad

                          Input orientation:                          
 ---------------------------------------------------------------------
 Center     Atomic      Atomic             Coordinates (Angstroms)
 Number     Number       Type             X           Y           Z
 ---------------------------------------------------------------------
      1          6           0        1.007106    0.004624    0.000000
      2          7           0        0.385664   -1.187788    0.000000
      3          7           0       -0.935758   -0.978134    0.000000
      4          7           0       -1.096261    0.293579    0.000000
      5          7           0        0.091071    0.942870    0.000000
      6          1           0        2.082851    0.144234    0.000000
      7          1           0        0.757785   -2.129766    0.000000
 ---------------------------------------------------------------------
                    Distance matrix (angstroms):
                    1          2          3          4          5
     1  C    0.000000
     2  N    1.344633   0.000000
     3  N    2.177276   1.337950   0.000000
     4  N    2.123123   2.095365   1.281802   0.000000
     5  N    1.311269   2.150927   2.178217   1.353268   0.000000
     6  H    1.084766   2.157482   3.220513   3.182618   2.145928
     7  H    2.148902   1.012816   2.048009   3.051244   3.144137
                    6          7
     6  H    0.000000
     7  H    2.631896   0.000000
 Stoichiometry    CH2N4
 Framework group  CS[SG(CH2N4)]
 Deg. of freedom    11
 Full point group                 CS      NOp   2
 Largest Abelian subgroup         CS      NOp   2
 Largest concise Abelian subgroup C1      NOp   1
                         Standard orientation:                         
 ---------------------------------------------------------------------
 Center     Atomic      Atomic             Coordinates (Angstroms)
 Number     Number       Type             X           Y           Z
 ---------------------------------------------------------------------
      1          6           0        1.065090    0.229187    0.000000
      2          7           0        0.000000    1.049931    0.000000
      3          7           0       -1.110892    0.304257    0.000000
      4          7           0       -0.721982   -0.917122    0.000000
      5          7           0        0.628286   -1.007190    0.000000
      6          1           0        2.099870    0.554682    0.000000
      7          1           0       -0.058295    2.061067    0.000000
 ---------------------------------------------------------------------
 Rotational constants (GHZ):     10.6308529     10.4391856      5.2670737

 **********************************************************************

            Population analysis using the SCF density.

 **********************************************************************

 Orbital symmetries:
       Occupied  (A') (A') (A') (A') (A') (A') (A') (A') (A') (A')
                 (A') (A") (A') (A') (A") (A') (A") (A')
       Virtual   (A") (A') (A") (A') (A') (A') (A') (A') (A') (A')
                 (A") (A') (A') (A') (A') (A") (A') (A') (A") (A')
                 (A') (A") (A") (A') (A') (A") (A') (A") (A') (A')
                 (A') (A") (A') (A") (A') (A") (A') (A') (A') (A")
                 (A") (A') (A') (A') (A') (A") (A') (A") (A') (A')
                 (A') (A") (A") (A') (A') (A") (A') (A') (A') (A')
                 (A') (A')
 The electronic state is 1-A'.
 Alpha  occ. eigenvalues --  -14.87275 -14.83793 -14.81851 -14.78931 -10.64101
 Alpha  occ. eigenvalues --   -1.26986  -1.05771  -1.00038  -0.76563  -0.75059
 Alpha  occ. eigenvalues --   -0.67562  -0.58091  -0.56610  -0.45504  -0.39265
 Alpha  occ. eigenvalues --   -0.37378  -0.36769  -0.35944
 Alpha virt. eigenvalues --    0.03109   0.07172   0.07202   0.11936   0.23413
 Alpha virt. eigenvalues --    0.24135   0.30395   0.34896   0.44357   0.50306
 Alpha virt. eigenvalues --    0.50523   0.59139   0.62680   0.64349   0.70589
 Alpha virt. eigenvalues --    0.75758   0.76101   0.76774   0.79389   0.81632
 Alpha virt. eigenvalues --    0.84534   0.88194   0.92721   0.94094   0.99443
 Alpha virt. eigenvalues --    1.01834   1.08055   1.16620   1.16906   1.18231
 Alpha virt. eigenvalues --    1.26631   1.31016   1.42408   1.51484   1.51580
 Alpha virt. eigenvalues --    1.54364   1.55825   1.59305   1.69392   1.75820
 Alpha virt. eigenvalues --    1.81165   1.82184   1.92638   1.94235   2.09865
 Alpha virt. eigenvalues --    2.19008   2.20331   2.25435   2.28521   2.34115
 Alpha virt. eigenvalues --    2.46968   2.47580   2.53975   2.55204   2.61036
 Alpha virt. eigenvalues --    2.66513   2.71368   2.74522   2.80871   3.04611
 Alpha virt. eigenvalues --    3.09650   3.33681
          Condensed to atoms (all electrons):
               1          2          3          4          5          6
     1  C    4.692894   0.426757  -0.110149  -0.129615   0.548042   0.401852
     2  N    0.426757   6.152440   0.309025  -0.103042  -0.065751  -0.025619
     3  N   -0.110149   0.309025   6.573559   0.416111  -0.107626   0.003426
     4  N   -0.129615  -0.103042   0.416111   6.510966   0.383422   0.002566
     5  N    0.548042  -0.065751  -0.107626   0.383422   6.443009  -0.017745
     6  H    0.401852  -0.025619   0.003426   0.002566  -0.017745   0.567929
     7  H   -0.028655   0.377176  -0.021608   0.006588   0.006072  -0.001957
               7
     1  C   -0.028655
     2  N    0.377176
     3  N   -0.021608
     4  N    0.006588
     5  N    0.006072
     6  H   -0.001957
     7  H    0.520660
 Mulliken charges:
               1
     1  C    0.198875
     2  N   -0.070986
     3  N   -0.062738
     4  N   -0.086998
     5  N   -0.189423
     6  H    0.069548
     7  H    0.141723
 Sum of Mulliken charges =   0.00000
 Mulliken charges with hydrogens summed into heavy atoms:
               1
     1  C    0.268422
     2  N    0.070737
     3  N   -0.062738
     4  N   -0.086998
     5  N   -0.189423
 Electronic spatial extent (au):  <R**2>=            248.8928
 Charge=              0.0000 electrons
 Dipole moment (field-independent basis, Debye):
    X=              2.4283    Y=              4.7116    Z=              0.0000  Tot=              5.3005
 Quadrupole moment (field-independent basis, Debye-Ang):
   XX=            -28.5257   YY=            -25.9882   ZZ=            -28.1158
   XY=              1.7395   XZ=              0.0000   YZ=              0.0000
 Traceless Quadrupole moment (field-independent basis, Debye-Ang):
   XX=             -0.9825   YY=              1.5550   ZZ=             -0.5725
   XY=              1.7395   XZ=              0.0000   YZ=              0.0000
 Octapole moment (field-independent basis, Debye-Ang**2):
  XXX=             11.2935  YYY=             21.8205  ZZZ=              0.0000  XYY=             -0.6276
  XXY=              4.3927  XXZ=              0.0000  XZZ=             -0.8793  YZZ=              0.4680
  YYZ=              0.0000  XYZ=              0.0000
 Hexadecapole moment (field-independent basis, Debye-Ang**3):
 XXXX=           -139.3833 YYYY=           -117.8384 ZZZZ=            -24.4964 XXXY=              6.4752
 XXXZ=              0.0000 YYYX=             -0.4824 YYYZ=              0.0000 ZZZX=              0.0000
 ZZZY=              0.0000 XXYY=            -52.4633 XXZZ=            -29.7355 YYZZ=            -27.9892
 XXYZ=              0.0000 YYXZ=              0.0000 ZZXY=             -0.1459
 N-N= 1.674797528511D+02 E-N=-9.374892766772D+02  KE= 2.567839857261D+02
 Symmetry A'   KE= 2.474869920267D+02
 Symmetry A"   KE= 9.296993699418D+00
 B after Tr=     0.011050   -0.006121    0.000000
         Rot=    1.000000    0.000000    0.000000    0.000251 Ang=   0.03 deg.
 Determination of dummy atom variables in z-matrix conversion failed.
 NNew=      6.11242782D+00 NOld=      6.11050177D+00 Diff= 1.93D-03
 1\1\GINC-N963\FOpt\RM062X\CC-pVDZ\C1H2N4\RDJ3\16-Dec-2013\0\\#M062X/cc
 -pVDZ opt freq\\1H-tetrazole CH2N4 casno=288948 state=1 config=1 metho
 d=58 basis=5\\0,1\C,1.0069878911,0.0046519226,0.\N,0.385545627,-1.1877
 60362,0.\N,-0.935875821,-0.9781061181,0.\N,-1.0963796699,0.293607309,0
 .\N,0.0909523394,0.9428975623,0.\H,2.0827322905,0.1442625189,0.\H,0.75
 76664577,-2.1297380306,0.\\Version=EM64L-G09RevD.01\State=1-A'\HF=-258
 .184814\RMSD=4.390e-09\RMSF=1.882e-04\Dipole=1.6460442,-1.2803806,0.\Q
 uadrupole=0.589409,-0.1637324,-0.4256767,-1.5558218,0.,0.\PG=CS [SG(C1
 H2N4)]\\@


 IT IS BETTER TO THINK YOU ARE HALF DRY THAN TO KNOW YOU
 ARE ALL WET.  -- SNOOPY
 Job cpu time:       0 days  0 hours  1 minutes 54.8 seconds.
 File lengths (MBytes):  RWF=      5 Int=      0 D2E=      0 Chk=      2 Scr=      1
 Normal termination of Gaussian 09 at Mon Dec 16 15:52:41 2013.
 Link1:  Proceeding to internal job step number  2.
 -------------------------------------------------------------------
 #N Geom=AllCheck Guess=TCheck SCRF=Check GenChk RM062X/CC-pVDZ Freq
 -------------------------------------------------------------------
 1/10=4,29=7,30=1,38=1,40=1/1,3;
 2/12=2,40=1/2;
 3/5=16,11=2,14=-4,16=1,25=1,30=1,70=2,71=2,74=-55,116=1,140=1/1,2,3;
 4/5=101/1;
 5/5=2,98=1/2;
 8/6=4,10=90,11=11/1;
 11/6=1,8=1,9=11,15=111,16=1/1,2,10;
 10/6=1/2;
 6/7=2,8=2,9=2,10=2,18=1,28=1/1;
 7/8=1,10=1,25=1/1,2,3,16;
 1/10=4,30=1/3;
 99//99;
 Structure from the checkpoint file:  "/tmp/rdj3/g09-18029/Gau-14290.chk"
 ------------------------------------------------------------------
 1H-tetrazole CH2N4 casno=288948 state=1 config=1 method=58 basis=5
 ------------------------------------------------------------------
 Charge =  0 Multiplicity = 1
 Redundant internal coordinates found in file.
 C,0,1.0071061301,0.0046239003,0.
 N,0,0.385663866,-1.1877883843,0.
 N,0,-0.935757582,-0.9781341404,0.
 N,0,-1.0962614309,0.2935792867,0.
 N,0,0.0910705784,0.94286954,0.
 H,0,2.0828505295,0.1442344966,0.
 H,0,0.7577846968,-2.1297660529,0.
 Recover connectivity data from disk.

 GradGradGradGradGradGradGradGradGradGradGradGradGradGradGradGradGradGrad
 Berny optimization.
 Initialization pass.
                           ----------------------------
                           !    Initial Parameters    !
                           ! (Angstroms and Degrees)  !
 --------------------------                            --------------------------
 ! Name  Definition              Value          Derivative Info.                !
 --------------------------------------------------------------------------------
 ! R1    R(1,2)                  1.3446         calculate D2E/DX2 analytically  !
 ! R2    R(1,5)                  1.3113         calculate D2E/DX2 analytically  !
 ! R3    R(1,6)                  1.0848         calculate D2E/DX2 analytically  !
 ! R4    R(2,3)                  1.3379         calculate D2E/DX2 analytically  !
 ! R5    R(2,7)                  1.0128         calculate D2E/DX2 analytically  !
 ! R6    R(3,4)                  1.2818         calculate D2E/DX2 analytically  !
 ! R7    R(4,5)                  1.3533         calculate D2E/DX2 analytically  !
 ! A1    A(2,1,5)              108.1593         calculate D2E/DX2 analytically  !
 ! A2    A(2,1,6)              124.9214         calculate D2E/DX2 analytically  !
 ! A3    A(5,1,6)              126.9192         calculate D2E/DX2 analytically  !
 ! A4    A(1,2,3)              108.5116         calculate D2E/DX2 analytically  !
 ! A5    A(1,2,7)              130.917          calculate D2E/DX2 analytically  !
 ! A6    A(3,2,7)              120.5714         calculate D2E/DX2 analytically  !
 ! A7    A(2,3,4)              106.2086         calculate D2E/DX2 analytically  !
 ! A8    A(3,4,5)              111.4787         calculate D2E/DX2 analytically  !
 ! A9    A(1,5,4)              105.6418         calculate D2E/DX2 analytically  !
 ! D1    D(5,1,2,3)              0.0            calculate D2E/DX2 analytically  !
 ! D2    D(5,1,2,7)            180.0            calculate D2E/DX2 analytically  !
 ! D3    D(6,1,2,3)            180.0            calculate D2E/DX2 analytically  !
 ! D4    D(6,1,2,7)              0.0            calculate D2E/DX2 analytically  !
 ! D5    D(2,1,5,4)              0.0            calculate D2E/DX2 analytically  !
 ! D6    D(6,1,5,4)            180.0            calculate D2E/DX2 analytically  !
 ! D7    D(1,2,3,4)              0.0            calculate D2E/DX2 analytically  !
 ! D8    D(7,2,3,4)            180.0            calculate D2E/DX2 analytically  !
 ! D9    D(2,3,4,5)              0.0            calculate D2E/DX2 analytically  !
 ! D10   D(3,4,5,1)              0.0            calculate D2E/DX2 analytically  !
 --------------------------------------------------------------------------------
 Trust Radius=3.00D-01 FncErr=1.00D-07 GrdErr=1.00D-07
 Number of steps in this run=      2 maximum allowed number of steps=      2.
 GradGradGradGradGradGradGradGradGradGradGradGradGradGradGradGradGradGrad

                          Input orientation:                          
 ---------------------------------------------------------------------
 Center     Atomic      Atomic             Coordinates (Angstroms)
 Number     Number       Type             X           Y           Z
 ---------------------------------------------------------------------
      1          6           0        1.007106    0.004624    0.000000
      2          7           0        0.385664   -1.187788    0.000000
      3          7           0       -0.935758   -0.978134    0.000000
      4          7           0       -1.096261    0.293579    0.000000
      5          7           0        0.091071    0.942870    0.000000
      6          1           0        2.082851    0.144234    0.000000
      7          1           0        0.757785   -2.129766    0.000000
 ---------------------------------------------------------------------
                    Distance matrix (angstroms):
                    1          2          3          4          5
     1  C    0.000000
     2  N    1.344633   0.000000
     3  N    2.177276   1.337950   0.000000
     4  N    2.123123   2.095365   1.281802   0.000000
     5  N    1.311269   2.150927   2.178217   1.353268   0.000000
     6  H    1.084766   2.157482   3.220513   3.182618   2.145928
     7  H    2.148902   1.012816   2.048009   3.051244   3.144137
                    6          7
     6  H    0.000000
     7  H    2.631896   0.000000
 Stoichiometry    CH2N4
 Framework group  CS[SG(CH2N4)]
 Deg. of freedom    11
 Full point group                 CS      NOp   2
 Largest Abelian subgroup         CS      NOp   2
 Largest concise Abelian subgroup C1      NOp   1
                         Standard orientation:                         
 ---------------------------------------------------------------------
 Center     Atomic      Atomic             Coordinates (Angstroms)
 Number     Number       Type             X           Y           Z
 ---------------------------------------------------------------------
[...]
 Calling FoFJK, ICntrl=    100127 FMM=F ISym2X=1 I1Cent= 0 IOpClX= 0 NMat=1 NMatS=1 NMatT=0.
 Full mass-weighted force constant matrix:
 Low frequencies ---   -0.0003    0.0007    0.0008   26.5391   37.7180   47.9487
 Low frequencies ---  606.1454  704.8279  759.9735
 Diagonal vibrational polarizability:
        1.1574284       1.1992120       7.4189958
 Harmonic frequencies (cm**-1), IR intensities (KM/Mole), Raman scattering
 activities (A**4/AMU), depolarization ratios for plane and unpolarized
 incident light, reduced masses (AMU), force constants (mDyne/A),
 and normal coordinates:
                      1                      2                      3
                     A"                     A"                     A"
 Frequencies --    606.1301               704.8258               759.9713
 Red. masses --      1.6766                 2.0817                 8.1474
 Frc consts  --      0.3629                 0.6093                 2.7725
 IR Inten    --     83.3159                 6.2003                 8.2716
  Atom  AN      X      Y      Z        X      Y      Z        X      Y      Z
     1   6     0.00   0.00  -0.08     0.00   0.00   0.18     0.00   0.00  -0.08
     2   7     0.00   0.00   0.20     0.00   0.00  -0.11     0.00   0.00  -0.13
     3   7     0.00   0.00  -0.08     0.00   0.00   0.10     0.00   0.00   0.43
     4   7     0.00   0.00   0.00     0.00   0.00   0.04     0.00   0.00  -0.49
     5   7     0.00   0.00   0.02     0.00   0.00  -0.18     0.00   0.00   0.32
     6   1     0.00   0.00  -0.22     0.00   0.00   0.55     0.00   0.00  -0.09
     7   1     0.00   0.00  -0.95     0.00   0.00  -0.78     0.00   0.00  -0.66
                      4                      5                      6
                     A"                     A'                     A'
 Frequencies --    882.9134               997.0017              1032.2281
 Red. masses --      1.3750                 3.5362                 5.3255
 Frc consts  --      0.6315                 2.0710                 3.3432
 IR Inten    --     17.2324                 3.0421                 2.6573
  Atom  AN      X      Y      Z        X      Y      Z        X      Y      Z
     1   6     0.00   0.00   0.18     0.14   0.09   0.00    -0.31  -0.05   0.00
     2   7     0.00   0.00  -0.03     0.06   0.01   0.00     0.00   0.39   0.00
     3   7     0.00   0.00   0.00     0.12  -0.11   0.00     0.17  -0.06   0.00
     4   7     0.00   0.00  -0.02    -0.04  -0.15   0.00     0.15  -0.09   0.00
     5   7     0.00   0.00  -0.03    -0.26   0.22   0.00    -0.04  -0.17   0.00
     6   1     0.00   0.00  -0.98     0.37  -0.63   0.00    -0.13  -0.68   0.00
     7   1     0.00   0.00  -0.05    -0.51  -0.03   0.00    -0.08   0.40   0.00
                      7                      8                      9
                     A'                     A'                     A'
 Frequencies --   1100.5515              1110.7318              1161.5269
 Red. masses --      2.5298                 3.4508                 2.5076
 Frc consts  --      1.8053                 2.5083                 1.9932
 IR Inten    --     31.1388                22.4994                 9.6993
  Atom  AN      X      Y      Z        X      Y      Z        X      Y      Z
     1   6    -0.03  -0.01   0.00    -0.13   0.08   0.00     0.05  -0.10   0.00
     2   7    -0.12  -0.08   0.00     0.06  -0.13   0.00    -0.15  -0.07   0.00
     3   7     0.27   0.13   0.00    -0.02   0.04   0.00    -0.07   0.08   0.00
     4   7    -0.01  -0.01   0.00     0.29  -0.03   0.00     0.21   0.15   0.00
     5   7    -0.06  -0.06   0.00    -0.25   0.03   0.00    -0.01  -0.01   0.00
     6   1    -0.23   0.59   0.00    -0.24   0.39   0.00     0.26  -0.76   0.00
     7   1    -0.68  -0.12   0.00     0.77  -0.10   0.00    -0.47  -0.09   0.00
                     10                     11                     12
                     A'                     A'                     A'
 Frequencies --   1298.8427              1369.5101              1499.8477
 Red. masses --      2.7621                 9.2623                 3.6102
 Frc consts  --      2.7454                10.2353                 4.7849
 IR Inten    --      1.1485                18.9186                 8.8518
  Atom  AN      X      Y      Z        X      Y      Z        X      Y      Z
     1   6     0.18   0.02   0.00     0.25   0.07   0.00    -0.20   0.24   0.00
     2   7     0.09   0.13   0.00    -0.18   0.12   0.00     0.24  -0.14   0.00
     3   7    -0.15  -0.08   0.00    -0.15   0.46   0.00    -0.09   0.12   0.00
     4   7     0.08   0.05   0.00     0.04  -0.52   0.00    -0.01  -0.05   0.00
     5   7    -0.13  -0.17   0.00     0.02  -0.13   0.00     0.08  -0.09   0.00
     6   1     0.01   0.65   0.00     0.36  -0.10   0.00    -0.02  -0.41   0.00
     7   1    -0.66   0.11   0.00     0.42   0.20   0.00    -0.75  -0.22   0.00
                     13                     14                     15
                     A'                     A'                     A'
 Frequencies --   1555.8791              3317.7929              3655.3612
 Red. masses --      4.6545                 1.1032                 1.0856
 Frc consts  --      6.6386                 7.1550                 8.5463
 IR Inten    --     15.3559                 3.4082               127.2832
  Atom  AN      X      Y      Z        X      Y      Z        X      Y      Z
     1   6     0.11   0.38   0.00     0.09   0.03   0.00     0.00   0.00   0.00
     2   7    -0.15  -0.05   0.00     0.00   0.00   0.00    -0.01   0.08   0.00
     3   7     0.12  -0.10   0.00     0.00   0.00   0.00     0.00   0.00   0.00
     4   7    -0.07   0.13   0.00     0.00   0.00   0.00     0.00   0.00   0.00
     5   7    -0.06  -0.28   0.00     0.00   0.00   0.00     0.00   0.00   0.00
     6   1     0.41  -0.40   0.00    -0.95  -0.30   0.00    -0.02   0.00   0.00
     7   1     0.61  -0.01   0.00     0.01   0.02   0.00     0.06  -1.00   0.00

 -------------------
 - Thermochemistry -
 -------------------
 Temperature   298.150 Kelvin.  Pressure   1.00000 Atm.
 Atom     1 has atomic number  6 and mass  12.00000
 Atom     2 has atomic number  7 and mass  14.00307
 Atom     3 has atomic number  7 and mass  14.00307
 Atom     4 has atomic number  7 and mass  14.00307
 Atom     5 has atomic number  7 and mass  14.00307
 Atom     6 has atomic number  1 and mass   1.00783
 Atom     7 has atomic number  1 and mass   1.00783
 Molecular mass:    70.02795 amu.
 Principal axes and moments of inertia in atomic units:
                           1         2         3
     Eigenvalues --   169.76448 172.88142 342.64590
           X            0.80842   0.58860   0.00000
           Y           -0.58860   0.80842   0.00000
           Z            0.00000   0.00000   1.00000
 This molecule is an asymmetric top.
 Rotational symmetry number  1.
 Rotational temperatures (Kelvin)      0.51020     0.50100     0.25278
 Rotational constants (GHZ):          10.63085    10.43919     5.26707
 Zero-point vibrational energy     125925.6 (Joules/Mol)
                                   30.09694 (Kcal/Mol)
 Warning -- explicit consideration of   1 degrees of freedom as
           vibrations may cause significant error
 Vibrational temperatures:    872.08  1014.09  1093.43  1270.31  1434.46
          (Kelvin)           1485.14  1583.45  1598.09  1671.18  1868.74
                             1970.42  2157.94  2238.56  4773.56  5259.24
 
 Zero-point correction=                           0.047963 (Hartree/Particle)
 Thermal correction to Energy=                    0.051377
 Thermal correction to Enthalpy=                  0.052322
 Thermal correction to Gibbs Free Energy=         0.021900
 Sum of electronic and zero-point Energies=           -258.136851
 Sum of electronic and thermal Energies=              -258.133437
 Sum of electronic and thermal Enthalpies=            -258.132492
 Sum of electronic and thermal Free Energies=         -258.162914
 
                     E (Thermal)             CV                S
                      KCal/Mol        Cal/Mol-Kelvin    Cal/Mol-Kelvin
 Total                   32.240             10.951             64.027
 Electronic               0.000              0.000              0.000
 Translational            0.889              2.981             38.656
 Rotational               0.889              2.981             23.823
 Vibrational             30.462              4.990              1.548
 Vibration     1          0.965              1.019              0.439
                       Q            Log10(Q)             Ln(Q)
 Total Bot       0.844566D-10        -10.073367        -23.194784
 Total V=0       0.972334D+12         11.987816         27.602965
 Vib (Bot)       0.102142D-21        -21.990796        -50.635678
 Vib (Bot)    1  0.244795D+00         -0.611198         -1.407334
 Vib (V=0)       0.117594D+01          0.070387          0.162071
 Vib (V=0)    1  0.105671D+01          0.023955          0.055159
 Electronic      0.100000D+01          0.000000          0.000000
 Translational   0.230336D+08          7.362362         16.952466
 Rotational      0.358977D+05          4.555067         10.488429
 ***** Axes restored to original set *****
 -------------------------------------------------------------------
 Center     Atomic                   Forces (Hartrees/Bohr)
 Number     Number              X              Y              Z
 -------------------------------------------------------------------
      1        6           0.000343145    0.000034814    0.000000000
      2        7          -0.000154683   -0.000177093    0.000000000
      3        7           0.000170195    0.000492521    0.000000000
      4        7          -0.000069751    0.000049492    0.000000000
      5        7          -0.000369583   -0.000386094    0.000000000
      6        1           0.000069212   -0.000014005    0.000000000
      7        1           0.000011465    0.000000365    0.000000000
 -------------------------------------------------------------------
 Cartesian Forces:  Max     0.000492521 RMS     0.000188210
 FormGI is forming the generalized inverse of G from B-inverse, IUseBI=4.

 GradGradGradGradGradGradGradGradGradGradGradGradGradGradGradGradGradGrad
 Berny optimization.
 Internal  Forces:  Max     0.000309586 RMS     0.000137269
 Search for a local minimum.
 Step number   1 out of a maximum of    2
 All quantities printed in internal units (Hartrees-Bohrs-Radians)
 Second derivative matrix not updated -- analytic derivatives used.
 ITU=  0
     Eigenvalues ---    0.00902   0.02688   0.07596   0.08131   0.10015
     Eigenvalues ---    0.10400   0.21834   0.27612   0.37620   0.38466
     Eigenvalues ---    0.46712   0.47511   0.50719   0.61176   0.66868
 Angle between quadratic step and forces=  23.14 degrees.
 Linear search not attempted -- first point.
 Iteration  1 RMS(Cart)=  0.00030731 RMS(Int)=  0.00000008
 Iteration  2 RMS(Cart)=  0.00000008 RMS(Int)=  0.00000003
 ClnCor:  largest displacement from symmetrization is 1.34D-12 for atom     4.
 Variable       Old X    -DE/DX   Delta X   Delta X   Delta X     New X
                                 (Linear)    (Quad)   (Total)
    R1        2.54099   0.00003   0.00000   0.00033   0.00033   2.54132
    R2        2.47794   0.00014   0.00000   0.00024   0.00024   2.47818
    R3        2.04991   0.00006   0.00000   0.00012   0.00012   2.05003
    R4        2.52836   0.00003   0.00000  -0.00018  -0.00018   2.52818
    R5        1.91394   0.00001   0.00000   0.00001   0.00001   1.91396
    R6        2.42225  -0.00025   0.00000  -0.00033  -0.00033   2.42193
    R7        2.55731  -0.00023   0.00000  -0.00078  -0.00078   2.55653
    A1        1.88774  -0.00025   0.00000  -0.00071  -0.00071   1.88702
    A2        2.18029   0.00013   0.00000   0.00055   0.00055   2.18084
    A3        2.21516   0.00011   0.00000   0.00017   0.00017   2.21532
    A4        1.89388  -0.00010   0.00000  -0.00010  -0.00010   1.89379
    A5        2.28493   0.00001   0.00000  -0.00016  -0.00016   2.28478
    A6        2.10437   0.00009   0.00000   0.00025   0.00025   2.10462
    A7        1.85369   0.00028   0.00000   0.00049   0.00049   1.85418
    A8        1.94567  -0.00024   0.00000  -0.00047  -0.00047   1.94520
    A9        1.84380   0.00031   0.00000   0.00079   0.00079   1.84459
    D1        0.00000   0.00000   0.00000   0.00000   0.00000   0.00000
    D2        3.14159   0.00000   0.00000   0.00000   0.00000   3.14159
    D3        3.14159   0.00000   0.00000   0.00000   0.00000   3.14159
    D4        0.00000   0.00000   0.00000   0.00000   0.00000   0.00000
    D5        0.00000   0.00000   0.00000   0.00000   0.00000   0.00000
    D6        3.14159   0.00000   0.00000   0.00000   0.00000   3.14159
    D7        0.00000   0.00000   0.00000   0.00000   0.00000   0.00000
    D8        3.14159   0.00000   0.00000   0.00000   0.00000   3.14159
    D9        0.00000   0.00000   0.00000   0.00000   0.00000   0.00000
   D10        0.00000   0.00000   0.00000   0.00000   0.00000   0.00000
         Item               Value     Threshold  Converged?
 Maximum Force            0.000310     0.000450     YES
 RMS     Force            0.000137     0.000300     YES
 Maximum Displacement     0.000823     0.001800     YES
 RMS     Displacement     0.000307     0.001200     YES
 Predicted change in Energy=-5.523305D-07
 Optimization completed.
    -- Stationary point found.
                           ----------------------------
                           !   Optimized Parameters   !
                           ! (Angstroms and Degrees)  !
 --------------------------                            --------------------------
 ! Name  Definition              Value          Derivative Info.                !
 --------------------------------------------------------------------------------
 ! R1    R(1,2)                  1.3446         -DE/DX =    0.0                 !
 ! R2    R(1,5)                  1.3113         -DE/DX =    0.0001              !
 ! R3    R(1,6)                  1.0848         -DE/DX =    0.0001              !
 ! R4    R(2,3)                  1.3379         -DE/DX =    0.0                 !
 ! R5    R(2,7)                  1.0128         -DE/DX =    0.0                 !
 ! R6    R(3,4)                  1.2818         -DE/DX =   -0.0003              !
 ! R7    R(4,5)                  1.3533         -DE/DX =   -0.0002              !
 ! A1    A(2,1,5)              108.1593         -DE/DX =   -0.0002              !
 ! A2    A(2,1,6)              124.9214         -DE/DX =    0.0001              !
 ! A3    A(5,1,6)              126.9192         -DE/DX =    0.0001              !
 ! A4    A(1,2,3)              108.5116         -DE/DX =   -0.0001              !
 ! A5    A(1,2,7)              130.917          -DE/DX =    0.0                 !
 ! A6    A(3,2,7)              120.5714         -DE/DX =    0.0001              !
 ! A7    A(2,3,4)              106.2086         -DE/DX =    0.0003              !
 ! A8    A(3,4,5)              111.4787         -DE/DX =   -0.0002              !
 ! A9    A(1,5,4)              105.6418         -DE/DX =    0.0003              !
 ! D1    D(5,1,2,3)              0.0            -DE/DX =    0.0                 !
 ! D2    D(5,1,2,7)            180.0            -DE/DX =    0.0                 !
 ! D3    D(6,1,2,3)            180.0            -DE/DX =    0.0                 !
 ! D4    D(6,1,2,7)              0.0            -DE/DX =    0.0                 !
 ! D5    D(2,1,5,4)              0.0            -DE/DX =    0.0                 !
 ! D6    D(6,1,5,4)            180.0            -DE/DX =    0.0                 !
 ! D7    D(1,2,3,4)              0.0            -DE/DX =    0.0                 !
 ! D8    D(7,2,3,4)            180.0            -DE/DX =    0.0                 !
 ! D9    D(2,3,4,5)              0.0            -DE/DX =    0.0                 !
 ! D10   D(3,4,5,1)              0.0            -DE/DX =    0.0                 !
 --------------------------------------------------------------------------------
 GradGradGradGradGradGradGradGradGradGradGradGradGradGradGradGradGradGrad

 1\1\GINC-N963\Freq\RM062X\CC-pVDZ\C1H2N4\RDJ3\16-Dec-2013\0\\#N Geom=A
 llCheck Guess=TCheck SCRF=Check GenChk RM062X/CC-pVDZ Freq\\1H-tetrazo
 le CH2N4 casno=288948 state=1 config=1 method=58 basis=5\\0,1\C,1.0071
 061301,0.0046239003,0.\N,0.385663866,-1.1877883843,0.\N,-0.935757582,-
 0.9781341404,0.\N,-1.0962614309,0.2935792867,0.\N,0.0910705784,0.94286
 954,0.\H,2.0828505295,0.1442344966,0.\H,0.7577846968,-2.1297660529,0.\
 \Version=EM64L-G09RevD.01\State=1-A'\HF=-258.184814\RMSD=1.121e-09\RMS
 F=1.882e-04\ZeroPoint=0.0479625\Thermal=0.0513774\Dipole=1.6460439,-1.
 2803806,0.\DipoleDeriv=0.1951291,0.0557197,0.,-0.0928128,0.4523561,0.,
 0.,0.,0.0811272,-0.233643,0.297973,0.,0.2225453,-0.3983336,0.,0.,0.,-0
 .1240575,0.0949211,-0.3907486,0.,-0.3142576,-0.1673768,0.,0.,0.,-0.097
 9203,0.0371162,0.1561841,0.,0.2011933,-0.0263445,0.,0.,0.,-0.146207,-0
 .3840203,-0.0843319,0.,0.0020823,-0.3088355,0.,0.,0.,-0.2125422,0.0775
 353,0.0138612,0.,0.0089888,0.126144,0.,0.,0.,0.1699996,0.2129616,-0.04
 86575,0.,-0.0277393,0.3223903,0.,0.,0.,0.3296003\Polar=37.4951126,-0.3
 423388,35.4198674,0.,0.,15.9318807\PG=CS [SG(C1H2N4)]\NImag=0\\0.99756
 820,0.00948829,0.65408879,0.,0.,0.14735318,-0.17404906,-0.08844181,0.,
 0.62731840,-0.11644540,-0.30242381,0.,-0.11391447,1.03667056,0.,0.,-0.
 06584729,0.,0.,0.10025911,-0.09537401,-0.09135550,0.,-0.26761883,-0.02
 689885,0.,0.50024353,0.00611832,-0.03050070,0.,0.00949741,-0.10976474,
 0.,0.06570417,0.64582351,0.,0.,0.02195807,0.,0.,-0.07420128,0.,0.,0.12
 338339,-0.12323847,0.07727175,0.,-0.07884173,0.03316038,0.,-0.11840593
 ,0.00628676,0.,0.54153963,-0.03475777,0.03510039,0.,0.12170899,-0.1048
 4950,0.,0.06008733,-0.39868293,0.,-0.09746809,0.58848128,0.,0.,0.01997
 997,0.,0.,0.02795738,0.,0.,-0.10235185,0.,0.,0.13129307,-0.25542897,0.
 14692907,0.,0.01370419,0.09598881,0.,-0.02189747,-0.12369062,0.,-0.208
 28390,-0.05399242,0.,0.48443775,0.15975355,-0.29216788,0.,-0.03048328,
 -0.10627115,0.,-0.00645356,-0.10292287,0.,-0.02211437,-0.12085224,0.,-
 0.08624177,0.61368674,0.,0.,-0.08273949,0.,0.,0.02214929,0.,0.,0.03717
 638,0.,0.,-0.09444395,0.,0.,0.11509325,-0.36629763,-0.04321330,0.,-0.0
 0190214,0.00338826,0.,0.00096648,0.00164192,0.,-0.00121100,0.00069384,
 0.,-0.01068524,-0.00492821,0.,0.37958685,-0.03934590,-0.06001620,0.,-0
 .03141966,0.00286551,0.,-0.00107982,-0.00696930,0.,0.00652240,-0.00295
 951,0.,0.02229876,0.01182814,0.,0.04279576,0.05534696,0.,0.,-0.0317644
 3,0.,0.,-0.00229444,0.,0.,0.00642315,0.,0.,0.00919201,0.,0.,-0.0048043
 5,0.,0.,0.02423461,0.01681993,-0.01067850,0.,-0.11861083,0.12472125,0.
 ,0.00208623,0.03444204,0.,-0.01155860,0.00372812,0.,-0.00184637,-0.009
 53235,0.,-0.00045732,0.00022847,0.,0.11356695,0.01518891,-0.00408058,0
 .,0.13305282,-0.41622687,0.,-0.00000377,0.00301704,0.,-0.00365882,0.00
 376252,0.,-0.00129183,-0.00330073,0.,-0.00037827,-0.00009559,0.,-0.142
 90903,0.41692421,0.,0.,-0.00894001,0.,0.,-0.00802277,0.,0.,-0.01238786
 ,0.,0.,0.00837337,0.,0.,0.00756887,0.,0.,-0.00098655,0.,0.,0.01439495\
 \-0.00034315,-0.00003481,0.,0.00015468,0.00017709,0.,-0.00017019,-0.00
 049252,0.,0.00006975,-0.00004949,0.,0.00036958,0.00038609,0.,-0.000069
 21,0.00001401,0.,-0.00001146,-0.00000037,0.\\\@


 THE MORE PROGRESS PHYSICAL SCIENCES MAKE, THE MORE THEY TEND TO ENTER
 THE DOMAIN OF MATHEMATICS, WHICH IS A KIND OF CENTRE TO WHICH THEY ALL
 CONVERGE.  WE MAY EVEN JUDGE THE DEGREE OF PERFECTION TO WHICH A 
 SCIENCE HAS ARRIVED BY THE FACILITY WITH WHICH IT MAY BE SUBMITTED
 TO CALCULATION.

                               -- ADOLPHE QUETELET, 1796-1874
 Job cpu time:       0 days  0 hours  1 minutes 18.0 seconds.
 File lengths (MBytes):  RWF=     10 Int=      0 D2E=      0 Chk=      2 Scr=      1
 Normal termination of Gaussian 09 at Mon Dec 16 15:52:51 2013.
