 Entering Gaussian System, Link 0=g09
 Initial command:
 /usr/local/gaussian/g09.d01.em64t.legacy.linda/g09/l1.exe "/tmp/rdj3/g09-18029/Gau-12887.inp" -scrdir="/tmp/rdj3/g09-18029/"
 Entering Link 1 = /usr/local/gaussian/g09.d01.em64t.legacy.linda/g09/l1.exe PID=     12888.
  
 Copyright (c) 1988,1990,1992,1993,1995,1998,2003,2009,2013,
            Gaussian, Inc.  All Rights Reserved.
  
 This is part of the Gaussian(R) 09 program.  It is based on
 the Gaussian(R) 03 system (copyright 2003, Gaussian, Inc.),
 the Gaussian(R) 98 system (copyright 1998, Gaussian, Inc.),
 the Gaussian(R) 94 system (copyright 1995, Gaussian, Inc.),
 the Gaussian 92(TM) system (copyright 1992, Gaussian, Inc.),
 the Gaussian 90(TM) system (copyright 1990, Gaussian, Inc.),
 the Gaussian 88(TM) system (copyright 1988, Gaussian, Inc.),
 the Gaussian 86(TM) system (copyright 1986, Carnegie Mellon
 University), and the Gaussian 82(TM) system (copyright 1983,
 Carnegie Mellon University). Gaussian is a federally registered
 trademark of Gaussian, Inc.
  
 This software contains proprietary and confidential information,
 including trade secrets, belonging to Gaussian, Inc.
  
 This software is provided under written license and may be
 used, copied, transmitted, or stored only in accord with that
 written license.
  
 The following legend is applicable only to US Government
 contracts under FAR:
  
                    RESTRICTED RIGHTS LEGEND
  
 Use, reproduction and disclosure by the US Government is
 subject to restrictions as set forth in subparagraphs (a)
 and (c) of the Commercial Computer Software - Restricted
 Rights clause in FAR 52.227-19.
  
 Gaussian, Inc.
 340 Quinnipiac St., Bldg. 40, Wallingford CT 06492
  
  
 ---------------------------------------------------------------
 Warning -- This program may not be used in any manner that
 competes with the business of Gaussian, Inc. or will provide
 assistance to any competitor of Gaussian, Inc.  The licensee
 of this program is prohibited from giving any competitor of
 Gaussian, Inc. access to this program.  By using this program,
 the user acknowledges that Gaussian, Inc. is engaged in the
 business of creating and licensing software in the field of
 computational chemistry and represents and warrants to the
 licensee that it is not a competitor of Gaussian, Inc. and that
 it will not use this program in any manner prohibited above.
 ---------------------------------------------------------------
  

 Cite this work as:
 Gaussian 09, Revision D.01,
 M. J. Frisch, G. W. Trucks, H. B. Schlegel, G. E. Scuseria, 
 M. A. Robb, J. R. Cheeseman, G. Scalmani, V. Barone, B. Mennucci, 
 G. A. Petersson, H. Nakatsuji, M. Caricato, X. Li, H. P. Hratchian, 
 A. F. Izmaylov, J. Bloino, G. Zheng, J. L. Sonnenberg, M. Hada, 
 M. Ehara, K. Toyota, R. Fukuda, J. Hasegawa, M. Ishida, T. Nakajima, 
 Y. Honda, O. Kitao, H. Nakai, T. Vreven, J. A. Montgomery, Jr., 
 J. E. Peralta, F. Ogliaro, M. Bearpark, J. J. Heyd, E. Brothers, 
 K. N. Kudin, V. N. Staroverov, T. Keith, R. Kobayashi, J. Normand, 
 K. Raghavachari, A. Rendell, J. C. Burant, S. S. Iyengar, J. Tomasi, 
 M. Cossi, N. Rega, J. M. Millam, M. Klene, J. E. Knox, J. B. Cross, 
 V. Bakken, C. Adamo, J. Jaramillo, R. Gomperts, R. E. Stratmann, 
 O. Yazyev, A. J. Austin, R. Cammi, C. Pomelli, J. W. Ochterski, 
 R. L. Martin, K. Morokuma, V. G. Zakrzewski, G. A. Voth, 
 P. Salvador, J. J. Dannenberg, S. Dapprich, A. D. Daniels, 
 O. Farkas, J. B. Foresman, J. V. Ortiz, J. Cioslowski, 
 and D. J. Fox, Gaussian, Inc., Wallingford CT, 2013.
 
 ******************************************
 Gaussian 09:  EM64L-G09RevD.01 24-Apr-2013
                16-Dec-2013 
 ******************************************
 %Nproc=8
 Will use up to    8 processors via shared memory.
 %mem=436000000
 ---------------------
 #M062X/3-21G opt freq
 ---------------------
 1/14=-1,18=20,19=15,26=3,38=1/1,3;
 2/9=110,12=2,17=6,18=5,40=1/2;
 3/5=5,11=2,16=1,25=1,30=1,71=1,74=-55/1,2,3;
 4//1;
 5/5=2,38=5/2;
 6/7=2,8=2,9=2,10=2,28=1/1;
 7//1,2,3,16;
 1/14=-1,18=20,19=15,26=3/3(2);
 2/9=110/2;
 99//99;
 2/9=110/2;
 3/5=5,11=2,16=1,25=1,30=1,71=1,74=-55/1,2,3;
 4/5=5,16=3,69=1/1;
 5/5=2,38=5/2;
 7//1,2,3,16;
 1/14=-1,18=20,19=15,26=3/3(-5);
 2/9=110/2;
 6/7=2,8=2,9=2,10=2,19=2,28=1/1;
 99/9=1/99;
 ------------------------------------------------------------------
 1H-tetrazole CH2N4 casno=288948 state=1 config=1 method=58 basis=2
 ------------------------------------------------------------------
 Symbolic Z-matrix:
 Charge =  0 Multiplicity = 1
 X
 X                    1     1. 
 C                    1     1.       2     90. 
 N                    1    rn1      2     90.      3    an1      0
 N                    1    rn2      2     90.      3    an2      0
 N                    1    rn3      2     90.      3    an3      0
 N                    1    rn4      2     90.      3    an4      0
 H                    3    rch      4    ach      5     180.     0
 H                    4    rnh      5    anh      6     180.     0
       Variables:
  rn1                   1.2426                   
  rn2                   1.333                    
  rn3                   1.1146                   
  rn4                   0.9264                   
  rch                   1.0678                   
  rnh                   0.9941                   
  an1                  71.8427                   
  an2                 133.7028                   
  an3                 194.4597                   
  an4                 276.0768                   
  ach                 125.0248                   
  anh                 120.7626                   
 

 GradGradGradGradGradGradGradGradGradGradGradGradGradGradGradGradGradGrad
 Berny optimization.
 Initialization pass.
                           ----------------------------
                           !    Initial Parameters    !
                           ! (Angstroms and Degrees)  !
 --------------------------                            --------------------------
 ! Name  Definition              Value          Derivative Info.                !
 --------------------------------------------------------------------------------
 ! R1    R(1,2)                  1.3303         estimate D2E/DX2                !
 ! R2    R(1,5)                  1.2892         estimate D2E/DX2                !
 ! R3    R(1,6)                  1.0678         estimate D2E/DX2                !
 ! R4    R(2,3)                  1.3261         estimate D2E/DX2                !
 ! R5    R(2,7)                  0.9941         estimate D2E/DX2                !
 ! R6    R(3,4)                  1.252          estimate D2E/DX2                !
 ! R7    R(4,5)                  1.3414         estimate D2E/DX2                !
 ! A1    A(2,1,5)              108.177          estimate D2E/DX2                !
 ! A2    A(2,1,6)              125.0248         estimate D2E/DX2                !
 ! A3    A(5,1,6)              126.7982         estimate D2E/DX2                !
 ! A4    A(1,2,3)              108.008          estimate D2E/DX2                !
 ! A5    A(1,2,7)              131.2294         estimate D2E/DX2                !
 ! A6    A(3,2,7)              120.7626         estimate D2E/DX2                !
 ! A7    A(2,3,4)              106.684          estimate D2E/DX2                !
 ! A8    A(3,4,5)              111.3724         estimate D2E/DX2                !
 ! A9    A(1,5,4)              105.7586         estimate D2E/DX2                !
 ! D1    D(5,1,2,3)              0.0            estimate D2E/DX2                !
 ! D2    D(5,1,2,7)            180.0            estimate D2E/DX2                !
 ! D3    D(6,1,2,3)            180.0            estimate D2E/DX2                !
 ! D4    D(6,1,2,7)              0.0            estimate D2E/DX2                !
 ! D5    D(2,1,5,4)              0.0            estimate D2E/DX2                !
 ! D6    D(6,1,5,4)            180.0            estimate D2E/DX2                !
 ! D7    D(1,2,3,4)              0.0            estimate D2E/DX2                !
 ! D8    D(7,2,3,4)            180.0            estimate D2E/DX2                !
 ! D9    D(2,3,4,5)              0.0            estimate D2E/DX2                !
 ! D10   D(3,4,5,1)              0.0            estimate D2E/DX2                !
 --------------------------------------------------------------------------------
 Trust Radius=3.00D-01 FncErr=1.00D-07 GrdErr=1.00D-06
 Number of steps in this run=     36 maximum allowed number of steps=    100.
 GradGradGradGradGradGradGradGradGradGradGradGradGradGradGradGradGradGrad

                          Input orientation:                          
 ---------------------------------------------------------------------
 Center     Atomic      Atomic             Coordinates (Angstroms)
 Number     Number       Type             X           Y           Z
 ---------------------------------------------------------------------
      1          6           0        1.000000    0.000000    0.000000
      2          7           0        0.387228   -1.180724    0.000000
      3          7           0       -0.920993   -0.963670    0.000000
      4          7           0       -1.079293    0.278314    0.000000
      5          7           0        0.098070    0.921194    0.000000
      6          1           0        2.058429    0.141157    0.000000
      7          1           0        0.749017   -2.106652    0.000000
 ---------------------------------------------------------------------
                    Distance matrix (angstroms):
                    1          2          3          4          5
     1  C    0.000000
     2  N    1.330263   0.000000
     3  N    2.149157   1.326105   0.000000
     4  N    2.097837   2.068690   1.252032   0.000000
     5  N    1.289216   2.121715   2.142710   1.341447   0.000000
     6  H    1.067800   2.130794   3.177672   3.140719   2.109850
     7  H    2.121551   0.994100   2.023695   3.005127   3.097029
                    6          7
     6  H    0.000000
     7  H    2.601385   0.000000
 Stoichiometry    CH2N4
 Framework group  CS[SG(CH2N4)]
 Deg. of freedom    11
 Full point group                 CS      NOp   2
 Largest Abelian subgroup         CS      NOp   2
 Largest concise Abelian subgroup C1      NOp   1
                         Standard orientation:                         
 ---------------------------------------------------------------------
 Center     Atomic      Atomic             Coordinates (Angstroms)
 Number     Number       Type             X           Y           Z
 ---------------------------------------------------------------------
      1          6           0        1.052733    0.225621    0.000000
      2          7           0        0.000000    1.038857    0.000000
      3          7           0       -1.095416    0.291448    0.000000
      4          7           0       -0.716382   -0.901832    0.000000
      5          7           0        0.622191   -0.989579    0.000000
      6          1           0        2.072287    0.542964    0.000000
      7          1           0       -0.061439    2.031056    0.000000
 ---------------------------------------------------------------------
 Rotational constants (GHZ):     10.9201517     10.7345054      5.4132664
 Standard basis: 3-21G (6D, 7F)
 There are    39 symmetry adapted cartesian basis functions of A'  symmetry.
 There are    10 symmetry adapted cartesian basis functions of A"  symmetry.
 There are    39 symmetry adapted basis functions of A'  symmetry.
 There are    10 symmetry adapted basis functions of A"  symmetry.
    49 basis functions,    81 primitive gaussians,    49 cartesian basis functions
    18 alpha electrons       18 beta electrons
       nuclear repulsion energy       169.8308489506 Hartrees.
 NAtoms=    7 NActive=    7 NUniq=    7 SFac= 1.00D+00 NAtFMM=   60 NAOKFM=F Big=F
 Integral buffers will be    131072 words long.
 Raffenetti 2 integral format.
 Two-electron integral symmetry is turned on.
 One-electron integrals computed using PRISM.
 NBasis=    49 RedAO= T EigKep=  1.68D-02  NBF=    39    10
 NBsUse=    49 1.00D-06 EigRej= -1.00D+00 NBFU=    39    10
 ExpMin= 1.83D-01 ExpMax= 2.43D+02 ExpMxC= 2.43D+02 IAcc=1 IRadAn=         1 AccDes= 0.00D+00
 Harris functional with IExCor= 1009 and IRadAn=       1 diagonalized for initial guess.
 HarFok:  IExCor= 1009 AccDes= 0.00D+00 IRadAn=         1 IDoV= 1 UseB2=F ITyADJ=14
 ICtDFT=  3500011 ScaDFX=  1.000000  1.000000  1.000000  1.000000
 FoFCou: FMM=F IPFlag=           0 FMFlag=      100000 FMFlg1=           0
         NFxFlg=           0 DoJE=T BraDBF=F KetDBF=T FulRan=T
         wScrn=  0.000000 ICntrl=     500 IOpCl=  0 I1Cent=   200000004 NGrid=           0
         NMat0=    1 NMatS0=      1 NMatT0=    0 NMatD0=    1 NMtDS0=    0 NMtDT0=    0
 Petite list used in FoFCou.
 Initial guess orbital symmetries:
       Occupied  (A') (A') (A') (A') (A') (A') (A') (A') (A') (A')
                 (A') (A') (A") (A') (A") (A") (A') (A')
       Virtual   (A") (A") (A') (A') (A') (A') (A') (A') (A') (A')
                 (A") (A') (A') (A') (A') (A") (A') (A") (A') (A")
                 (A') (A") (A') (A') (A') (A') (A') (A') (A') (A')
                 (A')
 The electronic state of the initial guess is 1-A'.
 Keep R1 ints in memory in symmetry-blocked form, NReq=1650346.
 Requested convergence on RMS density matrix=1.00D-08 within 128 cycles.
 Requested convergence on MAX density matrix=1.00D-06.
 Requested convergence on             energy=1.00D-06.
 No special actions if energy rises.
 Integral accuracy reduced to 1.0D-05 until final iterations.
 Initial convergence to 1.0D-05 achieved.  Increase integral accuracy.
 SCF Done:  E(RM062X) =  -256.653628083     A.U. after   16 cycles
            NFock= 16  Conv=0.59D-08     -V/T= 2.0047

 **********************************************************************

            Population analysis using the SCF density.

 **********************************************************************

 Orbital symmetries:
       Occupied  (A') (A') (A') (A') (A') (A') (A') (A') (A') (A')
                 (A') (A") (A') (A') (A") (A") (A') (A')
       Virtual   (A") (A") (A') (A') (A') (A') (A') (A') (A') (A")
                 (A') (A') (A') (A') (A") (A') (A") (A') (A') (A")
                 (A') (A") (A') (A') (A') (A') (A') (A') (A') (A')
                 (A')
 The electronic state is 1-A'.
 Alpha  occ. eigenvalues --  -14.81831 -14.78223 -14.75983 -14.73015 -10.59693
 Alpha  occ. eigenvalues --   -1.34248  -1.09609  -1.04727  -0.78751  -0.77779
 Alpha  occ. eigenvalues --   -0.70157  -0.60740  -0.58519  -0.45498  -0.40703
 Alpha  occ. eigenvalues --   -0.38439  -0.36537  -0.34618
 Alpha virt. eigenvalues --    0.03761   0.08463   0.12855   0.17592   0.26273
 Alpha virt. eigenvalues --    0.28140   0.39147   0.42917   0.53062   0.74282
 Alpha virt. eigenvalues --    0.74737   0.86665   0.89466   0.99607   1.08701
 Alpha virt. eigenvalues --    1.11428   1.14635   1.14990   1.19054   1.22022
 Alpha virt. eigenvalues --    1.24548   1.26911   1.30134   1.41648   1.44404
 Alpha virt. eigenvalues --    1.51299   1.70977   2.12004   2.38935   2.67536
 Alpha virt. eigenvalues --    2.74087
          Condensed to atoms (all electrons):
               1          2          3          4          5          6
     1  C    4.954296   0.185223  -0.129297  -0.133637   0.393342   0.366306
     2  N    0.185223   7.217405   0.144711  -0.148691  -0.089477  -0.040831
     3  N   -0.129297   0.144711   6.904212   0.252268  -0.138887   0.001574
     4  N   -0.133637  -0.148691   0.252268   6.837319   0.271041   0.003904
     5  N    0.393342  -0.089477  -0.138887   0.271041   6.953138  -0.027930
     6  H    0.366306  -0.040831   0.001574   0.003904  -0.027930   0.406708
     7  H   -0.013050   0.322191  -0.019007   0.004123   0.003093   0.000834
               7
     1  C   -0.013050
     2  N    0.322191
     3  N   -0.019007
     4  N    0.004123
     5  N    0.003093
     6  H    0.000834
     7  H    0.311317
 Mulliken charges:
               1
     1  C    0.376817
     2  N   -0.590531
     3  N   -0.015574
     4  N   -0.086328
     5  N   -0.364319
     6  H    0.289435
     7  H    0.390499
 Sum of Mulliken charges =   0.00000
 Mulliken charges with hydrogens summed into heavy atoms:
               1
     1  C    0.666252
     2  N   -0.200031
     3  N   -0.015574
     4  N   -0.086328
     5  N   -0.364319
 Electronic spatial extent (au):  <R**2>=            245.2050
 Charge=              0.0000 electrons
 Dipole moment (field-independent basis, Debye):
    X=              2.6352    Y=              5.0427    Z=              0.0000  Tot=              5.6897
 Quadrupole moment (field-independent basis, Debye-Ang):
   XX=            -29.3282   YY=            -26.8895   ZZ=            -28.2820
   XY=              1.8131   XZ=              0.0000   YZ=              0.0000
 Traceless Quadrupole moment (field-independent basis, Debye-Ang):
   XX=             -1.1616   YY=              1.2771   ZZ=             -0.1155
   XY=              1.8131   XZ=              0.0000   YZ=              0.0000
 Octapole moment (field-independent basis, Debye-Ang**2):
  XXX=             12.0417  YYY=             22.8894  ZZZ=              0.0000  XYY=             -0.6300
  XXY=              4.7589  XXZ=              0.0000  XZZ=             -0.9595  YZZ=              0.3010
  YYZ=              0.0000  XYZ=              0.0000
 Hexadecapole moment (field-independent basis, Debye-Ang**3):
 XXXX=           -134.2523 YYYY=           -111.9330 ZZZZ=            -22.9651 XXXY=              6.3396
 XXXZ=              0.0000 YYYX=             -0.7129 YYYZ=              0.0000 ZZZX=              0.0000
 ZZZY=              0.0000 XXYY=            -50.8486 XXZZ=            -28.5343 YYZZ=            -26.6973
 XXYZ=              0.0000 YYXZ=              0.0000 ZZXY=             -0.2659
 N-N= 1.698308489506D+02 E-N=-9.378653303401D+02  KE= 2.554574132910D+02
 Symmetry A'   KE= 2.462645266515D+02
 Symmetry A"   KE= 9.192886639462D+00
 Calling FoFJK, ICntrl=      2127 FMM=F ISym2X=1 I1Cent= 0 IOpClX= 0 NMat=1 NMatS=1 NMatT=0.
 ***** Axes restored to original set *****
 -------------------------------------------------------------------
 Center     Atomic                   Forces (Hartrees/Bohr)
 Number     Number              X              Y              Z
 -------------------------------------------------------------------
      1        6           0.054793103   -0.002602887    0.000000000
      2        7           0.043153205   -0.030758095    0.000000000
      3        7          -0.054721079   -0.077851873    0.000000000
      4        7          -0.076628497    0.059273177    0.000000000
      5        7           0.024050542    0.066259222    0.000000000
      6        1           0.003071835    0.000761582    0.000000000
      7        1           0.006280890   -0.015081125    0.000000000
 -------------------------------------------------------------------
 Cartesian Forces:  Max     0.077851873 RMS     0.037482367

 GradGradGradGradGradGradGradGradGradGradGradGradGradGradGradGradGradGrad
 Berny optimization.
 FormGI is forming the generalized inverse of G from B-inverse, IUseBI=4.
 Internal  Forces:  Max     0.085853763 RMS     0.029257567
 Search for a local minimum.
 Step number   1 out of a maximum of   36
 All quantities printed in internal units (Hartrees-Bohrs-Radians)
 Mixed Optimization -- RFO/linear search
 Second derivative matrix not updated -- first step.
 ITU=  0
     Eigenvalues ---    0.02505   0.02639   0.02674   0.02834   0.16000
     Eigenvalues ---    0.16000   0.22605   0.24688   0.37510   0.48741
     Eigenvalues ---    0.50870   0.56601   0.58498   0.66939   0.78934
 RFO step:  Lambda=-3.20998438D-02 EMin= 2.50488176D-02
 Linear search not attempted -- first point.
 Iteration  1 RMS(Cart)=  0.04270487 RMS(Int)=  0.00028317
 Iteration  2 RMS(Cart)=  0.00020061 RMS(Int)=  0.00017796
 Iteration  3 RMS(Cart)=  0.00000005 RMS(Int)=  0.00017796
 ClnCor:  largest displacement from symmetrization is 2.49D-11 for atom     1.
 Variable       Old X    -DE/DX   Delta X   Delta X   Delta X     New X
                                 (Linear)    (Quad)   (Total)
    R1        2.51383   0.04365   0.00000   0.06463   0.06439   2.57822
    R2        2.43626   0.05590   0.00000   0.07289   0.07273   2.50899
    R3        2.01785   0.00315   0.00000   0.00773   0.00773   2.02558
    R4        2.50598   0.06928   0.00000   0.10945   0.10945   2.61542
    R5        1.87858   0.01633   0.00000   0.03143   0.03143   1.91001
    R6        2.36600   0.08585   0.00000   0.10415   0.10440   2.47040
    R7        2.53497   0.06683   0.00000   0.11425   0.11440   2.64937
    A1        1.88804   0.00605   0.00000   0.00279   0.00238   1.89043
    A2        2.18209  -0.00270   0.00000   0.00032   0.00052   2.18262
    A3        2.21305  -0.00336   0.00000  -0.00311  -0.00291   2.21014
    A4        1.88509   0.00482   0.00000   0.00735   0.00709   1.89219
    A5        2.29039  -0.00273   0.00000  -0.00534  -0.00521   2.28518
    A6        2.10770  -0.00209   0.00000  -0.00201  -0.00188   2.10582
    A7        1.86199  -0.00441   0.00000  -0.00086  -0.00057   1.86142
    A8        1.94382  -0.01276   0.00000  -0.02522  -0.02476   1.91906
    A9        1.84584   0.00630   0.00000   0.01594   0.01585   1.86169
    D1        0.00000   0.00000   0.00000   0.00000   0.00000   0.00000
    D2        3.14159   0.00000   0.00000   0.00000   0.00000   3.14159
    D3        3.14159   0.00000   0.00000   0.00000   0.00000   3.14159
    D4        0.00000   0.00000   0.00000   0.00000   0.00000   0.00000
    D5        0.00000   0.00000   0.00000   0.00000   0.00000   0.00000
    D6        3.14159   0.00000   0.00000   0.00000   0.00000   3.14159
    D7        0.00000   0.00000   0.00000   0.00000   0.00000   0.00000
    D8        3.14159   0.00000   0.00000   0.00000   0.00000   3.14159
    D9        0.00000   0.00000   0.00000   0.00000   0.00000   0.00000
   D10        0.00000   0.00000   0.00000   0.00000   0.00000   0.00000
         Item               Value     Threshold  Converged?
 Maximum Force            0.085854     0.000450     NO 
 RMS     Force            0.029258     0.000300     NO 
 Maximum Displacement     0.113129     0.001800     NO 
 RMS     Displacement     0.042718     0.001200     NO 
 Predicted change in Energy=-1.680003D-02
 GradGradGradGradGradGradGradGradGradGradGradGradGradGradGradGradGradGrad

                          Input orientation:                          
 ---------------------------------------------------------------------
 Center     Atomic      Atomic             Coordinates (Angstroms)
 Number     Number       Type             X           Y           Z
 ---------------------------------------------------------------------
      1          6           0        1.029710    0.006588    0.000000
      2          7           0        0.400176   -1.203824    0.000000
      3          7           0       -0.966562   -0.985775    0.000000
      4          7           0       -1.139159    0.310060    0.000000
      5          7           0        0.103957    0.958311    0.000000
      6          1           0        2.092246    0.147905    0.000000
      7          1           0        0.772089   -2.143646    0.000000
 ---------------------------------------------------------------------
                    Distance matrix (angstroms):
                    1          2          3          4          5
     1  C    0.000000
     2  N    1.364336   0.000000
     3  N    2.229324   1.384023   0.000000
     4  N    2.189997   2.159027   1.307278   0.000000
     5  N    1.327702   2.182332   2.219342   1.401987   0.000000
     6  H    1.071893   2.165704   3.262137   3.235471   2.147104
     7  H    2.165612   1.010734   2.088917   3.110231   3.173095
                    6          7
     6  H    0.000000
     7  H    2.644620   0.000000
 Stoichiometry    CH2N4
 Framework group  CS[SG(CH2N4)]
 Deg. of freedom    11
 Full point group                 CS      NOp   2
 Largest Abelian subgroup         CS      NOp   2
 Largest concise Abelian subgroup C1      NOp   1
                         Standard orientation:                         
 ---------------------------------------------------------------------
 Center     Atomic      Atomic             Coordinates (Angstroms)
 Number     Number       Type             X           Y           Z
 ---------------------------------------------------------------------
      1          6           0        1.087628    0.250349    0.000000
      2          7           0        0.000000    1.074045    0.000000
      3          7           0       -1.141322    0.291164    0.000000
      4          7           0       -0.741769   -0.953558    0.000000
      5          7           0        0.659224   -1.006339    0.000000
      6          1           0        2.108166    0.578155    0.000000
      7          1           0       -0.066866    2.082565    0.000000
 ---------------------------------------------------------------------
 Rotational constants (GHZ):     10.1969665      9.9672404      5.0403974
 Standard basis: 3-21G (6D, 7F)
 There are    39 symmetry adapted cartesian basis functions of A'  symmetry.
 There are    10 symmetry adapted cartesian basis functions of A"  symmetry.
 There are    39 symmetry adapted basis functions of A'  symmetry.
 There are    10 symmetry adapted basis functions of A"  symmetry.
    49 basis functions,    81 primitive gaussians,    49 cartesian basis functions
    18 alpha electrons       18 beta electrons
       nuclear repulsion energy       163.9290987972 Hartrees.
 NAtoms=    7 NActive=    7 NUniq=    7 SFac= 1.00D+00 NAtFMM=   60 NAOKFM=F Big=F
 Integral buffers will be    131072 words long.
 Raffenetti 2 integral format.
 Two-electron integral symmetry is turned on.
 One-electron integrals computed using PRISM.
 NBasis=    49 RedAO= T EigKep=  1.95D-02  NBF=    39    10
 NBsUse=    49 1.00D-06 EigRej= -1.00D+00 NBFU=    39    10
 Initial guess from the checkpoint file:  "/tmp/rdj3/g09-18029/Gau-12888.chk"
 B after Tr=     0.000000    0.000000    0.000000
         Rot=    0.999987    0.000000    0.000000   -0.005190 Ang=  -0.59 deg.
 Initial guess orbital symmetries:
       Occupied  (A') (A') (A') (A') (A') (A') (A') (A') (A') (A')
                 (A') (A") (A') (A') (A") (A") (A') (A')
       Virtual   (A') (A') (A') (A') (A') (A') (A') (A') (A') (A')
                 (A') (A') (A') (A') (A') (A') (A') (A') (A') (A')
                 (A') (A') (A') (A') (A") (A") (A") (A") (A") (A")
                 (A")
 ExpMin= 1.83D-01 ExpMax= 2.43D+02 ExpMxC= 2.43D+02 IAcc=1 IRadAn=         1 AccDes= 0.00D+00
 Harris functional with IExCor= 1009 and IRadAn=       1 diagonalized for initial guess.
 HarFok:  IExCor= 1009 AccDes= 0.00D+00 IRadAn=         1 IDoV= 1 UseB2=F ITyADJ=14
 ICtDFT=  3500011 ScaDFX=  1.000000  1.000000  1.000000  1.000000
 FoFCou: FMM=F IPFlag=           0 FMFlag=      100000 FMFlg1=           0
         NFxFlg=           0 DoJE=T BraDBF=F KetDBF=T FulRan=T
         wScrn=  0.000000 ICntrl=     500 IOpCl=  0 I1Cent=   200000004 NGrid=           0
         NMat0=    1 NMatS0=      1 NMatT0=    0 NMatD0=    1 NMtDS0=    0 NMtDT0=    0
 Petite list used in FoFCou.
 Keep R1 ints in memory in symmetry-blocked form, NReq=1650346.
 Requested convergence on RMS density matrix=1.00D-08 within 128 cycles.
 Requested convergence on MAX density matrix=1.00D-06.
 Requested convergence on             energy=1.00D-06.
 No special actions if energy rises.
 Integral accuracy reduced to 1.0D-05 until final iterations.
 Initial convergence to 1.0D-05 achieved.  Increase integral accuracy.
 SCF Done:  E(RM062X) =  -256.671238038     A.U. after   17 cycles
            NFock= 17  Conv=0.91D-08     -V/T= 2.0078
 Calling FoFJK, ICntrl=      2127 FMM=F ISym2X=1 I1Cent= 0 IOpClX= 0 NMat=1 NMatS=1 NMatT=0.
 ***** Axes restored to original set *****
 -------------------------------------------------------------------
 Center     Atomic                   Forces (Hartrees/Bohr)
 Number     Number              X              Y              Z
 -------------------------------------------------------------------
      1        6          -0.009383611   -0.002844906    0.000000000
      2        7           0.014212673    0.002175111    0.000000000
      3        7          -0.014076892   -0.020937571    0.000000000
      4        7          -0.007906395    0.006304569    0.000000000
      5        7           0.017470317    0.016675246    0.000000000
      6        1           0.000133681    0.000586849    0.000000000
      7        1          -0.000449772   -0.001959297    0.000000000
 -------------------------------------------------------------------
 Cartesian Forces:  Max     0.020937571 RMS     0.008808425

 GradGradGradGradGradGradGradGradGradGradGradGradGradGradGradGradGradGrad
 Berny optimization.
 Using GEDIIS/GDIIS optimizer.
 FormGI is forming the generalized inverse of G from B-inverse, IUseBI=4.
 Internal  Forces:  Max     0.016753297 RMS     0.005892963
 Search for a local minimum.
 Step number   2 out of a maximum of   36
 All quantities printed in internal units (Hartrees-Bohrs-Radians)
 Mixed Optimization -- RFO/linear search
 Update second derivatives using D2CorX and points    1    2
 DE= -1.76D-02 DEPred=-1.68D-02 R= 1.05D+00
 TightC=F SS=  1.41D+00  RLast= 2.18D-01 DXNew= 5.0454D-01 6.5321D-01
 Trust test= 1.05D+00 RLast= 2.18D-01 DXMaxT set to 5.05D-01
 ITU=  1  0
 Use linear search instead of GDIIS.
     Eigenvalues ---    0.02504   0.02634   0.02676   0.02834   0.15996
     Eigenvalues ---    0.16003   0.22609   0.24597   0.37515   0.48214
     Eigenvalues ---    0.49171   0.54810   0.58143   0.69349   0.76132
 RFO step:  Lambda=-1.91560727D-03 EMin= 2.50372738D-02
 Quartic linear search produced a step of  0.19984.
 Iteration  1 RMS(Cart)=  0.01654925 RMS(Int)=  0.00024006
 Iteration  2 RMS(Cart)=  0.00024900 RMS(Int)=  0.00002630
 Iteration  3 RMS(Cart)=  0.00000003 RMS(Int)=  0.00002630
 ClnCor:  largest displacement from symmetrization is 4.78D-11 for atom     1.
 Variable       Old X    -DE/DX   Delta X   Delta X   Delta X     New X
                                 (Linear)    (Quad)   (Total)
    R1        2.57822   0.00169   0.01287  -0.00720   0.00563   2.58385
    R2        2.50899  -0.00038   0.01453  -0.01137   0.00315   2.51214
    R3        2.02558   0.00022   0.00155  -0.00009   0.00146   2.02704
    R4        2.61542   0.01018   0.02187   0.00779   0.02965   2.64508
    R5        1.91001   0.00165   0.00628   0.00056   0.00684   1.91685
    R6        2.47040   0.01675   0.02086   0.01396   0.03485   2.50525
    R7        2.64937   0.01492   0.02286   0.02004   0.04293   2.69230
    A1        1.89043   0.00903   0.00048   0.03331   0.03374   1.92417
    A2        2.18262  -0.00400   0.00010  -0.01295  -0.01282   2.16980
    A3        2.21014  -0.00503  -0.00058  -0.02036  -0.02092   2.18922
    A4        1.89219   0.00250   0.00142   0.00430   0.00567   1.89785
    A5        2.28518  -0.00011  -0.00104   0.00640   0.00538   2.29056
    A6        2.10582  -0.00239  -0.00038  -0.01070  -0.01105   2.09477
    A7        1.86142  -0.00880  -0.00011  -0.03255  -0.03264   1.82878
    A8        1.91906   0.00473  -0.00495   0.03731   0.03244   1.95150
    A9        1.86169  -0.00746   0.00317  -0.04238  -0.03920   1.82249
    D1        0.00000   0.00000   0.00000   0.00000   0.00000   0.00000
    D2        3.14159   0.00000   0.00000   0.00000   0.00000   3.14159
    D3        3.14159   0.00000   0.00000   0.00000   0.00000   3.14159
    D4        0.00000   0.00000   0.00000   0.00000   0.00000   0.00000
    D5        0.00000   0.00000   0.00000   0.00000   0.00000   0.00000
    D6        3.14159   0.00000   0.00000   0.00000   0.00000   3.14159
    D7        0.00000   0.00000   0.00000   0.00000   0.00000   0.00000
    D8        3.14159   0.00000   0.00000   0.00000   0.00000   3.14159
    D9        0.00000   0.00000   0.00000   0.00000   0.00000   0.00000
   D10        0.00000   0.00000   0.00000   0.00000   0.00000   0.00000
         Item               Value     Threshold  Converged?
 Maximum Force            0.016753     0.000450     NO 
 RMS     Force            0.005893     0.000300     NO 
 Maximum Displacement     0.053299     0.001800     NO 
 RMS     Displacement     0.016577     0.001200     NO 
 Predicted change in Energy=-1.279723D-03
 GradGradGradGradGradGradGradGradGradGradGradGradGradGradGradGradGradGrad

                          Input orientation:                          
 ---------------------------------------------------------------------
 Center     Atomic      Atomic             Coordinates (Angstroms)
 Number     Number       Type             X           Y           Z
 ---------------------------------------------------------------------
      1          6           0        1.022701    0.010358    0.000000
      2          7           0        0.401919   -1.207909    0.000000
      3          7           0       -0.983265   -1.006752    0.000000
      4          7           0       -1.133762    0.310399    0.000000
      5          7           0        0.120293    0.986515    0.000000
      6          1           0        2.086627    0.147001    0.000000
      7          1           0        0.777944   -2.149993    0.000000
 ---------------------------------------------------------------------
                    Distance matrix (angstroms):
                    1          2          3          4          5
     1  C    0.000000
     2  N    1.367313   0.000000
     3  N    2.249091   1.399714   0.000000
     4  N    2.177236   2.159532   1.325721   0.000000
     5  N    1.329370   2.212422   2.278366   1.424706   0.000000
     6  H    1.072665   2.161948   3.279540   3.224532   2.138049
     7  H    2.174172   1.014356   2.099728   3.115791   3.204714
                    6          7
     6  H    0.000000
     7  H    2.643640   0.000000
 Stoichiometry    CH2N4
 Framework group  CS[SG(CH2N4)]
 Deg. of freedom    11
 Full point group                 CS      NOp   2
 Largest Abelian subgroup         CS      NOp   2
 Largest concise Abelian subgroup C1      NOp   1
                         Standard orientation:                         
 ---------------------------------------------------------------------
 Center     Atomic      Atomic             Coordinates (Angstroms)
 Number     Number       Type             X           Y           Z
 ---------------------------------------------------------------------
      1          6           0        1.082477    0.244078    0.000000
      2          7           0        0.000000    1.079414    0.000000
      3          7           0       -1.165796    0.304740    0.000000
      4          7           0       -0.738056   -0.950081    0.000000
      5          7           0        0.684710   -1.024388    0.000000
      6          1           0        2.102510    0.575955    0.000000
      7          1           0       -0.063381    2.091788    0.000000
 ---------------------------------------------------------------------
 Rotational constants (GHZ):     10.1188320      9.7094069      4.9549462
 Standard basis: 3-21G (6D, 7F)
 There are    39 symmetry adapted cartesian basis functions of A'  symmetry.
 There are    10 symmetry adapted cartesian basis functions of A"  symmetry.
 There are    39 symmetry adapted basis functions of A'  symmetry.
 There are    10 symmetry adapted basis functions of A"  symmetry.
    49 basis functions,    81 primitive gaussians,    49 cartesian basis functions
    18 alpha electrons       18 beta electrons
       nuclear repulsion energy       162.5609650727 Hartrees.
 NAtoms=    7 NActive=    7 NUniq=    7 SFac= 1.00D+00 NAtFMM=   60 NAOKFM=F Big=F
 Integral buffers will be    131072 words long.
 Raffenetti 2 integral format.
 Two-electron integral symmetry is turned on.
 One-electron integrals computed using PRISM.
 NBasis=    49 RedAO= T EigKep=  2.02D-02  NBF=    39    10
 NBsUse=    49 1.00D-06 EigRej= -1.00D+00 NBFU=    39    10
 Initial guess from the checkpoint file:  "/tmp/rdj3/g09-18029/Gau-12888.chk"
 B after Tr=     0.000000    0.000000    0.000000
         Rot=    1.000000    0.000000    0.000000   -0.000018 Ang=   0.00 deg.
 Initial guess orbital symmetries:
       Occupied  (A') (A') (A') (A') (A') (A') (A') (A') (A') (A')
                 (A') (A") (A') (A') (A") (A") (A') (A')
       Virtual   (A') (A') (A') (A') (A') (A') (A') (A') (A') (A')
                 (A') (A') (A') (A') (A') (A') (A') (A') (A') (A')
                 (A') (A') (A') (A') (A") (A") (A") (A") (A") (A")
                 (A")
 ExpMin= 1.83D-01 ExpMax= 2.43D+02 ExpMxC= 2.43D+02 IAcc=1 IRadAn=         1 AccDes= 0.00D+00
 Harris functional with IExCor= 1009 and IRadAn=       1 diagonalized for initial guess.
 HarFok:  IExCor= 1009 AccDes= 0.00D+00 IRadAn=         1 IDoV= 1 UseB2=F ITyADJ=14
 ICtDFT=  3500011 ScaDFX=  1.000000  1.000000  1.000000  1.000000
 FoFCou: FMM=F IPFlag=           0 FMFlag=      100000 FMFlg1=           0
         NFxFlg=           0 DoJE=T BraDBF=F KetDBF=T FulRan=T
         wScrn=  0.000000 ICntrl=     500 IOpCl=  0 I1Cent=   200000004 NGrid=           0
         NMat0=    1 NMatS0=      1 NMatT0=    0 NMatD0=    1 NMtDS0=    0 NMtDT0=    0
 Petite list used in FoFCou.
 Keep R1 ints in memory in symmetry-blocked form, NReq=1650346.
 Requested convergence on RMS density matrix=1.00D-08 within 128 cycles.
 Requested convergence on MAX density matrix=1.00D-06.
 Requested convergence on             energy=1.00D-06.
 No special actions if energy rises.
 Integral accuracy reduced to 1.0D-05 until final iterations.
 Initial convergence to 1.0D-05 achieved.  Increase integral accuracy.
 SCF Done:  E(RM062X) =  -256.672076819     A.U. after   16 cycles
            NFock= 16  Conv=0.22D-08     -V/T= 2.0083
 Calling FoFJK, ICntrl=      2127 FMM=F ISym2X=1 I1Cent= 0 IOpClX= 0 NMat=1 NMatS=1 NMatT=0.
 ***** Axes restored to original set *****
 -------------------------------------------------------------------
 Center     Atomic                   Forces (Hartrees/Bohr)
 Number     Number              X              Y              Z
 -------------------------------------------------------------------
      1        6          -0.001962875   -0.004685606    0.000000000
      2        7           0.009358230    0.002720118    0.000000000
      3        7           0.003004280    0.008950355    0.000000000
      4        7          -0.014693934    0.001988673    0.000000000
      5        7           0.003491584   -0.009915586    0.000000000
      6        1           0.000425923   -0.000441416    0.000000000
      7        1           0.000376792    0.001383461    0.000000000
 -------------------------------------------------------------------
 Cartesian Forces:  Max     0.014693934 RMS     0.005083711

 GradGradGradGradGradGradGradGradGradGradGradGradGradGradGradGradGradGrad
 Berny optimization.
 Using GEDIIS/GDIIS optimizer.
 FormGI is forming the generalized inverse of G from B-inverse, IUseBI=4.
 Internal  Forces:  Max     0.013037143 RMS     0.004355557
 Search for a local minimum.
 Step number   3 out of a maximum of   36
 All quantities printed in internal units (Hartrees-Bohrs-Radians)
 Mixed Optimization -- RFO/linear search
 Update second derivatives using D2CorX and points    1    2    3
 DE= -8.39D-04 DEPred=-1.28D-03 R= 6.55D-01
 TightC=F SS=  1.41D+00  RLast= 9.80D-02 DXNew= 8.4853D-01 2.9402D-01
 Trust test= 6.55D-01 RLast= 9.80D-02 DXMaxT set to 5.05D-01
 ITU=  1  1  0
 Use linear search instead of GDIIS.
     Eigenvalues ---    0.02506   0.02636   0.02677   0.02831   0.15999
     Eigenvalues ---    0.16024   0.21427   0.30296   0.37532   0.41365
     Eigenvalues ---    0.48934   0.53513   0.62588   0.69662   0.80911
 RFO step:  Lambda=-6.64393449D-04 EMin= 2.50599572D-02
 Quartic linear search produced a step of -0.28232.
 Iteration  1 RMS(Cart)=  0.00933259 RMS(Int)=  0.00008346
 Iteration  2 RMS(Cart)=  0.00006398 RMS(Int)=  0.00003242
 Iteration  3 RMS(Cart)=  0.00000000 RMS(Int)=  0.00003242
 ClnCor:  largest displacement from symmetrization is 1.11D-11 for atom     1.
 Variable       Old X    -DE/DX   Delta X   Delta X   Delta X     New X
                                 (Linear)    (Quad)   (Total)
    R1        2.58385  -0.01042  -0.00159  -0.01156  -0.01319   2.57065
    R2        2.51214  -0.00094  -0.00089  -0.00049  -0.00140   2.51075
    R3        2.02704   0.00038  -0.00041   0.00135   0.00094   2.02798
    R4        2.64508   0.00576  -0.00837   0.02086   0.01248   2.65756
    R5        1.91685  -0.00115  -0.00193   0.00123  -0.00070   1.91615
    R6        2.50525  -0.00280  -0.00984   0.01444   0.00464   2.50989
    R7        2.69230   0.00310  -0.01212   0.02471   0.01262   2.70493
    A1        1.92417  -0.00209  -0.00952   0.00836  -0.00123   1.92294
    A2        2.16980   0.00049   0.00362  -0.00483  -0.00118   2.16862
    A3        2.18922   0.00160   0.00591  -0.00353   0.00240   2.19163
    A4        1.89785  -0.00201  -0.00160  -0.00498  -0.00664   1.89121
    A5        2.29056   0.00023  -0.00152   0.00296   0.00147   2.29203
    A6        2.09477   0.00178   0.00312   0.00201   0.00516   2.09994
    A7        1.82878   0.00804   0.00922   0.00936   0.01861   1.84739
    A8        1.95150  -0.01304  -0.00916  -0.02010  -0.02917   1.92233
    A9        1.82249   0.00910   0.01107   0.00735   0.01842   1.84091
    D1        0.00000   0.00000   0.00000   0.00000   0.00000   0.00000
    D2        3.14159   0.00000   0.00000   0.00000   0.00000   3.14159
    D3        3.14159   0.00000   0.00000   0.00000   0.00000   3.14159
    D4        0.00000   0.00000   0.00000   0.00000   0.00000   0.00000
    D5        0.00000   0.00000   0.00000   0.00000   0.00000   0.00000
    D6        3.14159   0.00000   0.00000   0.00000   0.00000   3.14159
    D7        0.00000   0.00000   0.00000   0.00000   0.00000   0.00000
    D8        3.14159   0.00000   0.00000   0.00000   0.00000   3.14159
    D9        0.00000   0.00000   0.00000   0.00000   0.00000   0.00000
   D10        0.00000   0.00000   0.00000   0.00000   0.00000   0.00000
         Item               Value     Threshold  Converged?
 Maximum Force            0.013037     0.000450     NO 
 RMS     Force            0.004356     0.000300     NO 
 Maximum Displacement     0.032565     0.001800     NO 
 RMS     Displacement     0.009342     0.001200     NO 
 Predicted change in Energy=-4.796950D-04
 GradGradGradGradGradGradGradGradGradGradGradGradGradGradGradGradGradGrad

                          Input orientation:                          
 ---------------------------------------------------------------------
 Center     Atomic      Atomic             Coordinates (Angstroms)
 Number     Number       Type             X           Y           Z
 ---------------------------------------------------------------------
      1          6           0        1.024113    0.005531    0.000000
      2          7           0        0.408726   -1.207646    0.000000
      3          7           0       -0.982007   -0.998859    0.000000
      4          7           0       -1.150995    0.318524    0.000000
      5          7           0        0.119223    0.978380    0.000000
      6          1           0        2.088443    0.142938    0.000000
      7          1           0        0.784953   -2.149249    0.000000
 ---------------------------------------------------------------------
                    Distance matrix (angstroms):
                    1          2          3          4          5
     1  C    0.000000
     2  N    1.360331   0.000000
     3  N    2.243506   1.406319   0.000000
     4  N    2.197512   2.182183   1.328177   0.000000
     5  N    1.328631   2.205113   2.263224   1.431385   0.000000
     6  H    1.073162   2.155348   3.275876   3.244193   2.139109
     7  H    2.168013   1.013984   2.108447   3.136527   3.197696
                    6          7
     6  H    0.000000
     7  H    2.636894   0.000000
 Stoichiometry    CH2N4
 Framework group  CS[SG(CH2N4)]
 Deg. of freedom    11
 Full point group                 CS      NOp   2
 Largest Abelian subgroup         CS      NOp   2
 Largest concise Abelian subgroup C1      NOp   1
                         Standard orientation:                         
 ---------------------------------------------------------------------
 Center     Atomic      Atomic             Coordinates (Angstroms)
 Number     Number       Type             X           Y           Z
 ---------------------------------------------------------------------
      1          6           0        1.081039    0.257637    0.000000
      2          7           0        0.000000    1.083382    0.000000
      3          7           0       -1.162211    0.291550    0.000000
      4          7           0       -0.742542   -0.968582    0.000000
      5          7           0        0.688197   -1.011590    0.000000
      6          1           0        2.099497    0.595900    0.000000
      7          1           0       -0.069843    2.094958    0.000000
 ---------------------------------------------------------------------
 Rotational constants (GHZ):      9.9943635      9.7786325      4.9426606
 Standard basis: 3-21G (6D, 7F)
 There are    39 symmetry adapted cartesian basis functions of A'  symmetry.
 There are    10 symmetry adapted cartesian basis functions of A"  symmetry.
 There are    39 symmetry adapted basis functions of A'  symmetry.
 There are    10 symmetry adapted basis functions of A"  symmetry.
    49 basis functions,    81 primitive gaussians,    49 cartesian basis functions
    18 alpha electrons       18 beta electrons
       nuclear repulsion energy       162.3570577882 Hartrees.
 NAtoms=    7 NActive=    7 NUniq=    7 SFac= 1.00D+00 NAtFMM=   60 NAOKFM=F Big=F
 Integral buffers will be    131072 words long.
 Raffenetti 2 integral format.
 Two-electron integral symmetry is turned on.
 One-electron integrals computed using PRISM.
 NBasis=    49 RedAO= T EigKep=  2.02D-02  NBF=    39    10
 NBsUse=    49 1.00D-06 EigRej= -1.00D+00 NBFU=    39    10
 Initial guess from the checkpoint file:  "/tmp/rdj3/g09-18029/Gau-12888.chk"
 B after Tr=     0.000000    0.000000    0.000000
         Rot=    0.999994    0.000000    0.000000   -0.003586 Ang=  -0.41 deg.
 Initial guess orbital symmetries:
       Occupied  (A') (A') (A') (A') (A') (A') (A') (A') (A') (A')
                 (A') (A") (A') (A') (A") (A") (A') (A')
       Virtual   (A') (A') (A') (A') (A') (A') (A') (A') (A') (A')
                 (A') (A') (A') (A') (A') (A') (A') (A') (A') (A')
                 (A') (A') (A') (A') (A") (A") (A") (A") (A") (A")
                 (A")
 ExpMin= 1.83D-01 ExpMax= 2.43D+02 ExpMxC= 2.43D+02 IAcc=1 IRadAn=         1 AccDes= 0.00D+00
 Harris functional with IExCor= 1009 and IRadAn=       1 diagonalized for initial guess.
 HarFok:  IExCor= 1009 AccDes= 0.00D+00 IRadAn=         1 IDoV= 1 UseB2=F ITyADJ=14
 ICtDFT=  3500011 ScaDFX=  1.000000  1.000000  1.000000  1.000000
 FoFCou: FMM=F IPFlag=           0 FMFlag=      100000 FMFlg1=           0
         NFxFlg=           0 DoJE=T BraDBF=F KetDBF=T FulRan=T
         wScrn=  0.000000 ICntrl=     500 IOpCl=  0 I1Cent=   200000004 NGrid=           0
         NMat0=    1 NMatS0=      1 NMatT0=    0 NMatD0=    1 NMtDS0=    0 NMtDT0=    0
 Petite list used in FoFCou.
 Keep R1 ints in memory in symmetry-blocked form, NReq=1650346.
 Requested convergence on RMS density matrix=1.00D-08 within 128 cycles.
 Requested convergence on MAX density matrix=1.00D-06.
 Requested convergence on             energy=1.00D-06.
 No special actions if energy rises.
 Integral accuracy reduced to 1.0D-05 until final iterations.
 Initial convergence to 1.0D-05 achieved.  Increase integral accuracy.
 SCF Done:  E(RM062X) =  -256.672454439     A.U. after   15 cycles
            NFock= 15  Conv=0.23D-08     -V/T= 2.0084
 Calling FoFJK, ICntrl=      2127 FMM=F ISym2X=1 I1Cent= 0 IOpClX= 0 NMat=1 NMatS=1 NMatT=0.
 ***** Axes restored to original set *****
 -------------------------------------------------------------------
 Center     Atomic                   Forces (Hartrees/Bohr)
 Number     Number              X              Y              Z
 -------------------------------------------------------------------
      1        6          -0.003798164    0.000158375    0.000000000
      2        7          -0.000396769    0.003263999    0.000000000
      3        7          -0.001428288    0.002395666    0.000000000
      4        7           0.003536129   -0.006154863    0.000000000
      5        7           0.002874496   -0.000827510    0.000000000
      6        1          -0.000112337    0.000413076    0.000000000
      7        1          -0.000675067    0.000751258    0.000000000
 -------------------------------------------------------------------
 Cartesian Forces:  Max     0.006154863 RMS     0.002110956

 GradGradGradGradGradGradGradGradGradGradGradGradGradGradGradGradGradGrad
 Berny optimization.
 Using GEDIIS/GDIIS optimizer.
 FormGI is forming the generalized inverse of G from B-inverse, IUseBI=4.
 Internal  Forces:  Max     0.004854497 RMS     0.001648071
 Search for a local minimum.
 Step number   4 out of a maximum of   36
 All quantities printed in internal units (Hartrees-Bohrs-Radians)
 Mixed Optimization -- RFO/linear search
 Update second derivatives using D2CorX and points    1    2    3    4
 DE= -3.78D-04 DEPred=-4.80D-04 R= 7.87D-01
 TightC=F SS=  1.41D+00  RLast= 4.62D-02 DXNew= 8.4853D-01 1.3853D-01
 Trust test= 7.87D-01 RLast= 4.62D-02 DXMaxT set to 5.05D-01
 ITU=  1  1  1  0
 Use linear search instead of GDIIS.
     Eigenvalues ---    0.02505   0.02633   0.02680   0.02833   0.15970
     Eigenvalues ---    0.16007   0.22986   0.29498   0.37552   0.47906
     Eigenvalues ---    0.48923   0.54256   0.60257   0.74635   0.82066
 RFO step:  Lambda=-6.67982129D-05 EMin= 2.50501842D-02
 Quartic linear search produced a step of -0.17380.
 Iteration  1 RMS(Cart)=  0.00278021 RMS(Int)=  0.00000594
 Iteration  2 RMS(Cart)=  0.00000328 RMS(Int)=  0.00000466
 Iteration  3 RMS(Cart)=  0.00000000 RMS(Int)=  0.00000466
 ClnCor:  largest displacement from symmetrization is 9.17D-12 for atom     1.
 Variable       Old X    -DE/DX   Delta X   Delta X   Delta X     New X
                                 (Linear)    (Quad)   (Total)
    R1        2.57065  -0.00177   0.00229  -0.00545  -0.00315   2.56750
    R2        2.51075  -0.00428   0.00024  -0.00481  -0.00457   2.50618
    R3        2.02798  -0.00005  -0.00016   0.00008  -0.00008   2.02790
    R4        2.65756  -0.00162  -0.00217  -0.00032  -0.00249   2.65507
    R5        1.91615  -0.00095   0.00012  -0.00188  -0.00176   1.91439
    R6        2.50989  -0.00485  -0.00081  -0.00503  -0.00584   2.50405
    R7        2.70493   0.00003  -0.00219   0.00113  -0.00107   2.70385
    A1        1.92294   0.00024   0.00021  -0.00136  -0.00114   1.92180
    A2        2.16862   0.00027   0.00020   0.00193   0.00213   2.17075
    A3        2.19163  -0.00051  -0.00042  -0.00056  -0.00099   2.19064
    A4        1.89121   0.00139   0.00115   0.00276   0.00392   1.89514
    A5        2.29203  -0.00033  -0.00026  -0.00050  -0.00076   2.29127
    A6        2.09994  -0.00107  -0.00090  -0.00226  -0.00316   2.09678
    A7        1.84739  -0.00258  -0.00324  -0.00200  -0.00524   1.84215
    A8        1.92233   0.00286   0.00507  -0.00022   0.00484   1.92717
    A9        1.84091  -0.00192  -0.00320   0.00082  -0.00238   1.83853
    D1        0.00000   0.00000   0.00000   0.00000   0.00000   0.00000
    D2        3.14159   0.00000   0.00000   0.00000   0.00000   3.14159
    D3        3.14159   0.00000   0.00000   0.00000   0.00000   3.14159
    D4        0.00000   0.00000   0.00000   0.00000   0.00000   0.00000
    D5        0.00000   0.00000   0.00000   0.00000   0.00000   0.00000
    D6        3.14159   0.00000   0.00000   0.00000   0.00000   3.14159
    D7        0.00000   0.00000   0.00000   0.00000   0.00000   0.00000
    D8        3.14159   0.00000   0.00000   0.00000   0.00000   3.14159
    D9        0.00000   0.00000   0.00000   0.00000   0.00000   0.00000
   D10        0.00000   0.00000   0.00000   0.00000   0.00000   0.00000
         Item               Value     Threshold  Converged?
 Maximum Force            0.004854     0.000450     NO 
 RMS     Force            0.001648     0.000300     NO 
 Maximum Displacement     0.007026     0.001800     NO 
 RMS     Displacement     0.002780     0.001200     NO 
 Predicted change in Energy=-5.004045D-05
 GradGradGradGradGradGradGradGradGradGradGradGradGradGradGradGradGradGrad

                          Input orientation:                          
 ---------------------------------------------------------------------
 Center     Atomic      Atomic             Coordinates (Angstroms)
 Number     Number       Type             X           Y           Z
 ---------------------------------------------------------------------
      1          6           0        1.023786    0.005574    0.000000
      2          7           0        0.407343   -1.205195    0.000000
      3          7           0       -0.982589   -0.999977    0.000000
      4          7           0       -1.147490    0.314806    0.000000
      5          7           0        0.120886    0.976972    0.000000
      6          1           0        2.087987    0.143649    0.000000
      7          1           0        0.782535   -2.146209    0.000000
 ---------------------------------------------------------------------
                    Distance matrix (angstroms):
                    1          2          3          4          5
     1  C    0.000000
     2  N    1.358663   0.000000
     3  N    2.244254   1.405001   0.000000
     4  N    2.193186   2.174376   1.325084   0.000000
     5  N    1.326213   2.200889   2.264064   1.430818   0.000000
     6  H    1.073121   2.154981   3.276632   3.240001   2.136332
     7  H    2.165265   1.013053   2.104640   3.127554   3.192497
                    6          7
     6  H    0.000000
     7  H    2.635840   0.000000
 Stoichiometry    CH2N4
 Framework group  CS[SG(CH2N4)]
 Deg. of freedom    11
 Full point group                 CS      NOp   2
 Largest Abelian subgroup         CS      NOp   2
 Largest concise Abelian subgroup C1      NOp   1
                         Standard orientation:                         
 ---------------------------------------------------------------------
 Center     Atomic      Atomic             Coordinates (Angstroms)
 Number     Number       Type             X           Y           Z
 ---------------------------------------------------------------------
      1          6           0        1.080678    0.256330    0.000000
      2          7           0        0.000000    1.079798    0.000000
      3          7           0       -1.163294    0.291906    0.000000
      4          7           0       -0.741479   -0.964247    0.000000
      5          7           0        0.688588   -1.010599    0.000000
      6          1           0        2.099419    0.593605    0.000000
      7          1           0       -0.070192    2.090416    0.000000
 ---------------------------------------------------------------------
 Rotational constants (GHZ):     10.0522454      9.7745132      4.9557170
 Standard basis: 3-21G (6D, 7F)
 There are    39 symmetry adapted cartesian basis functions of A'  symmetry.
 There are    10 symmetry adapted cartesian basis functions of A"  symmetry.
 There are    39 symmetry adapted basis functions of A'  symmetry.
 There are    10 symmetry adapted basis functions of A"  symmetry.
    49 basis functions,    81 primitive gaussians,    49 cartesian basis functions
    18 alpha electrons       18 beta electrons
       nuclear repulsion energy       162.5729071360 Hartrees.
 NAtoms=    7 NActive=    7 NUniq=    7 SFac= 1.00D+00 NAtFMM=   60 NAOKFM=F Big=F
 Integral buffers will be    131072 words long.
 Raffenetti 2 integral format.
 Two-electron integral symmetry is turned on.
 One-electron integrals computed using PRISM.
 NBasis=    49 RedAO= T EigKep=  2.01D-02  NBF=    39    10
 NBsUse=    49 1.00D-06 EigRej= -1.00D+00 NBFU=    39    10
 Initial guess from the checkpoint file:  "/tmp/rdj3/g09-18029/Gau-12888.chk"
 B after Tr=     0.000000    0.000000    0.000000
         Rot=    1.000000    0.000000    0.000000    0.000181 Ang=   0.02 deg.
 Initial guess orbital symmetries:
       Occupied  (A') (A') (A') (A') (A') (A') (A') (A') (A') (A')
                 (A') (A") (A') (A') (A") (A') (A") (A')
       Virtual   (A') (A') (A') (A') (A') (A') (A') (A') (A') (A')
                 (A') (A') (A') (A') (A') (A') (A') (A') (A') (A')
                 (A') (A') (A') (A') (A") (A") (A") (A") (A") (A")
                 (A")
 Keep R1 ints in memory in symmetry-blocked form, NReq=1650346.
 Requested convergence on RMS density matrix=1.00D-08 within 128 cycles.
 Requested convergence on MAX density matrix=1.00D-06.
 Requested convergence on             energy=1.00D-06.
 No special actions if energy rises.
 SCF Done:  E(RM062X) =  -256.672511790     A.U. after   10 cycles
            NFock= 10  Conv=0.49D-08     -V/T= 2.0083
 Calling FoFJK, ICntrl=      2127 FMM=F ISym2X=1 I1Cent= 0 IOpClX= 0 NMat=1 NMatS=1 NMatT=0.
 ***** Axes restored to original set *****
 -------------------------------------------------------------------
 Center     Atomic                   Forces (Hartrees/Bohr)
 Number     Number              X              Y              Z
 -------------------------------------------------------------------
      1        6          -0.001960658   -0.000298076    0.000000000
      2        7           0.001115226   -0.000302158    0.000000000
      3        7          -0.000107887    0.002596478    0.000000000
      4        7          -0.000151395   -0.002659084    0.000000000
      5        7           0.001249764    0.000437186    0.000000000
      6        1          -0.000047888    0.000141133    0.000000000
      7        1          -0.000097164    0.000084523    0.000000000
 -------------------------------------------------------------------
 Cartesian Forces:  Max     0.002659084 RMS     0.000997780

 GradGradGradGradGradGradGradGradGradGradGradGradGradGradGradGradGradGrad
 Berny optimization.
 Using GEDIIS/GDIIS optimizer.
 FormGI is forming the generalized inverse of G from B-inverse, IUseBI=4.
 Internal  Forces:  Max     0.002120055 RMS     0.000546029
 Search for a local minimum.
 Step number   5 out of a maximum of   36
 All quantities printed in internal units (Hartrees-Bohrs-Radians)
 Mixed Optimization -- En-DIIS/RFO-DIIS
 Update second derivatives using D2CorX and points    1    2    3    4    5
 DE= -5.74D-05 DEPred=-5.00D-05 R= 1.15D+00
 TightC=F SS=  1.41D+00  RLast= 1.28D-02 DXNew= 8.4853D-01 3.8495D-02
 Trust test= 1.15D+00 RLast= 1.28D-02 DXMaxT set to 5.05D-01
 ITU=  1  1  1  1  0
 Use linear search instead of GDIIS.
     Eigenvalues ---    0.02505   0.02633   0.02679   0.02832   0.15657
     Eigenvalues ---    0.16007   0.24487   0.31259   0.37546   0.47720
     Eigenvalues ---    0.48494   0.51647   0.57758   0.64007   0.78872
 RFO step:  Lambda=-1.96793845D-05 EMin= 2.50515774D-02
 Quartic linear search produced a step of  0.14606.
 Iteration  1 RMS(Cart)=  0.00130538 RMS(Int)=  0.00000147
 Iteration  2 RMS(Cart)=  0.00000145 RMS(Int)=  0.00000056
 Iteration  3 RMS(Cart)=  0.00000000 RMS(Int)=  0.00000056
 ClnCor:  largest displacement from symmetrization is 1.30D-12 for atom     1.
 Variable       Old X    -DE/DX   Delta X   Delta X   Delta X     New X
                                 (Linear)    (Quad)   (Total)
    R1        2.56750  -0.00070  -0.00046  -0.00186  -0.00232   2.56518
    R2        2.50618  -0.00072  -0.00067  -0.00143  -0.00210   2.50408
    R3        2.02790  -0.00002  -0.00001  -0.00002  -0.00003   2.02788
    R4        2.65507   0.00004  -0.00036   0.00058   0.00022   2.65528
    R5        1.91439  -0.00012  -0.00026  -0.00037  -0.00063   1.91376
    R6        2.50405  -0.00212  -0.00085  -0.00321  -0.00407   2.49998
    R7        2.70385   0.00049  -0.00016   0.00166   0.00150   2.70536
    A1        1.92180   0.00064  -0.00017   0.00370   0.00354   1.92533
    A2        2.17075  -0.00022   0.00031  -0.00100  -0.00069   2.17005
    A3        2.19064  -0.00042  -0.00014  -0.00270  -0.00284   2.18780
    A4        1.89514  -0.00066   0.00057  -0.00322  -0.00265   1.89249
    A5        2.29127   0.00043  -0.00011   0.00237   0.00226   2.29353
    A6        2.09678   0.00023  -0.00046   0.00085   0.00039   2.09717
    A7        1.84215   0.00047  -0.00076   0.00207   0.00130   1.84345
    A8        1.92717   0.00020   0.00071  -0.00005   0.00066   1.92782
    A9        1.83853  -0.00065  -0.00035  -0.00250  -0.00285   1.83568
    D1        0.00000   0.00000   0.00000   0.00000   0.00000   0.00000
    D2        3.14159   0.00000   0.00000   0.00000   0.00000   3.14159
    D3        3.14159   0.00000   0.00000   0.00000   0.00000   3.14159
    D4        0.00000   0.00000   0.00000   0.00000   0.00000   0.00000
    D5        0.00000   0.00000   0.00000   0.00000   0.00000   0.00000
    D6        3.14159   0.00000   0.00000   0.00000   0.00000   3.14159
    D7        0.00000   0.00000   0.00000   0.00000   0.00000   0.00000
    D8        3.14159   0.00000   0.00000   0.00000   0.00000   3.14159
    D9        0.00000   0.00000   0.00000   0.00000   0.00000   0.00000
   D10        0.00000   0.00000   0.00000   0.00000   0.00000   0.00000
         Item               Value     Threshold  Converged?
 Maximum Force            0.002120     0.000450     NO 
 RMS     Force            0.000546     0.000300     NO 
 Maximum Displacement     0.003366     0.001800     NO 
 RMS     Displacement     0.001306     0.001200     NO 
 Predicted change in Energy=-1.082559D-05
 GradGradGradGradGradGradGradGradGradGradGradGradGradGradGradGradGradGrad

                          Input orientation:                          
 ---------------------------------------------------------------------
 Center     Atomic      Atomic             Coordinates (Angstroms)
 Number     Number       Type             X           Y           Z
 ---------------------------------------------------------------------
      1          6           0        1.022131    0.005051    0.000000
      2          7           0        0.408062   -1.205545    0.000000
      3          7           0       -0.981747   -0.998714    0.000000
      4          7           0       -1.146579    0.313908    0.000000
      5          7           0        0.121965    0.977469    0.000000
      6          1           0        2.086206    0.143982    0.000000
      7          1           0        0.782419   -2.146533    0.000000
 ---------------------------------------------------------------------
                    Distance matrix (angstroms):
                    1          2          3          4          5
     1  C    0.000000
     2  N    1.357433   0.000000
     3  N    2.241221   1.405115   0.000000
     4  N    2.190592   2.173855   1.322931   0.000000
     5  N    1.325102   2.201682   2.263511   1.431614   0.000000
     6  H    1.073107   2.153461   3.273849   3.237248   2.133762
     7  H    2.164897   1.012720   2.104702   3.126468   3.193054
                    6          7
     6  H    0.000000
     7  H    2.635587   0.000000
 Stoichiometry    CH2N4
 Framework group  CS[SG(CH2N4)]
 Deg. of freedom    11
 Full point group                 CS      NOp   2
 Largest Abelian subgroup         CS      NOp   2
 Largest concise Abelian subgroup C1      NOp   1
                         Standard orientation:                         
 ---------------------------------------------------------------------
 Center     Atomic      Atomic             Coordinates (Angstroms)
 Number     Number       Type             X           Y           Z
 ---------------------------------------------------------------------
      1          6           0        1.078589    0.256101    0.000000
      2          7           0        0.000000    1.080279    0.000000
      3          7           0       -1.162363    0.290811    0.000000
      4          7           0       -0.741234   -0.963301    0.000000
      5          7           0        0.689598   -1.010620    0.000000
      6          1           0        2.097538    0.592705    0.000000
      7          1           0       -0.071086    2.090501    0.000000
 ---------------------------------------------------------------------
 Rotational constants (GHZ):     10.0574614      9.7883431      4.9605388
 Standard basis: 3-21G (6D, 7F)
 There are    39 symmetry adapted cartesian basis functions of A'  symmetry.
 There are    10 symmetry adapted cartesian basis functions of A"  symmetry.
 There are    39 symmetry adapted basis functions of A'  symmetry.
 There are    10 symmetry adapted basis functions of A"  symmetry.
    49 basis functions,    81 primitive gaussians,    49 cartesian basis functions
    18 alpha electrons       18 beta electrons
       nuclear repulsion energy       162.6557857320 Hartrees.
 NAtoms=    7 NActive=    7 NUniq=    7 SFac= 1.00D+00 NAtFMM=   60 NAOKFM=F Big=F
 Integral buffers will be    131072 words long.
 Raffenetti 2 integral format.
 Two-electron integral symmetry is turned on.
 One-electron integrals computed using PRISM.
 NBasis=    49 RedAO= T EigKep=  2.00D-02  NBF=    39    10
 NBsUse=    49 1.00D-06 EigRej= -1.00D+00 NBFU=    39    10
 Initial guess from the checkpoint file:  "/tmp/rdj3/g09-18029/Gau-12888.chk"
 B after Tr=     0.000000    0.000000    0.000000
         Rot=    1.000000    0.000000    0.000000   -0.000123 Ang=  -0.01 deg.
 Initial guess orbital symmetries:
       Occupied  (A') (A') (A') (A') (A') (A') (A') (A') (A') (A')
                 (A') (A") (A') (A') (A") (A") (A') (A')
       Virtual   (A') (A') (A') (A') (A') (A') (A') (A') (A') (A')
                 (A') (A') (A') (A') (A') (A') (A') (A') (A') (A')
                 (A') (A') (A') (A') (A") (A") (A") (A") (A") (A")
                 (A")
 Keep R1 ints in memory in symmetry-blocked form, NReq=1650346.
 Requested convergence on RMS density matrix=1.00D-08 within 128 cycles.
 Requested convergence on MAX density matrix=1.00D-06.
 Requested convergence on             energy=1.00D-06.
 No special actions if energy rises.
 SCF Done:  E(RM062X) =  -256.672523617     A.U. after    9 cycles
            NFock=  9  Conv=0.92D-08     -V/T= 2.0083
 Calling FoFJK, ICntrl=      2127 FMM=F ISym2X=1 I1Cent= 0 IOpClX= 0 NMat=1 NMatS=1 NMatT=0.
 ***** Axes restored to original set *****
 -------------------------------------------------------------------
 Center     Atomic                   Forces (Hartrees/Bohr)
 Number     Number              X              Y              Z
 -------------------------------------------------------------------
      1        6           0.000664364    0.000213705    0.000000000
      2        7           0.000403777   -0.000244347    0.000000000
      3        7          -0.000783842    0.001207248    0.000000000
      4        7          -0.000882093   -0.001458574    0.000000000
      5        7           0.000484422    0.000309208    0.000000000
      6        1           0.000037136    0.000058322    0.000000000
      7        1           0.000076236   -0.000085563    0.000000000
 -------------------------------------------------------------------
 Cartesian Forces:  Max     0.001458574 RMS     0.000536095

 GradGradGradGradGradGradGradGradGradGradGradGradGradGradGradGradGradGrad
 Berny optimization.
 Using GEDIIS/GDIIS optimizer.
 FormGI is forming the generalized inverse of G from B-inverse, IUseBI=4.
 Internal  Forces:  Max     0.001057981 RMS     0.000346177
 Search for a local minimum.
 Step number   6 out of a maximum of   36
 All quantities printed in internal units (Hartrees-Bohrs-Radians)
 Mixed Optimization -- En-DIIS/RFO-DIIS
 Swapping is turned off.
 Update second derivatives using D2CorX and points    1    2    3    4    5
                                                      6
 DE= -1.18D-05 DEPred=-1.08D-05 R= 1.09D+00
 TightC=F SS=  1.41D+00  RLast= 8.52D-03 DXNew= 8.4853D-01 2.5568D-02
 Trust test= 1.09D+00 RLast= 8.52D-03 DXMaxT set to 5.05D-01
 ITU=  1  1  1  1  1  0
     Eigenvalues ---    0.02505   0.02633   0.02680   0.02832   0.14601
     Eigenvalues ---    0.16011   0.20566   0.37536   0.37729   0.43127
     Eigenvalues ---    0.48217   0.49502   0.56116   0.67623   0.84826
 En-DIIS/RFO-DIIS IScMMF=        0 using points:     6    5
 RFO step:  Lambda=-4.42174678D-06.
 DidBck=F Rises=F RFO-DIIS coefs:    1.11538   -0.11538
 Iteration  1 RMS(Cart)=  0.00064025 RMS(Int)=  0.00000015
 Iteration  2 RMS(Cart)=  0.00000009 RMS(Int)=  0.00000012
 ClnCor:  largest displacement from symmetrization is 1.38D-12 for atom     1.
 Variable       Old X    -DE/DX   Delta X   Delta X   Delta X     New X
                                 (Linear)    (Quad)   (Total)
    R1        2.56518   0.00031  -0.00027  -0.00018  -0.00045   2.56473
    R2        2.50408   0.00022  -0.00024  -0.00038  -0.00062   2.50345
    R3        2.02788   0.00005   0.00000   0.00017   0.00017   2.02805
    R4        2.65528   0.00080   0.00002   0.00189   0.00192   2.65720
    R5        1.91376   0.00010  -0.00007   0.00004  -0.00003   1.91373
    R6        2.49998  -0.00106  -0.00047  -0.00227  -0.00273   2.49724
    R7        2.70536   0.00095   0.00017   0.00287   0.00304   2.70840
    A1        1.92533  -0.00038   0.00041  -0.00015   0.00026   1.92560
    A2        2.17005   0.00020  -0.00008   0.00051   0.00043   2.17048
    A3        2.18780   0.00018  -0.00033  -0.00036  -0.00069   2.18711
    A4        1.89249   0.00004  -0.00031   0.00018  -0.00013   1.89236
    A5        2.29353  -0.00001   0.00026   0.00035   0.00061   2.29413
    A6        2.09717  -0.00002   0.00005  -0.00053  -0.00048   2.09669
    A7        1.84345   0.00022   0.00015   0.00011   0.00026   1.84371
    A8        1.92782  -0.00006   0.00008  -0.00008   0.00000   1.92782
    A9        1.83568   0.00019  -0.00033  -0.00007  -0.00039   1.83529
    D1        0.00000   0.00000   0.00000   0.00000   0.00000   0.00000
    D2        3.14159   0.00000   0.00000   0.00000   0.00000   3.14159
    D3        3.14159   0.00000   0.00000   0.00000   0.00000   3.14159
    D4        0.00000   0.00000   0.00000   0.00000   0.00000   0.00000
    D5        0.00000   0.00000   0.00000   0.00000   0.00000   0.00000
    D6        3.14159   0.00000   0.00000   0.00000   0.00000   3.14159
    D7        0.00000   0.00000   0.00000   0.00000   0.00000   0.00000
    D8        3.14159   0.00000   0.00000   0.00000   0.00000   3.14159
    D9        0.00000   0.00000   0.00000   0.00000   0.00000   0.00000
   D10        0.00000   0.00000   0.00000   0.00000   0.00000   0.00000
         Item               Value     Threshold  Converged?
 Maximum Force            0.001058     0.000450     NO 
 RMS     Force            0.000346     0.000300     NO 
 Maximum Displacement     0.001778     0.001800     YES
 RMS     Displacement     0.000640     0.001200     YES
 Predicted change in Energy=-3.439723D-06
 GradGradGradGradGradGradGradGradGradGradGradGradGradGradGradGradGradGrad

                          Input orientation:                          
 ---------------------------------------------------------------------
 Center     Atomic      Atomic             Coordinates (Angstroms)
 Number     Number       Type             X           Y           Z
 ---------------------------------------------------------------------
      1          6           0        1.022362    0.005000    0.000000
      2          7           0        0.408385   -1.205375    0.000000
      3          7           0       -0.982398   -0.998200    0.000000
      4          7           0       -1.147204    0.312967    0.000000
      5          7           0        0.122690    0.977424    0.000000
      6          1           0        2.086469    0.144383    0.000000
      7          1           0        0.782153   -2.146581    0.000000
 ---------------------------------------------------------------------
                    Distance matrix (angstroms):
                    1          2          3          4          5
     1  C    0.000000
     2  N    1.357194   0.000000
     3  N    2.241757   1.406129   0.000000
     4  N    2.191315   2.173757   1.321484   0.000000
     5  N    1.324771   2.201416   2.263694   1.433225   0.000000
     6  H    1.073197   2.153559   3.274667   3.238065   2.133163
     7  H    2.164948   1.012705   2.105331   3.125986   3.192851
                    6          7
     6  H    0.000000
     7  H    2.636239   0.000000
 Stoichiometry    CH2N4
 Framework group  CS[SG(CH2N4)]
 Deg. of freedom    11
 Full point group                 CS      NOp   2
 Largest Abelian subgroup         CS      NOp   2
 Largest concise Abelian subgroup C1      NOp   1
                         Standard orientation:                         
 ---------------------------------------------------------------------
 Center     Atomic      Atomic             Coordinates (Angstroms)
 Number     Number       Type             X           Y           Z
 ---------------------------------------------------------------------
      1          6           0        1.078712    0.256593    0.000000
      2          7           0        0.000000    1.080217    0.000000
      3          7           0       -1.162802    0.289591    0.000000
      4          7           0       -0.741822   -0.963044    0.000000
      5          7           0        0.690631   -1.010061    0.000000
      6          1           0        2.097762    0.593175    0.000000
      7          1           0       -0.072080    2.090353    0.000000
 ---------------------------------------------------------------------
 Rotational constants (GHZ):     10.0628112      9.7796390      4.9596022
 Standard basis: 3-21G (6D, 7F)
 There are    39 symmetry adapted cartesian basis functions of A'  symmetry.
 There are    10 symmetry adapted cartesian basis functions of A"  symmetry.
 There are    39 symmetry adapted basis functions of A'  symmetry.
 There are    10 symmetry adapted basis functions of A"  symmetry.
    49 basis functions,    81 primitive gaussians,    49 cartesian basis functions
    18 alpha electrons       18 beta electrons
       nuclear repulsion energy       162.6452578747 Hartrees.
 NAtoms=    7 NActive=    7 NUniq=    7 SFac= 1.00D+00 NAtFMM=   60 NAOKFM=F Big=F
 Integral buffers will be    131072 words long.
 Raffenetti 2 integral format.
 Two-electron integral symmetry is turned on.
 One-electron integrals computed using PRISM.
 NBasis=    49 RedAO= T EigKep=  2.01D-02  NBF=    39    10
 NBsUse=    49 1.00D-06 EigRej= -1.00D+00 NBFU=    39    10
 Initial guess from the checkpoint file:  "/tmp/rdj3/g09-18029/Gau-12888.chk"
 B after Tr=     0.000000    0.000000    0.000000
         Rot=    1.000000    0.000000    0.000000   -0.000193 Ang=  -0.02 deg.
 Initial guess orbital symmetries:
       Occupied  (A') (A') (A') (A') (A') (A') (A') (A') (A') (A')
                 (A') (A") (A') (A') (A") (A") (A') (A')
       Virtual   (A') (A') (A') (A') (A') (A') (A') (A') (A') (A')
                 (A') (A') (A') (A') (A') (A') (A') (A') (A') (A')
                 (A') (A') (A') (A') (A") (A") (A") (A") (A") (A")
                 (A")
 Keep R1 ints in memory in symmetry-blocked form, NReq=1650346.
 Requested convergence on RMS density matrix=1.00D-08 within 128 cycles.
 Requested convergence on MAX density matrix=1.00D-06.
 Requested convergence on             energy=1.00D-06.
 No special actions if energy rises.
 SCF Done:  E(RM062X) =  -256.672528000     A.U. after   10 cycles
            NFock= 10  Conv=0.32D-08     -V/T= 2.0083
 Calling FoFJK, ICntrl=      2127 FMM=F ISym2X=1 I1Cent= 0 IOpClX= 0 NMat=1 NMatS=1 NMatT=0.
 ***** Axes restored to original set *****
 -------------------------------------------------------------------
 Center     Atomic                   Forces (Hartrees/Bohr)
 Number     Number              X              Y              Z
 -------------------------------------------------------------------
      1        6           0.000602561    0.000295811    0.000000000
      2        7           0.000049967   -0.000660338    0.000000000
      3        7          -0.000260063    0.000584440    0.000000000
      4        7          -0.000448733   -0.000596902    0.000000000
      5        7          -0.000041372    0.000455269    0.000000000
      6        1          -0.000013291    0.000001023    0.000000000
      7        1           0.000110932   -0.000079304    0.000000000
 -------------------------------------------------------------------
 Cartesian Forces:  Max     0.000660338 RMS     0.000315001

 GradGradGradGradGradGradGradGradGradGradGradGradGradGradGradGradGradGrad
 Berny optimization.
 Using GEDIIS/GDIIS optimizer.
 FormGI is forming the generalized inverse of G from B-inverse, IUseBI=4.
 Internal  Forces:  Max     0.000549329 RMS     0.000205563
 Search for a local minimum.
 Step number   7 out of a maximum of   36
 All quantities printed in internal units (Hartrees-Bohrs-Radians)
 Mixed Optimization -- En-DIIS/RFO-DIIS
 Swapping is turned off.
 Update second derivatives using D2CorX and points    1    2    3    4    5
                                                      6    7
 DE= -4.38D-06 DEPred=-3.44D-06 R= 1.27D+00
 TightC=F SS=  1.41D+00  RLast= 4.75D-03 DXNew= 8.4853D-01 1.4264D-02
 Trust test= 1.27D+00 RLast= 4.75D-03 DXMaxT set to 5.05D-01
 ITU=  1  1  1  1  1  1  0
     Eigenvalues ---    0.02505   0.02633   0.02680   0.02832   0.13563
     Eigenvalues ---    0.16023   0.17503   0.37316   0.37837   0.42844
     Eigenvalues ---    0.48094   0.49178   0.54931   0.69723   0.78729
 En-DIIS/RFO-DIIS IScMMF=        0 using points:     7    6    5
 RFO step:  Lambda=-1.67960057D-06.
 DidBck=F Rises=F RFO-DIIS coefs:    1.53802   -0.55489    0.01687
 Iteration  1 RMS(Cart)=  0.00048930 RMS(Int)=  0.00000016
 Iteration  2 RMS(Cart)=  0.00000013 RMS(Int)=  0.00000008
 ClnCor:  largest displacement from symmetrization is 2.16D-13 for atom     1.
 Variable       Old X    -DE/DX   Delta X   Delta X   Delta X     New X
                                 (Linear)    (Quad)   (Total)
    R1        2.56473   0.00055  -0.00020   0.00097   0.00077   2.56549
    R2        2.50345   0.00045  -0.00030   0.00056   0.00026   2.50371
    R3        2.02805  -0.00001   0.00009  -0.00007   0.00002   2.02807
    R4        2.65720   0.00036   0.00103   0.00037   0.00139   2.65859
    R5        1.91373   0.00011  -0.00001   0.00014   0.00013   1.91387
    R6        2.49724  -0.00035  -0.00140  -0.00051  -0.00191   2.49533
    R7        2.70840   0.00042   0.00161   0.00055   0.00216   2.71057
    A1        1.92560  -0.00014   0.00008   0.00028   0.00036   1.92596
    A2        2.17048   0.00003   0.00024  -0.00041  -0.00016   2.17032
    A3        2.18711   0.00011  -0.00032   0.00013  -0.00020   2.18691
    A4        1.89236  -0.00016  -0.00002  -0.00067  -0.00070   1.89166
    A5        2.29413   0.00005   0.00029   0.00018   0.00047   2.29460
    A6        2.09669   0.00011  -0.00026   0.00049   0.00023   2.09692
    A7        1.84371   0.00027   0.00012   0.00060   0.00071   1.84442
    A8        1.92782   0.00002  -0.00001   0.00014   0.00013   1.92795
    A9        1.83529   0.00001  -0.00016  -0.00034  -0.00051   1.83478
    D1        0.00000   0.00000   0.00000   0.00000   0.00000   0.00000
    D2        3.14159   0.00000   0.00000   0.00000   0.00000   3.14159
[...]
 XXXX=           -145.3807 YYYY=           -118.9710 ZZZZ=            -23.5747 XXXY=              7.3679
 XXXZ=              0.0000 YYYX=             -1.1849 YYYZ=              0.0000 ZZZX=              0.0000
 ZZZY=              0.0000 XXYY=            -54.5550 XXZZ=            -30.7194 YYZZ=            -28.6781
 XXYZ=              0.0000 YYXZ=              0.0000 ZZXY=             -0.3304
 N-N= 1.626152686617D+02 E-N=-9.230603726873D+02  KE= 2.545663311149D+02
 Symmetry A'   KE= 2.454686737352D+02
 Symmetry A"   KE= 9.097657379700D+00
  Exact polarizability:  34.221   1.183  34.132   0.000   0.000  11.163
 Approx polarizability:  51.224  -0.188  56.991   0.000   0.000  11.967
 Calling FoFJK, ICntrl=    100127 FMM=F ISym2X=1 I1Cent= 0 IOpClX= 0 NMat=1 NMatS=1 NMatT=0.
 Full mass-weighted force constant matrix:
 Low frequencies ---  -37.1486  -34.6036  -18.1879    0.0005    0.0007    0.0015
 Low frequencies ---  658.5438  689.3846  701.9020
 Diagonal vibrational polarizability:
        1.4917076       1.3406047      10.8848658
 Harmonic frequencies (cm**-1), IR intensities (KM/Mole), Raman scattering
 activities (A**4/AMU), depolarization ratios for plane and unpolarized
 incident light, reduced masses (AMU), force constants (mDyne/A),
 and normal coordinates:
                      1                      2                      3
                     A"                     A"                     A"
 Frequencies --    658.5389               689.3750               701.8995
 Red. masses --      3.4414                 1.2643                 7.6178
 Frc consts  --      0.8793                 0.3540                 2.2112
 IR Inten    --     75.5016                87.0909                16.1158
  Atom  AN      X      Y      Z        X      Y      Z        X      Y      Z
     1   6     0.00   0.00  -0.17     0.00   0.00   0.10     0.00   0.00  -0.19
     2   7     0.00   0.00   0.33     0.00   0.00   0.00     0.00   0.00  -0.01
     3   7     0.00   0.00  -0.22     0.00   0.00   0.06     0.00   0.00   0.32
     4   7     0.00   0.00   0.06     0.00   0.00   0.00     0.00   0.00  -0.47
     5   7     0.00   0.00   0.07     0.00   0.00  -0.09     0.00   0.00   0.39
     6   1     0.00   0.00  -0.64     0.00   0.00   0.22     0.00   0.00  -0.46
     7   1     0.00   0.00  -0.63     0.00   0.00  -0.96     0.00   0.00  -0.52
                      4                      5                      6
                     A'                     A'                     A"
 Frequencies --    829.4687               922.8632               955.1390
 Red. masses --     10.3618                 5.6200                 1.3855
 Frc consts  --      4.2003                 2.8201                 0.7447
 IR Inten    --      9.9831                15.9631                13.1427
  Atom  AN      X      Y      Z        X      Y      Z        X      Y      Z
     1   6    -0.05   0.10   0.00    -0.03   0.02   0.00     0.00   0.00   0.18
     2   7     0.10   0.03   0.00     0.28   0.26   0.00     0.00   0.00  -0.04
     3   7     0.05  -0.04   0.00    -0.34  -0.29   0.00     0.00   0.00   0.00
     4   7     0.51  -0.17   0.00    -0.02   0.04   0.00     0.00   0.00  -0.01
     5   7    -0.63   0.12   0.00     0.06  -0.02   0.00     0.00   0.00  -0.03
     6   1     0.14  -0.51   0.00     0.14  -0.44   0.00     0.00   0.00  -0.98
     7   1     0.05   0.03   0.00     0.59   0.30   0.00     0.00   0.00   0.03
                      7                      8                      9
                     A'                     A'                     A'
 Frequencies --   1000.9785              1027.9427              1125.5524
 Red. masses --      5.1857                 6.3450                 3.4483
 Frc consts  --      3.0613                 3.9502                 2.5739
 IR Inten    --      8.9021                 8.9719                 7.3542
  Atom  AN      X      Y      Z        X      Y      Z        X      Y      Z
     1   6     0.24   0.09   0.00    -0.26  -0.04   0.00    -0.08   0.11   0.00
     2   7     0.09  -0.02   0.00    -0.05   0.41   0.00     0.12   0.00   0.00
     3   7     0.14  -0.19   0.00     0.35  -0.07   0.00    -0.01   0.16   0.00
     4   7    -0.31  -0.12   0.00    -0.06  -0.12   0.00    -0.10  -0.34   0.00
     5   7    -0.11   0.28   0.00     0.03  -0.18   0.00     0.02   0.04   0.00
     6   1     0.41  -0.35   0.00    -0.16  -0.41   0.00    -0.21   0.49   0.00
     7   1    -0.61  -0.07   0.00    -0.47   0.40   0.00     0.72   0.05   0.00
                     10                     11                     12
                     A'                     A'                     A'
 Frequencies --   1177.0812              1243.5938              1393.0437
 Red. masses --      2.7149                 2.2636                 2.7364
 Frc consts  --      2.2162                 2.0625                 3.1286
 IR Inten    --     11.0931                 6.4921                 6.0949
  Atom  AN      X      Y      Z        X      Y      Z        X      Y      Z
     1   6     0.15  -0.09   0.00     0.19   0.08   0.00    -0.15   0.26   0.00
     2   7    -0.12   0.10   0.00     0.03   0.09   0.00     0.14  -0.13   0.00
     3   7    -0.14   0.18   0.00    -0.07   0.02   0.00    -0.03   0.07   0.00
     4   7     0.05  -0.16   0.00    -0.01  -0.03   0.00    -0.01   0.01   0.00
     5   7     0.08   0.01   0.00    -0.08  -0.20   0.00     0.06  -0.11   0.00
     6   1     0.40  -0.78   0.00    -0.01   0.75   0.00     0.14  -0.62   0.00
     7   1    -0.28   0.10   0.00    -0.58   0.06   0.00    -0.63  -0.21   0.00
                     13                     14                     15
                     A'                     A'                     A'
 Frequencies --   1467.5315              3346.1483              3620.2697
 Red. masses --      2.3413                 1.1007                 1.0851
 Frc consts  --      2.9708                 7.2615                 8.3789
 IR Inten    --     46.2792                 5.8766               150.1245
  Atom  AN      X      Y      Z        X      Y      Z        X      Y      Z
     1   6    -0.11  -0.21   0.00     0.09   0.03   0.00     0.01   0.00   0.00
     2   7     0.16   0.01   0.00     0.00   0.00   0.00    -0.01   0.08   0.00
     3   7    -0.06   0.05   0.00     0.00   0.00   0.00     0.00   0.00   0.00
     4   7     0.04  -0.03   0.00     0.00   0.00   0.00     0.00   0.00   0.00
     5   7     0.04   0.14   0.00     0.00   0.00   0.00     0.00   0.00   0.00
     6   1    -0.33   0.33   0.00    -0.94  -0.32   0.00    -0.03  -0.01   0.00
     7   1    -0.82  -0.07   0.00     0.00   0.03   0.00     0.07  -0.99   0.00

 -------------------
 - Thermochemistry -
 -------------------
 Temperature   298.150 Kelvin.  Pressure   1.00000 Atm.
 Atom     1 has atomic number  6 and mass  12.00000
 Atom     2 has atomic number  7 and mass  14.00307
 Atom     3 has atomic number  7 and mass  14.00307
 Atom     4 has atomic number  7 and mass  14.00307
 Atom     5 has atomic number  7 and mass  14.00307
 Atom     6 has atomic number  1 and mass   1.00783
 Atom     7 has atomic number  1 and mass   1.00783
 Molecular mass:    70.02795 amu.
 Principal axes and moments of inertia in atomic units:
                           1         2         3
     Eigenvalues --   179.38308 184.65780 364.04088
           X            0.99644   0.08431   0.00000
           Y           -0.08431   0.99644   0.00000
           Z            0.00000   0.00000   1.00000
 This molecule is an asymmetric top.
 Rotational symmetry number  1.
 Rotational temperatures (Kelvin)      0.48284     0.46905     0.23792
 Rotational constants (GHZ):          10.06082     9.77344     4.95752
 Zero-point vibrational energy     120580.1 (Joules/Mol)
                                   28.81935 (Kcal/Mol)
 Vibrational temperatures:    947.49   991.86  1009.88  1193.42  1327.79
          (Kelvin)           1374.23  1440.18  1478.98  1619.42  1693.56
                             1789.25  2004.28  2111.45  4814.36  5208.75
 
 Zero-point correction=                           0.045927 (Hartree/Particle)
 Thermal correction to Energy=                    0.049420
 Thermal correction to Enthalpy=                  0.050364
 Thermal correction to Gibbs Free Energy=         0.019761
 Sum of electronic and zero-point Energies=           -256.626603
 Sum of electronic and thermal Energies=              -256.623110
 Sum of electronic and thermal Enthalpies=            -256.622165
 Sum of electronic and thermal Free Energies=         -256.652769
 
                     E (Thermal)             CV                S
                      KCal/Mol        Cal/Mol-Kelvin    Cal/Mol-Kelvin
 Total                   31.012             11.623             64.411
 Electronic               0.000              0.000              0.000
 Translational            0.889              2.981             38.656
 Rotational               0.889              2.981             24.004
 Vibrational             29.234              5.661              1.751
                       Q            Log10(Q)             Ln(Q)
 Total Bot       0.814307D-09         -9.089212        -20.928684
 Total V=0       0.108515D+13         12.035491         27.712741
 Vib (Bot)       0.899352D-21        -21.046070        -48.460367
 Vib (V=0)       0.119848D+01          0.078632          0.181057
 Electronic      0.100000D+01          0.000000          0.000000
 Translational   0.230336D+08          7.362362         16.952466
 Rotational      0.393094D+05          4.594496         10.579218
 ***** Axes restored to original set *****
 -------------------------------------------------------------------
 Center     Atomic                   Forces (Hartrees/Bohr)
 Number     Number              X              Y              Z
 -------------------------------------------------------------------
      1        6           0.000238853    0.000208198    0.000000000
      2        7          -0.000115869   -0.000256228    0.000000000
      3        7           0.000010778    0.000022963    0.000000000
      4        7          -0.000099370   -0.000078336    0.000000000
      5        7          -0.000100627    0.000117377    0.000000000
      6        1          -0.000015545    0.000000137    0.000000000
      7        1           0.000081779   -0.000014111    0.000000000
 -------------------------------------------------------------------
 Cartesian Forces:  Max     0.000256228 RMS     0.000104006
 FormGI is forming the generalized inverse of G from B-inverse, IUseBI=4.

 GradGradGradGradGradGradGradGradGradGradGradGradGradGradGradGradGradGrad
 Berny optimization.
 Internal  Forces:  Max     0.000253448 RMS     0.000064786
 Search for a local minimum.
 Step number   1 out of a maximum of    2
 All quantities printed in internal units (Hartrees-Bohrs-Radians)
 Second derivative matrix not updated -- analytic derivatives used.
 ITU=  0
     Eigenvalues ---    0.01087   0.03006   0.07351   0.07717   0.10168
     Eigenvalues ---    0.10650   0.14234   0.18588   0.31341   0.36230
     Eigenvalues ---    0.39338   0.44180   0.46768   0.54882   0.62016
 Angle between quadratic step and forces=  37.49 degrees.
 Linear search not attempted -- first point.
 Iteration  1 RMS(Cart)=  0.00018509 RMS(Int)=  0.00000004
 Iteration  2 RMS(Cart)=  0.00000004 RMS(Int)=  0.00000000
 ClnCor:  largest displacement from symmetrization is 4.60D-13 for atom     4.
 Variable       Old X    -DE/DX   Delta X   Delta X   Delta X     New X
                                 (Linear)    (Quad)   (Total)
    R1        2.56549   0.00025   0.00000   0.00071   0.00071   2.56620
    R2        2.50371   0.00015   0.00000   0.00013   0.00013   2.50385
    R3        2.02807  -0.00001   0.00000  -0.00003  -0.00003   2.02804
    R4        2.65859   0.00003   0.00000  -0.00010  -0.00010   2.65849
    R5        1.91387   0.00004   0.00000   0.00009   0.00009   1.91395
    R6        2.49533   0.00000   0.00000  -0.00015  -0.00015   2.49518
    R7        2.71057   0.00008   0.00000   0.00040   0.00040   2.71096
    A1        1.92596  -0.00005   0.00000  -0.00011  -0.00011   1.92584
    A2        2.17032  -0.00002   0.00000  -0.00043  -0.00043   2.16989
    A3        2.18691   0.00007   0.00000   0.00055   0.00055   2.18746
    A4        1.89166  -0.00004   0.00000  -0.00009  -0.00009   1.89157
    A5        2.29460  -0.00001   0.00000  -0.00023  -0.00023   2.29437
    A6        2.09692   0.00004   0.00000   0.00032   0.00032   2.09724
    A7        1.84442   0.00006   0.00000   0.00022   0.00022   1.84465
    A8        1.92795   0.00002   0.00000   0.00000   0.00000   1.92795
    A9        1.83478   0.00000   0.00000  -0.00001  -0.00001   1.83477
    D1        0.00000   0.00000   0.00000   0.00000   0.00000   0.00000
    D2        3.14159   0.00000   0.00000   0.00000   0.00000   3.14159
    D3        3.14159   0.00000   0.00000   0.00000   0.00000   3.14159
    D4        0.00000   0.00000   0.00000   0.00000   0.00000   0.00000
    D5        0.00000   0.00000   0.00000   0.00000   0.00000   0.00000
    D6        3.14159   0.00000   0.00000   0.00000   0.00000   3.14159
    D7        0.00000   0.00000   0.00000   0.00000   0.00000   0.00000
    D8        3.14159   0.00000   0.00000   0.00000   0.00000   3.14159
    D9        0.00000   0.00000   0.00000   0.00000   0.00000   0.00000
   D10        0.00000   0.00000   0.00000   0.00000   0.00000   0.00000
         Item               Value     Threshold  Converged?
 Maximum Force            0.000253     0.000450     YES
 RMS     Force            0.000065     0.000300     YES
 Maximum Displacement     0.000446     0.001800     YES
 RMS     Displacement     0.000185     0.001200     YES
 Predicted change in Energy=-1.567005D-07
 Optimization completed.
    -- Stationary point found.
                           ----------------------------
                           !   Optimized Parameters   !
                           ! (Angstroms and Degrees)  !
 --------------------------                            --------------------------
 ! Name  Definition              Value          Derivative Info.                !
 --------------------------------------------------------------------------------
 ! R1    R(1,2)                  1.3576         -DE/DX =    0.0003              !
 ! R2    R(1,5)                  1.3249         -DE/DX =    0.0001              !
 ! R3    R(1,6)                  1.0732         -DE/DX =    0.0                 !
 ! R4    R(2,3)                  1.4069         -DE/DX =    0.0                 !
 ! R5    R(2,7)                  1.0128         -DE/DX =    0.0                 !
 ! R6    R(3,4)                  1.3205         -DE/DX =    0.0                 !
 ! R7    R(4,5)                  1.4344         -DE/DX =    0.0001              !
 ! A1    A(2,1,5)              110.3491         -DE/DX =    0.0                 !
 ! A2    A(2,1,6)              124.3501         -DE/DX =    0.0                 !
 ! A3    A(5,1,6)              125.3008         -DE/DX =    0.0001              !
 ! A4    A(1,2,3)              108.3844         -DE/DX =    0.0                 !
 ! A5    A(1,2,7)              131.4711         -DE/DX =    0.0                 !
 ! A6    A(3,2,7)              120.1445         -DE/DX =    0.0                 !
 ! A7    A(2,3,4)              105.6776         -DE/DX =    0.0001              !
 ! A8    A(3,4,5)              110.4636         -DE/DX =    0.0                 !
 ! A9    A(1,5,4)              105.1253         -DE/DX =    0.0                 !
 ! D1    D(5,1,2,3)              0.0            -DE/DX =    0.0                 !
 ! D2    D(5,1,2,7)            180.0            -DE/DX =    0.0                 !
 ! D3    D(6,1,2,3)            180.0            -DE/DX =    0.0                 !
 ! D4    D(6,1,2,7)              0.0            -DE/DX =    0.0                 !
 ! D5    D(2,1,5,4)              0.0            -DE/DX =    0.0                 !
 ! D6    D(6,1,5,4)            180.0            -DE/DX =    0.0                 !
 ! D7    D(1,2,3,4)              0.0            -DE/DX =    0.0                 !
 ! D8    D(7,2,3,4)            180.0            -DE/DX =    0.0                 !
 ! D9    D(2,3,4,5)              0.0            -DE/DX =    0.0                 !
 ! D10   D(3,4,5,1)              0.0            -DE/DX =    0.0                 !
 --------------------------------------------------------------------------------
 GradGradGradGradGradGradGradGradGradGradGradGradGradGradGradGradGradGrad

 1\1\GINC-N963\Freq\RM062X\3-21G\C1H2N4\RDJ3\16-Dec-2013\0\\#N Geom=All
 Check Guess=TCheck SCRF=Check GenChk RM062X/3-21G Freq\\1H-tetrazole C
 H2N4 casno=288948 state=1 config=1 method=58 basis=2\\0,1\C,1.02255821
 74,0.0051706583,0.\N,0.4086225126,-1.2056808838,0.\N,-0.982783292,-0.9
 976866619,0.\N,-1.1477262722,0.3124422846,0.\N,0.1229615976,0.97785170
 95,0.\H,2.0866736952,0.1445799738,0.\H,0.7821503294,-2.1470584346,0.\\
 Version=EM64L-G09RevD.01\State=1-A'\HF=-256.6725296\RMSD=1.416e-09\RMS
 F=1.040e-04\ZeroPoint=0.0459266\Thermal=0.0494201\Dipole=1.7544141,-1.
 3411192,0.\DipoleDeriv=0.1718733,0.0799439,0.,-0.1506558,0.3516219,0.,
 0.,0.,0.1100775,-0.3786817,0.2440911,0.,0.2339341,-0.4798109,0.,0.,0.,
 -0.2987063,0.17227,-0.276555,0.,-0.2451098,-0.1084352,0.,0.,0.,-0.0583
 527,0.1791864,0.0118018,0.,0.1164059,-0.1134242,0.,0.,0.,-0.1526768,-0
 .4854849,-0.0260416,0.,0.0660764,-0.1403395,0.,0.,0.,-0.2116572,0.0995
 863,-0.0031524,0.,0.0221274,0.1400866,0.,0.,0.,0.1915302,0.2412506,-0.
 030088,0.,-0.0427782,0.3503013,0.,0.,0.,0.4197852\Polar=35.1303135,-0.
 7016581,33.2227054,0.,0.,11.1631921\PG=CS [SG(C1H2N4)]\NImag=0\\0.9577
 3689,0.01530822,0.55751754,0.,0.,0.16428241,-0.15890996,-0.05669890,0.
 ,0.49725056,-0.08764888,-0.25338160,0.,-0.12254387,0.96745328,0.,0.,-0
 .07574505,0.,0.,0.10810380,-0.09652201,-0.09023092,0.,-0.15018007,-0.0
 3358345,0.,0.36194722,-0.00291919,-0.02995932,0.,0.00515562,-0.0915227
 2,0.,0.08281613,0.46646593,0.,0.,0.02237796,0.,0.,-0.06717480,0.,0.,0.
 10382019,-0.12704714,0.07030047,0.,-0.08294958,0.02938080,0.,-0.088588
 72,-0.01751559,0.,0.40922259,-0.02190926,0.02222335,0.,0.10454072,-0.0
 9852247,0.,0.04772703,-0.24526659,0.,-0.10998909,0.38991482,0.,0.,0.01
 694008,0.,0.,0.02366724,0.,0.,-0.08660780,0.,0.,0.11023314,-0.21708851
 ,0.11805803,0.,0.01634036,0.08574830,0.,-0.03115842,-0.10350322,0.,-0.
 10011000,-0.02316979,0.,0.34593778,0.11943048,-0.23510630,0.,-0.027350
 93,-0.11339463,0.,-0.00440006,-0.09641286,0.,0.02740904,-0.07023520,0.
 ,-0.10175948,0.50943755,0.,0.,-0.08320447,0.,0.,0.02505871,0.,0.,0.030
 74566,0.,0.,-0.08059320,0.,0.,0.10393320,-0.37445403,-0.04200100,0.,-0
 .00263575,0.00277104,0.,0.00203654,0.00265395,0.,0.00002085,0.00007840
 ,0.,-0.01134720,-0.00459514,0.,0.38681258,-0.03876027,-0.05525069,0.,-
 0.03516545,-0.00169948,0.,0.00012044,-0.00674412,0.,0.00566107,-0.0022
 2292,0.,0.02604281,0.00751759,0.,0.04187859,0.05882895,0.,0.,-0.039152
 22,0.,0.,0.00080866,0.,0.,0.00530153,0.,0.,0.00954140,0.,0.,-0.0030066
 7,0.,0.,0.02771762,0.01628475,-0.01473590,0.,-0.11891556,0.12587606,0.
 ,0.00246546,0.03331229,0.,-0.01054800,0.00272199,0.,-0.00257401,-0.008
 73391,0.,-0.00043298,0.00022280,0.,0.11372033,0.01649889,-0.00604297,0
 .,0.13206281,-0.40893238,0.,-0.00244917,0.00343968,0.,-0.00524671,0.00
 410902,0.,-0.00141665,-0.00180615,0.,-0.00078585,-0.00042933,0.,-0.138
 66332,0.40966214,0.,0.,-0.00549871,0.,0.,-0.01471857,0.,0.,-0.00846274
 ,0.,0.,0.00681914,0.,0.,0.00706677,0.,0.,-0.00121033,0.,0.,0.01600443\
 \-0.00023885,-0.00020820,0.,0.00011587,0.00025623,0.,-0.00001078,-0.00
 002296,0.,0.00009937,0.00007834,0.,0.00010063,-0.00011738,0.,0.0000155
 4,-0.00000014,0.,-0.00008178,0.00001411,0.\\\@


 E PUR SI MUOVE    -- GALILEO GALILEI
 Job cpu time:       0 days  0 hours  0 minutes 35.3 seconds.
 File lengths (MBytes):  RWF=      5 Int=      0 D2E=      0 Chk=      1 Scr=      1
 Normal termination of Gaussian 09 at Mon Dec 16 15:51:50 2013.
