 Entering Gaussian System, Link 0=g09
 Initial command:
 /usr/local/gaussian/g09.d01.em64t.legacy.linda/g09/l1.exe "/tmp/rdj3/g09-23219/Gau-11947.inp" -scrdir="/tmp/rdj3/g09-23219/"
 Entering Link 1 = /usr/local/gaussian/g09.d01.em64t.legacy.linda/g09/l1.exe PID=     11948.
  
 Copyright (c) 1988,1990,1992,1993,1995,1998,2003,2009,2013,
            Gaussian, Inc.  All Rights Reserved.
  
 This is part of the Gaussian(R) 09 program.  It is based on
 the Gaussian(R) 03 system (copyright 2003, Gaussian, Inc.),
 the Gaussian(R) 98 system (copyright 1998, Gaussian, Inc.),
 the Gaussian(R) 94 system (copyright 1995, Gaussian, Inc.),
 the Gaussian 92(TM) system (copyright 1992, Gaussian, Inc.),
 the Gaussian 90(TM) system (copyright 1990, Gaussian, Inc.),
 the Gaussian 88(TM) system (copyright 1988, Gaussian, Inc.),
 the Gaussian 86(TM) system (copyright 1986, Carnegie Mellon
 University), and the Gaussian 82(TM) system (copyright 1983,
 Carnegie Mellon University). Gaussian is a federally registered
 trademark of Gaussian, Inc.
  
 This software contains proprietary and confidential information,
 including trade secrets, belonging to Gaussian, Inc.
  
 This software is provided under written license and may be
 used, copied, transmitted, or stored only in accord with that
 written license.
  
 The following legend is applicable only to US Government
 contracts under FAR:
  
                    RESTRICTED RIGHTS LEGEND
  
 Use, reproduction and disclosure by the US Government is
 subject to restrictions as set forth in subparagraphs (a)
 and (c) of the Commercial Computer Software - Restricted
 Rights clause in FAR 52.227-19.
  
 Gaussian, Inc.
 340 Quinnipiac St., Bldg. 40, Wallingford CT 06492
  
  
 ---------------------------------------------------------------
 Warning -- This program may not be used in any manner that
 competes with the business of Gaussian, Inc. or will provide
 assistance to any competitor of Gaussian, Inc.  The licensee
 of this program is prohibited from giving any competitor of
 Gaussian, Inc. access to this program.  By using this program,
 the user acknowledges that Gaussian, Inc. is engaged in the
 business of creating and licensing software in the field of
 computational chemistry and represents and warrants to the
 licensee that it is not a competitor of Gaussian, Inc. and that
 it will not use this program in any manner prohibited above.
 ---------------------------------------------------------------
  

 Cite this work as:
 Gaussian 09, Revision D.01,
 M. J. Frisch, G. W. Trucks, H. B. Schlegel, G. E. Scuseria, 
 M. A. Robb, J. R. Cheeseman, G. Scalmani, V. Barone, B. Mennucci, 
 G. A. Petersson, H. Nakatsuji, M. Caricato, X. Li, H. P. Hratchian, 
 A. F. Izmaylov, J. Bloino, G. Zheng, J. L. Sonnenberg, M. Hada, 
 M. Ehara, K. Toyota, R. Fukuda, J. Hasegawa, M. Ishida, T. Nakajima, 
 Y. Honda, O. Kitao, H. Nakai, T. Vreven, J. A. Montgomery, Jr., 
 J. E. Peralta, F. Ogliaro, M. Bearpark, J. J. Heyd, E. Brothers, 
 K. N. Kudin, V. N. Staroverov, T. Keith, R. Kobayashi, J. Normand, 
 K. Raghavachari, A. Rendell, J. C. Burant, S. S. Iyengar, J. Tomasi, 
 M. Cossi, N. Rega, J. M. Millam, M. Klene, J. E. Knox, J. B. Cross, 
 V. Bakken, C. Adamo, J. Jaramillo, R. Gomperts, R. E. Stratmann, 
 O. Yazyev, A. J. Austin, R. Cammi, C. Pomelli, J. W. Ochterski, 
 R. L. Martin, K. Morokuma, V. G. Zakrzewski, G. A. Voth, 
 P. Salvador, J. J. Dannenberg, S. Dapprich, A. D. Daniels, 
 O. Farkas, J. B. Foresman, J. V. Ortiz, J. Cioslowski, 
 and D. J. Fox, Gaussian, Inc., Wallingford CT, 2013.
 
 ******************************************
 Gaussian 09:  EM64L-G09RevD.01 24-Apr-2013
                26-Nov-2013 
 ******************************************
 %Nproc=8
 Will use up to    8 processors via shared memory.
 %mem=436000000
 ------------------------------------
 #M062X/aug-cc-pVTZ opt=z-matrix freq
 ------------------------------------
 1/10=7,14=-1,18=40,26=3,38=1/1,3;
 2/12=2,17=6,18=5,29=3,40=1/2;
 3/5=16,6=1,7=10,11=2,16=1,25=1,30=1,71=1,74=-55/1,2,3;
 4//1;
 5/5=2,38=5/2;
 6/7=2,8=2,9=2,10=2,28=1/1;
 7/29=1/1,2,3,16;
 1/10=7,14=-1,18=40,26=3/3(2);
 2/29=3/2;
 99//99;
 2/29=3/2;
 3/5=16,6=1,7=10,11=2,16=1,25=1,30=1,71=1,74=-55/1,2,3;
 4/5=5,16=3,69=1/1;
 5/5=2,38=5/2;
 7//1,2,3,16;
 1/14=-1,18=40,26=3/3(-5);
 2/29=3/2;
 6/7=2,8=2,9=2,10=2,19=2,28=1/1;
 99/9=1/99;
 -------------------------------------------------------------------
 1H-tetrazole CH2N4 casno=288948 state=1 config=1 method=58 basis=18
 -------------------------------------------------------------------
 Symbolic Z-matrix:
 Charge =  0 Multiplicity = 1
 X
 X                    1     1. 
 C                    1     1.       2     90. 
 N                    1    rn1      2     90.      3    an1      0
 N                    1    rn2      2     90.      3    an2      0
 N                    1    rn3      2     90.      3    an3      0
 N                    1    rn4      2     90.      3    an4      0
 H                    3    rch      4    ach      5     180.     0
 H                    4    rnh      5    anh      6     180.     0
       Variables:
  rn1                   1.2426                   
  rn2                   1.333                    
  rn3                   1.1146                   
  rn4                   0.9264                   
  rch                   1.0678                   
  rnh                   0.9941                   
  an1                  71.8427                   
  an2                 133.7028                   
  an3                 194.4597                   
  an4                 276.0768                   
  ach                 125.0248                   
  anh                 120.7626                   
 

 GradGradGradGradGradGradGradGradGradGradGradGradGradGradGradGradGradGrad
 Berny optimization.
 Initialization pass.
                       ----------------------------
                       !    Initial Parameters    !
                       ! (Angstroms and Degrees)  !
 ----------------------                            ----------------------
 !      Name          Value   Derivative information (Atomic Units)     !
 ------------------------------------------------------------------------
 !       rn1         1.2426   estimate D2E/DX2                          !
 !       rn2         1.333    estimate D2E/DX2                          !
 !       rn3         1.1146   estimate D2E/DX2                          !
 !       rn4         0.9264   estimate D2E/DX2                          !
 !       rch         1.0678   estimate D2E/DX2                          !
 !       rnh         0.9941   estimate D2E/DX2                          !
 !       an1        71.8427   estimate D2E/DX2                          !
 !       an2       133.7028   estimate D2E/DX2                          !
 !       an3       194.4597   estimate D2E/DX2                          !
 !       an4       276.0768   estimate D2E/DX2                          !
 !       ach       125.0248   estimate D2E/DX2                          !
 !       anh       120.7626   estimate D2E/DX2                          !
 ------------------------------------------------------------------------
 Trust Radius=3.00D-01 FncErr=1.00D-07 GrdErr=1.00D-06
 Number of steps in this run=     22 maximum allowed number of steps=    100.
 GradGradGradGradGradGradGradGradGradGradGradGradGradGradGradGradGradGrad

 ---------------------------------------------------------------------------------------------------
                            Z-MATRIX (ANGSTROMS AND DEGREES)
   CD    Cent   Atom    N1       Length/X        N2       Alpha/Y        N3        Beta/Z          J
 ---------------------------------------------------------------------------------------------------
      1         X 
      2         X        1   1.000000(     1)
      3      1  C        1   1.000000(     2)      2   90.000(     9)
      4      2  N        1   1.242600(     3)      2   90.000(    10)      3   71.843(    16)      0
      5      3  N        1   1.333000(     4)      2   90.000(    11)      3  133.703(    17)      0
      6      4  N        1   1.114600(     5)      2   90.000(    12)      3  194.460(    18)      0
      7      5  N        1   0.926400(     6)      2   90.000(    13)      3  276.077(    19)      0
      8      6  H        3   1.067800(     7)      4  125.025(    14)      5  180.000(    20)      0
      9      7  H        4   0.994100(     8)      5  120.763(    15)      6  180.000(    21)      0
 ---------------------------------------------------------------------------------------------------
                         Z-Matrix orientation:                         
 ---------------------------------------------------------------------
 Center     Atomic      Atomic             Coordinates (Angstroms)
 Number     Number       Type             X           Y           Z
 ---------------------------------------------------------------------
      1         -1           0        0.000000    0.000000    0.000000
      2         -1           0        0.000000    0.000000    1.000000
      3          6           0        1.000000    0.000000    0.000000
      4          7           0        0.387228   -1.180724    0.000000
      5          7           0       -0.920993   -0.963670    0.000000
      6          7           0       -1.079293    0.278314    0.000000
      7          7           0        0.098070    0.921194    0.000000
      8          1           0        2.058429    0.141157    0.000000
      9          1           0        0.749017   -2.106652    0.000000
 ---------------------------------------------------------------------
                    Distance matrix (angstroms):
                    1          2          3          4          5
     1  X    0.000000
     2  X    1.000000   0.000000
     3  C    1.000000   1.414214   0.000000
     4  N    1.242600   1.595009   1.330263   0.000000
     5  N    1.333000   1.666400   2.149157   1.326105   0.000000
     6  N    1.114600   1.497442   2.097837   2.068690   1.252032
     7  N    0.926400   1.363164   1.289216   2.121715   2.142710
     8  H    2.063263   2.292827   1.067800   2.130794   3.177672
     9  H    2.235847   2.449288   2.121551   0.994100   2.023695
                    6          7          8          9
     6  N    0.000000
     7  N    1.341447   0.000000
     8  H    3.140719   2.109850   0.000000
     9  H    3.005127   3.097029   2.601385   0.000000
 Stoichiometry    CH2N4
 Framework group  CS[SG(CH2N4)]
 Deg. of freedom    11
 Full point group                 CS      NOp   2
 Largest Abelian subgroup         CS      NOp   2
 Largest concise Abelian subgroup C1      NOp   1
                         Standard orientation:                         
 ---------------------------------------------------------------------
 Center     Atomic      Atomic             Coordinates (Angstroms)
 Number     Number       Type             X           Y           Z
 ---------------------------------------------------------------------
      1          6           0        1.052733    0.225621    0.000000
      2          7           0        0.000000    1.038857    0.000000
      3          7           0       -1.095416    0.291448    0.000000
      4          7           0       -0.716382   -0.901832    0.000000
      5          7           0        0.622191   -0.989579    0.000000
      6          1           0        2.072287    0.542964    0.000000
      7          1           0       -0.061439    2.031056    0.000000
 ---------------------------------------------------------------------
 Rotational constants (GHZ):     10.9201517     10.7345054      5.4132664
 Standard basis: Aug-CC-pVTZ (5D, 7F)
 There are   221 symmetry adapted cartesian basis functions of A'  symmetry.
 There are   104 symmetry adapted cartesian basis functions of A"  symmetry.
 There are   182 symmetry adapted basis functions of A'  symmetry.
 There are    94 symmetry adapted basis functions of A"  symmetry.
   276 basis functions,   414 primitive gaussians,   325 cartesian basis functions
    18 alpha electrons       18 beta electrons
       nuclear repulsion energy       169.8308489506 Hartrees.
 NAtoms=    7 NActive=    7 NUniq=    7 SFac= 1.00D+00 NAtFMM=   60 NAOKFM=F Big=F
 Integral buffers will be    131072 words long.
 Raffenetti 2 integral format.
 Two-electron integral symmetry is turned on.
 One-electron integrals computed using PRISM.
 NBasis=   276 RedAO= T EigKep=  3.19D-05  NBF=   182    94
 NBsUse=   276 1.00D-06 EigRej= -1.00D+00 NBFU=   182    94
 ExpMin= 2.53D-02 ExpMax= 1.14D+04 ExpMxC= 3.89D+02 IAcc=3 IRadAn=         5 AccDes= 0.00D+00
 Harris functional with IExCor= 1009 and IRadAn=       5 diagonalized for initial guess.
 HarFok:  IExCor= 1009 AccDes= 0.00D+00 IRadAn=         5 IDoV= 1 UseB2=F ITyADJ=14
 ICtDFT=  3500011 ScaDFX=  1.000000  1.000000  1.000000  1.000000
 FoFCou: FMM=F IPFlag=           0 FMFlag=      100000 FMFlg1=           0
         NFxFlg=           0 DoJE=T BraDBF=F KetDBF=T FulRan=T
         wScrn=  0.000000 ICntrl=     500 IOpCl=  0 I1Cent=   200000004 NGrid=           0
         NMat0=    1 NMatS0=      1 NMatT0=    0 NMatD0=    1 NMtDS0=    0 NMtDT0=    0
 Petite list used in FoFCou.
 Initial guess orbital symmetries:
       Occupied  (A') (A') (A') (A') (A') (A') (A') (A') (A') (A')
                 (A') (A') (A") (A') (A") (A') (A") (A')
       Virtual   (A") (A") (A') (A') (A') (A") (A') (A') (A') (A')
                 (A') (A") (A") (A') (A') (A') (A') (A") (A') (A")
                 (A') (A') (A') (A") (A') (A') (A') (A') (A") (A')
                 (A') (A') (A") (A') (A') (A') (A') (A") (A') (A')
                 (A') (A") (A') (A") (A') (A") (A') (A") (A') (A")
                 (A') (A') (A") (A') (A') (A') (A') (A") (A') (A')
                 (A") (A') (A') (A") (A") (A') (A") (A') (A") (A')
                 (A') (A') (A") (A') (A') (A') (A") (A") (A') (A")
                 (A') (A') (A') (A') (A") (A') (A") (A') (A") (A')
                 (A") (A") (A') (A') (A') (A") (A') (A') (A') (A")
                 (A') (A') (A") (A") (A') (A') (A") (A') (A") (A")
                 (A') (A') (A') (A") (A') (A") (A') (A') (A') (A")
                 (A') (A") (A') (A') (A') (A") (A") (A') (A') (A')
                 (A") (A") (A') (A') (A") (A") (A') (A') (A') (A")
                 (A') (A') (A') (A") (A') (A") (A') (A') (A") (A')
                 (A") (A') (A') (A') (A") (A') (A") (A') (A') (A')
                 (A') (A") (A') (A") (A') (A') (A") (A") (A") (A')
                 (A') (A") (A') (A') (A") (A') (A') (A') (A') (A")
                 (A') (A") (A') (A') (A") (A") (A') (A") (A') (A")
                 (A") (A') (A") (A') (A') (A') (A') (A") (A') (A')
                 (A") (A') (A") (A') (A') (A") (A') (A') (A') (A")
                 (A') (A') (A") (A') (A") (A") (A') (A") (A') (A')
                 (A") (A") (A') (A") (A") (A') (A") (A') (A") (A')
                 (A') (A') (A") (A") (A') (A') (A') (A") (A") (A')
                 (A') (A") (A') (A') (A') (A') (A') (A') (A') (A')
                 (A') (A') (A') (A') (A') (A') (A') (A')
 The electronic state of the initial guess is 1-A'.
 Requested convergence on RMS density matrix=1.00D-08 within 128 cycles.
 Requested convergence on MAX density matrix=1.00D-06.
 Requested convergence on             energy=1.00D-06.
 No special actions if energy rises.
 SCF Done:  E(RM062X) =  -258.252669409     A.U. after   13 cycles
            NFock= 13  Conv=0.19D-08     -V/T= 2.0041

 **********************************************************************

            Population analysis using the SCF density.

 **********************************************************************

 Orbital symmetries:
       Occupied  (A') (A') (A') (A') (A') (A') (A') (A') (A') (A')
                 (A') (A") (A') (A') (A") (A") (A') (A')
       Virtual   (A') (A') (A") (A') (A") (A') (A") (A') (A') (A')
                 (A") (A') (A") (A') (A') (A") (A') (A") (A') (A')
                 (A') (A') (A") (A') (A') (A') (A") (A') (A') (A')
                 (A') (A') (A") (A') (A') (A") (A') (A') (A') (A')
                 (A") (A') (A') (A") (A') (A") (A') (A") (A') (A')
                 (A") (A') (A") (A') (A') (A') (A") (A') (A') (A')
                 (A") (A') (A') (A") (A") (A') (A') (A") (A") (A')
                 (A') (A") (A') (A') (A') (A') (A") (A") (A") (A')
                 (A') (A') (A') (A") (A') (A') (A") (A') (A") (A')
                 (A') (A") (A") (A') (A') (A') (A") (A') (A') (A")
                 (A') (A') (A") (A') (A") (A') (A") (A') (A") (A')
                 (A") (A') (A') (A") (A') (A") (A') (A') (A') (A")
                 (A") (A') (A') (A') (A') (A") (A") (A') (A') (A")
                 (A') (A') (A') (A") (A") (A') (A") (A') (A') (A")
                 (A') (A') (A") (A') (A') (A") (A') (A') (A") (A')
                 (A") (A') (A') (A') (A') (A") (A") (A') (A') (A')
                 (A') (A") (A') (A') (A") (A") (A') (A") (A") (A')
                 (A') (A") (A') (A') (A") (A') (A') (A') (A') (A")
                 (A') (A") (A") (A") (A') (A') (A') (A") (A") (A")
                 (A') (A") (A') (A') (A') (A') (A") (A') (A') (A")
                 (A') (A") (A') (A') (A') (A") (A') (A') (A") (A')
                 (A') (A') (A") (A') (A") (A') (A") (A') (A") (A')
                 (A") (A') (A") (A") (A") (A') (A") (A") (A') (A')
                 (A') (A") (A') (A") (A') (A') (A') (A") (A") (A')
                 (A") (A') (A') (A') (A') (A') (A') (A') (A') (A')
                 (A') (A') (A') (A') (A') (A') (A') (A')
 The electronic state is 1-A'.
 Alpha  occ. eigenvalues --  -14.86528 -14.83658 -14.81807 -14.78458 -10.63325
 Alpha  occ. eigenvalues --   -1.29548  -1.07272  -1.02004  -0.78045  -0.76574
 Alpha  occ. eigenvalues --   -0.69384  -0.60220  -0.58087  -0.47086  -0.40704
 Alpha  occ. eigenvalues --   -0.38428  -0.38388  -0.36961
 Alpha virt. eigenvalues --   -0.02064   0.00670   0.01590   0.03152   0.03156
 Alpha virt. eigenvalues --    0.05248   0.05921   0.06372   0.07578   0.07834
 Alpha virt. eigenvalues --    0.08807   0.09524   0.10390   0.11802   0.12515
 Alpha virt. eigenvalues --    0.14783   0.15078   0.16032   0.16480   0.17380
 Alpha virt. eigenvalues --    0.18916   0.20569   0.21262   0.22231   0.22510
 Alpha virt. eigenvalues --    0.23456   0.25166   0.25931   0.26615   0.27586
 Alpha virt. eigenvalues --    0.30500   0.31797   0.32588   0.33198   0.34783
 Alpha virt. eigenvalues --    0.36726   0.37904   0.38402   0.41214   0.42103
 Alpha virt. eigenvalues --    0.42529   0.44549   0.46081   0.46581   0.47479
 Alpha virt. eigenvalues --    0.48399   0.49937   0.51926   0.53749   0.55966
 Alpha virt. eigenvalues --    0.56091   0.56738   0.56936   0.58044   0.59523
 Alpha virt. eigenvalues --    0.62120   0.63116   0.64169   0.68111   0.69799
 Alpha virt. eigenvalues --    0.70251   0.70452   0.71902   0.74772   0.75233
 Alpha virt. eigenvalues --    0.75573   0.77875   0.78013   0.82058   0.82993
 Alpha virt. eigenvalues --    0.84345   0.86974   0.87368   0.88895   0.91962
 Alpha virt. eigenvalues --    0.93241   0.94819   0.95469   0.97701   0.98716
 Alpha virt. eigenvalues --    0.99617   1.03520   1.06157   1.08494   1.08513
 Alpha virt. eigenvalues --    1.08937   1.10027   1.12971   1.14829   1.14971
 Alpha virt. eigenvalues --    1.16418   1.16539   1.19375   1.19440   1.20988
 Alpha virt. eigenvalues --    1.27560   1.27577   1.27960   1.30195   1.32748
 Alpha virt. eigenvalues --    1.35473   1.38046   1.41695   1.42079   1.43792
 Alpha virt. eigenvalues --    1.48022   1.49479   1.51929   1.53528   1.55883
 Alpha virt. eigenvalues --    1.56676   1.57557   1.61047   1.64602   1.67320
 Alpha virt. eigenvalues --    1.68920   1.71072   1.74674   1.77807   1.80255
 Alpha virt. eigenvalues --    1.84411   1.84435   1.86280   1.88050   1.91497
 Alpha virt. eigenvalues --    1.91828   1.93772   1.94358   1.98065   2.00188
 Alpha virt. eigenvalues --    2.02656   2.05625   2.06634   2.06680   2.10265
 Alpha virt. eigenvalues --    2.15035   2.15673   2.17084   2.19474   2.23819
 Alpha virt. eigenvalues --    2.24290   2.25534   2.30360   2.30951   2.32819
 Alpha virt. eigenvalues --    2.33557   2.38092   2.41825   2.43609   2.48891
 Alpha virt. eigenvalues --    2.53799   2.55149   2.60725   2.71165   2.77163
 Alpha virt. eigenvalues --    2.77916   2.79247   2.83719   2.98165   3.01460
 Alpha virt. eigenvalues --    3.08507   3.11509   3.13981   3.19554   3.19651
 Alpha virt. eigenvalues --    3.26574   3.28043   3.44483   3.48241   3.50837
 Alpha virt. eigenvalues --    3.52197   3.59713   3.60258   3.62712   3.66988
 Alpha virt. eigenvalues --    3.69894   3.73893   3.77692   3.82230   3.84148
 Alpha virt. eigenvalues --    3.86571   3.89967   4.02801   4.03289   4.03595
 Alpha virt. eigenvalues --    4.06310   4.14666   4.18078   4.22554   4.22790
 Alpha virt. eigenvalues --    4.25003   4.27289   4.28794   4.30396   4.34018
 Alpha virt. eigenvalues --    4.37991   4.40464   4.44224   4.46692   4.53226
 Alpha virt. eigenvalues --    4.53929   4.59035   4.59809   4.66058   4.69389
 Alpha virt. eigenvalues --    4.71644   4.73831   4.80587   4.89508   4.89928
 Alpha virt. eigenvalues --    4.92455   4.96640   4.99745   5.03406   5.04342
 Alpha virt. eigenvalues --    5.04450   5.06557   5.08700   5.13285   5.20472
 Alpha virt. eigenvalues --    5.21374   5.22279   5.24785   5.26877   5.32506
 Alpha virt. eigenvalues --    5.35447   5.38445   5.42084   5.42148   5.44213
 Alpha virt. eigenvalues --    5.48444   5.55797   5.56769   5.62723   5.65287
 Alpha virt. eigenvalues --    5.75876   5.81498   5.81868   5.85401   5.95323
 Alpha virt. eigenvalues --    5.97959   5.98847   6.10533   6.16892   6.21523
 Alpha virt. eigenvalues --    6.25874   6.37175   6.53191   6.65336   6.89841
 Alpha virt. eigenvalues --    6.95678   7.30044   7.53316  14.74292  15.46606
 Alpha virt. eigenvalues --   15.89459  16.72404  17.41567
          Condensed to atoms (all electrons):
               1          2          3          4          5          6
     1  C    5.398675   0.473005  -0.174859  -0.022013   0.255018   0.265410
     2  N    0.473005   6.429144  -0.380977   0.185925  -0.342874  -0.016523
     3  N   -0.174859  -0.380977   8.254969  -0.597717   0.250674  -0.001238
     4  N   -0.022013   0.185925  -0.597717   8.263494  -0.675740  -0.009781
     5  N    0.255018  -0.342874   0.250674  -0.675740   7.837531  -0.021800
     6  H    0.265410  -0.016523  -0.001238  -0.009781  -0.021800   0.264129
     7  H   -0.062370   0.448728  -0.083686   0.016266   0.000757   0.004040
               7
     1  C   -0.062370
     2  N    0.448728
     3  N   -0.083686
     4  N    0.016266
     5  N    0.000757
     6  H    0.004040
     7  H    0.531566
 Mulliken charges:
               1
     1  C   -0.132865
     2  N    0.203572
     3  N   -0.267167
     4  N   -0.160436
     5  N   -0.303567
     6  H    0.515763
     7  H    0.144700
 Sum of Mulliken charges =   0.00000
 Mulliken charges with hydrogens summed into heavy atoms:
               1
     1  C    0.382897
     2  N    0.348273
     3  N   -0.267167
     4  N   -0.160436
     5  N   -0.303567
 Electronic spatial extent (au):  <R**2>=            245.0921
 Charge=              0.0000 electrons
 Dipole moment (field-independent basis, Debye):
    X=              2.4832    Y=              4.7265    Z=              0.0000  Tot=              5.3391
 Quadrupole moment (field-independent basis, Debye-Ang):
   XX=            -29.0526   YY=            -26.6783   ZZ=            -28.6171
   XY=              1.8317   XZ=              0.0000   YZ=              0.0000
 Traceless Quadrupole moment (field-independent basis, Debye-Ang):
   XX=             -0.9366   YY=              1.4377   ZZ=             -0.5011
   XY=              1.8317   XZ=              0.0000   YZ=              0.0000
 Octapole moment (field-independent basis, Debye-Ang**2):
  XXX=             12.0724  YYY=             22.3077  ZZZ=              0.0000  XYY=             -0.6454
  XXY=              4.7181  XXZ=              0.0000  XZZ=             -0.5151  YZZ=              0.7466
  YYZ=              0.0000  XYZ=              0.0000
 Hexadecapole moment (field-independent basis, Debye-Ang**3):
 XXXX=           -142.8793 YYYY=           -121.4455 ZZZZ=            -27.3779 XXXY=              6.9569
 XXXZ=              0.0000 YYYX=             -0.1230 YYYZ=              0.0000 ZZZX=              0.0000
 ZZZY=              0.0000 XXYY=            -54.1474 XXZZ=            -30.9376 YYZZ=            -29.4092
 XXYZ=              0.0000 YYXZ=              0.0000 ZZXY=              0.0500
 N-N= 1.698308489506D+02 E-N=-9.423454206160D+02  KE= 2.571875886975D+02
 Symmetry A'   KE= 2.478324588330D+02
 Symmetry A"   KE= 9.355129864579D+00
 Calling FoFJK, ICntrl=      2127 FMM=F ISym2X=1 I1Cent= 0 IOpClX= 0 NMat=1 NMatS=1 NMatT=0.
 ***** Axes restored to original set *****
 -------------------------------------------------------------------
 Center     Atomic                   Forces (Hartrees/Bohr)
 Number     Number              X              Y              Z
 -------------------------------------------------------------------
      1        6           0.014746641   -0.004051912    0.000000000
      2        7           0.003415684   -0.002404715    0.000000000
      3        7          -0.009242499   -0.028654413    0.000000000
      4        7          -0.016364291    0.023989121    0.000000000
      5        7          -0.001951318    0.020813103    0.000000000
      6        1           0.005468258    0.000475347    0.000000000
      7        1           0.003927525   -0.010166530    0.000000000
 -------------------------------------------------------------------
 Cartesian Forces:  Max     0.028654413 RMS     0.011099126
 -----------------------------------------------------------------------------------------------
                       Internal Coordinate Forces (Hartree/Bohr or radian)
  Cent   Atom   N1       Length/X         N2         Alpha/Y        N3         Beta/Z          J
 -----------------------------------------------------------------------------------------------
         X 
         X        1   0.000000(     1)
      1  C        1   0.020394(     2)      2   0.000000(     9)
      2  N        1   0.014117(     3)      2   0.000000(    10)      3  -0.006819(    16)     0
      3  N        1   0.027075(     4)      2   0.000000(    11)      3  -0.032995(    17)     0
      4  N        1   0.021836(     5)      2   0.000000(    12)      3   0.040321(    18)     0
      5  N        1   0.020490(     6)      2   0.000000(    13)      3  -0.007254(    19)     0
      6  H        3   0.005483(     7)      4  -0.000508(    14)      5   0.000000(    20)     0
      7  H        4   0.010899(     8)      5  -0.000078(    15)      6   0.000000(    21)     0
 -----------------------------------------------------------------------------------------------
 Internal  Forces:  Max     0.040320860 RMS     0.015747412

 GradGradGradGradGradGradGradGradGradGradGradGradGradGradGradGradGradGrad
 Berny optimization.
 Search for a local minimum.
 Step number   1 out of a maximum of   22
 All quantities printed in internal units (Hartrees-Bohrs-Radians)
 Second derivative matrix not updated -- first step.
 The second derivative matrix:
                          rn1       rn2       rn3       rn4       rch
           rn1          0.65186
           rn2          0.01318   0.69869
           rn3          0.03472   0.07334   0.58262
           rn4          0.03688   0.02662   0.13967   0.63921
           rch          0.00000   0.00000   0.00000   0.00000   0.37510
           rnh          0.00000   0.00000   0.00000   0.00000   0.00000
           an1          0.02012  -0.75016   0.04258  -0.08486   0.00000
           an2          0.72119  -0.31234  -0.71865   0.05436   0.00000
           an3         -0.02914   1.04797   0.05412  -0.58583   0.00000
           an4          0.05328  -0.03228   0.65851  -0.10009   0.00000
           ach          0.04546   0.00000   0.00000   0.05066   0.00000
           anh         -0.10206   0.05276   0.00000   0.00000   0.00000
                          rnh       an1       an2       an3       an4
           rnh          0.48741
           an1          0.00000   4.53257
           an2          0.00000  -2.68051   6.02300
           an3          0.00000  -0.03573  -3.19618   4.47465
           an4          0.00000  -0.12258  -0.06592  -1.16042   2.58479
           ach          0.00000  -0.10460   0.00000   0.00000   0.07318
           anh          0.00000   0.03519  -0.09059   0.00000   0.00000
                          ach       anh
           ach          0.32000
           anh          0.00000   0.32000
 ITU=  0
     Eigenvalues ---    0.00000   0.13346   0.26445   0.33044   0.37510
     Eigenvalues ---    0.40158   0.48741   0.75609   1.20990   2.99509
     Eigenvalues ---    5.09563   9.64077
 RFO step:  Lambda=-2.93233395D-03 EMin=-6.95624114D-16
 Linear search not attempted -- first point.
 Variable       Old X    -DE/DX   Delta X   Delta X   Delta X     New X
                                 (Linear)    (Quad)   (Total)
   rn1        2.34817   0.01412   0.00000   0.00528   0.00528   2.35346
   rn2        2.51900   0.02708   0.00000   0.03168   0.03168   2.55069
   rn3        2.10629   0.02184   0.00000   0.04579   0.04579   2.15208
   rn4        1.75064   0.02049   0.00000   0.02989   0.02989   1.78053
   rch        2.01785   0.00548   0.00000   0.01450   0.01450   2.03235
   rnh        1.87858   0.01090   0.00000   0.02223   0.02223   1.90080
   an1        1.25389  -0.00682   0.00000   0.01023   0.01023   1.26412
   an2        2.33355  -0.03300   0.00000   0.01104   0.01104   2.34460
   an3        3.39396   0.04032   0.00000   0.01107   0.01107   3.40504
   an4        4.81845  -0.00725   0.00000  -0.00722  -0.00722   4.81123
   ach        2.18209  -0.00051   0.00000  -0.00205  -0.00205   2.18004
   anh        2.10770  -0.00008   0.00000  -0.00177  -0.00177   2.10594
         Item               Value     Threshold  Converged?
 Maximum Force            0.040321     0.000450     NO 
 RMS     Force            0.019983     0.000300     NO 
 Maximum Displacement     0.045791     0.001800     NO 
 RMS     Displacement     0.020686     0.001200     NO 
 Predicted change in Energy=-1.473692D-03
 GradGradGradGradGradGradGradGradGradGradGradGradGradGradGradGradGradGrad

 ---------------------------------------------------------------------------------------------------
                            Z-MATRIX (ANGSTROMS AND DEGREES)
   CD    Cent   Atom    N1       Length/X        N2       Alpha/Y        N3        Beta/Z          J
 ---------------------------------------------------------------------------------------------------
      1         X 
      2         X        1   1.000000(     1)
      3      1  C        1   1.000000(     2)      2   90.000(     9)
      4      2  N        1   1.245395(     3)      2   90.000(    10)      3   72.429(    16)      0
      5      3  N        1   1.349765(     4)      2   90.000(    11)      3  134.336(    17)      0
      6      4  N        1   1.138832(     5)      2   90.000(    12)      3  195.094(    18)      0
      7      5  N        1   0.942215(     6)      2   90.000(    13)      3  275.663(    19)      0
      8      6  H        3   1.075475(     7)      4  124.907(    14)      5  180.000(    20)      0
      9      7  H        4   1.005862(     8)      5  120.661(    15)      6  180.000(    21)      0
 ---------------------------------------------------------------------------------------------------
                         Z-Matrix orientation:                         
 ---------------------------------------------------------------------
 Center     Atomic      Atomic             Coordinates (Angstroms)
 Number     Number       Type             X           Y           Z
 ---------------------------------------------------------------------
      1         -1           0        0.000000    0.000000    0.000000
      2         -1           0        0.000000    0.000000    1.000000
      3          6           0        1.000000    0.000000    0.000000
      4          7           0        0.375976   -1.187287    0.000000
      5          7           0       -0.943295   -0.965433    0.000000
      6          7           0       -1.099541    0.296558    0.000000
      7          7           0        0.092973    0.937617    0.000000
      8          1           0        2.067039    0.134442    0.000000
      9          1           0        0.738339   -2.125611    0.000000
 ---------------------------------------------------------------------
                    Distance matrix (angstroms):
                    1          2          3          4          5
     1  X    0.000000
     2  X    1.000000   0.000000
     3  C    1.000000   1.414214   0.000000
     4  N    1.245395   1.597188   1.341289   0.000000
     5  N    1.349765   1.679841   2.169898   1.337795   0.000000
     6  N    1.138832   1.515565   2.120382   2.092593   1.271627
     7  N    0.942215   1.373961   1.304539   2.143667   2.166899
     8  H    2.071407   2.300158   1.075475   2.146314   3.204971
     9  H    2.250192   2.462390   2.141655   1.005862   2.043014
                    6          7          8          9
     6  N    0.000000
     7  N    1.353900   0.000000
     8  H    3.170727   2.131203   0.000000
     9  H    3.040511   3.130473   2.621695   0.000000
 Stoichiometry    CH2N4
 Framework group  CS[SG(CH2N4)]
 Deg. of freedom    11
 Full point group                 CS      NOp   2
 Largest Abelian subgroup         CS      NOp   2
 Largest concise Abelian subgroup C1      NOp   1
                         Standard orientation:                         
 ---------------------------------------------------------------------
 Center     Atomic      Atomic             Coordinates (Angstroms)
 Number     Number       Type             X           Y           Z
 ---------------------------------------------------------------------
      1          6           0        1.062289    0.230027    0.000000
      2          7           0        0.000000    1.048927    0.000000
      3          7           0       -1.106571    0.297131    0.000000
      4          7           0       -0.722317   -0.915050    0.000000
      5          7           0        0.628890   -1.000415    0.000000
      6          1           0        2.088186    0.552801    0.000000
      7          1           0       -0.061941    2.052880    0.000000
 ---------------------------------------------------------------------
 Rotational constants (GHZ):     10.6746069     10.5272978      5.3002203
 Standard basis: Aug-CC-pVTZ (5D, 7F)
 There are   221 symmetry adapted cartesian basis functions of A'  symmetry.
 There are   104 symmetry adapted cartesian basis functions of A"  symmetry.
 There are   182 symmetry adapted basis functions of A'  symmetry.
 There are    94 symmetry adapted basis functions of A"  symmetry.
   276 basis functions,   414 primitive gaussians,   325 cartesian basis functions
    18 alpha electrons       18 beta electrons
       nuclear repulsion energy       168.0322079374 Hartrees.
 NAtoms=    7 NActive=    7 NUniq=    7 SFac= 1.00D+00 NAtFMM=   60 NAOKFM=F Big=F
 Integral buffers will be    131072 words long.
 Raffenetti 2 integral format.
 Two-electron integral symmetry is turned on.
 One-electron integrals computed using PRISM.
 NBasis=   276 RedAO= T EigKep=  3.47D-05  NBF=   182    94
 NBsUse=   276 1.00D-06 EigRej= -1.00D+00 NBFU=   182    94
 Initial guess from the checkpoint file:  "/tmp/rdj3/g09-23219/Gau-11948.chk"
 B after Tr=     0.000000    0.000000    0.000000
         Rot=    1.000000    0.000000    0.000000   -0.000325 Ang=  -0.04 deg.
 Initial guess orbital symmetries:
       Occupied  (A') (A') (A') (A') (A') (A') (A') (A') (A') (A')
                 (A') (A") (A') (A') (A") (A") (A') (A')
       Virtual   (A') (A') (A') (A') (A') (A') (A') (A') (A') (A')
                 (A') (A') (A') (A') (A') (A') (A') (A') (A') (A')
                 (A') (A') (A') (A') (A') (A') (A') (A') (A') (A')
                 (A') (A') (A') (A') (A') (A') (A') (A') (A') (A')
                 (A') (A') (A') (A') (A') (A') (A') (A') (A') (A')
                 (A') (A') (A') (A') (A') (A') (A') (A') (A') (A')
                 (A') (A') (A') (A') (A') (A') (A') (A') (A') (A')
                 (A') (A') (A') (A') (A') (A') (A') (A') (A') (A')
                 (A') (A') (A') (A') (A') (A') (A') (A') (A') (A')
                 (A') (A') (A') (A') (A') (A') (A') (A') (A') (A')
                 (A') (A') (A') (A') (A') (A') (A') (A') (A') (A')
                 (A') (A') (A') (A') (A') (A') (A') (A') (A') (A')
                 (A') (A') (A') (A') (A') (A') (A') (A') (A') (A')
                 (A') (A') (A') (A') (A') (A') (A') (A') (A') (A')
                 (A') (A') (A') (A') (A') (A') (A') (A') (A') (A')
                 (A') (A') (A') (A') (A') (A') (A') (A') (A') (A')
                 (A') (A') (A') (A') (A') (A') (A') (A") (A") (A")
                 (A") (A") (A") (A") (A") (A") (A") (A") (A") (A")
                 (A") (A") (A") (A") (A") (A") (A") (A") (A") (A")
                 (A") (A") (A") (A") (A") (A") (A") (A") (A") (A")
                 (A") (A") (A") (A") (A") (A") (A") (A") (A") (A")
                 (A") (A") (A") (A") (A") (A") (A") (A") (A") (A")
                 (A") (A") (A") (A") (A") (A") (A") (A") (A") (A")
                 (A") (A") (A") (A") (A") (A") (A") (A") (A") (A")
                 (A") (A") (A") (A") (A") (A") (A") (A") (A") (A")
                 (A") (A") (A") (A") (A") (A") (A") (A")
 ExpMin= 2.53D-02 ExpMax= 1.14D+04 ExpMxC= 3.89D+02 IAcc=3 IRadAn=         5 AccDes= 0.00D+00
 Harris functional with IExCor= 1009 and IRadAn=       5 diagonalized for initial guess.
 HarFok:  IExCor= 1009 AccDes= 0.00D+00 IRadAn=         5 IDoV= 1 UseB2=F ITyADJ=14
 ICtDFT=  3500011 ScaDFX=  1.000000  1.000000  1.000000  1.000000
 FoFCou: FMM=F IPFlag=           0 FMFlag=      100000 FMFlg1=           0
         NFxFlg=           0 DoJE=T BraDBF=F KetDBF=T FulRan=T
         wScrn=  0.000000 ICntrl=     500 IOpCl=  0 I1Cent=   200000004 NGrid=           0
         NMat0=    1 NMatS0=      1 NMatT0=    0 NMatD0=    1 NMtDS0=    0 NMtDT0=    0
 Petite list used in FoFCou.
 Requested convergence on RMS density matrix=1.00D-08 within 128 cycles.
 Requested convergence on MAX density matrix=1.00D-06.
 Requested convergence on             energy=1.00D-06.
 No special actions if energy rises.
 SCF Done:  E(RM062X) =  -258.254186503     A.U. after   10 cycles
            NFock= 10  Conv=0.93D-08     -V/T= 2.0051
 Calling FoFJK, ICntrl=      2127 FMM=F ISym2X=1 I1Cent= 0 IOpClX= 0 NMat=1 NMatS=1 NMatT=0.
 ***** Axes restored to original set *****
 -------------------------------------------------------------------
 Center     Atomic                   Forces (Hartrees/Bohr)
 Number     Number              X              Y              Z
 -------------------------------------------------------------------
      1        6           0.000280860   -0.001665800    0.000000000
      2        7           0.000091508    0.003061828    0.000000000
      3        7          -0.000613618   -0.006160586    0.000000000
      4        7           0.000424066    0.003911523    0.000000000
      5        7           0.000233117    0.000896967    0.000000000
      6        1          -0.000278587   -0.000025901    0.000000000
      7        1          -0.000137347   -0.000018030    0.000000000
 -------------------------------------------------------------------
 Cartesian Forces:  Max     0.006160586 RMS     0.001786224
 -----------------------------------------------------------------------------------------------
                       Internal Coordinate Forces (Hartree/Bohr or radian)
  Cent   Atom   N1       Length/X         N2         Alpha/Y        N3         Beta/Z          J
 -----------------------------------------------------------------------------------------------
         X 
         X        1   0.000000(     1)
      1  C        1  -0.000004(     2)      2   0.000000(     9)
      2  N        1  -0.002820(     3)      2   0.000000(    10)      3  -0.001963(    16)     0
      3  N        1   0.004752(     4)      2   0.000000(    11)      3  -0.009715(    17)     0
      4  N        1   0.000609(     5)      2   0.000000(    12)      3   0.008365(    18)     0
      5  N        1   0.000916(     6)      2   0.000000(    13)      3   0.000255(    19)     0
      6  H        3  -0.000280(     7)      4   0.000019(    14)      5   0.000000(    20)     0
      7  H        4  -0.000033(     8)      5  -0.000256(    15)      6   0.000000(    21)     0
 -----------------------------------------------------------------------------------------------
 Internal  Forces:  Max     0.009714880 RMS     0.003087344

 GradGradGradGradGradGradGradGradGradGradGradGradGradGradGradGradGradGrad
 Berny optimization.
 Search for a local minimum.
 Step number   2 out of a maximum of   22
 All quantities printed in internal units (Hartrees-Bohrs-Radians)
 Update second derivatives using D2CorN and points    1    2
 DE= -1.52D-03 DEPred=-1.47D-03 R= 1.03D+00
 TightC=F SS=  1.41D+00  RLast= 7.17D-02 DXNew= 5.0454D-01 2.1497D-01
 Trust test= 1.03D+00 RLast= 7.17D-02 DXMaxT set to 3.00D-01
 The second derivative matrix:
                          rn1       rn2       rn3       rn4       rch
           rn1          0.65478
           rn2          0.01953   0.66994
           rn3          0.04712   0.05110   0.57839
           rn4          0.04471   0.01050   0.13460   0.63439
           rch          0.00417  -0.00559   0.00077  -0.00023   0.37601
           rnh          0.00619  -0.00978  -0.00059  -0.00151   0.00084
           an1          0.02397  -0.74866   0.05100  -0.07988   0.00314
           an2          0.72925  -0.28728  -0.67570   0.08183   0.01411
           an3         -0.03036   1.01724   0.01645  -0.61097  -0.01142
           an4          0.05114  -0.02985   0.65761  -0.10032  -0.00062
           ach          0.04488   0.00086  -0.00001   0.05075  -0.00010
           anh         -0.10242   0.05433   0.00120   0.00087   0.00030
                          rnh       an1       an2       an3       an4
           rnh          0.48783
           an1          0.00441   4.53654
           an2          0.02120  -2.66866   6.04396
           an3         -0.01793  -0.04188  -3.19464   4.45668
           an4         -0.00067  -0.12426  -0.07308  -1.15486   2.58518
           ach         -0.00007  -0.10502  -0.00198   0.00164   0.07325
           anh          0.00053   0.03509  -0.09200   0.00170  -0.00013
                          ach       anh
           ach          0.32001
           anh         -0.00005   0.31991
 ITU=  1  0
     Eigenvalues ---   -0.00016   0.13069   0.26622   0.33130   0.37587
     Eigenvalues ---    0.39575   0.48789   0.75571   1.20910   2.99219
     Eigenvalues ---    5.08764   9.63144
 RFO step:  Lambda=-2.80054719D-04 EMin=-1.62955434D-04
 Quartic linear search produced a step of  0.05700.
 Maximum step size (   0.300) exceeded in Quadratic search.
    -- Step size scaled by   0.300
 Variable       Old X    -DE/DX   Delta X   Delta X   Delta X     New X
                                 (Linear)    (Quad)   (Total)
   rn1        2.35346  -0.00282   0.00030  -0.13833  -0.13803   2.21543
   rn2        2.55069   0.00475   0.00181  -0.09681  -0.09501   2.45568
   rn3        2.15208   0.00061   0.00261   0.03341   0.03602   2.18810
   rn4        1.78053   0.00092   0.00170   0.14214   0.14384   1.92437
   rch        2.03235  -0.00028   0.00083  -0.00070   0.00012   2.03248
   rnh        1.90080  -0.00003   0.00127  -0.00028   0.00099   1.90179
   an1        1.26412  -0.00196   0.00058   0.05656   0.05714   1.32126
   an2        2.34460  -0.00971   0.00063   0.11326   0.11389   2.45849
   an3        3.40504   0.00837   0.00063   0.14008   0.14071   3.54574
   an4        4.81123   0.00026  -0.00041   0.06719   0.06678   4.87800
   ach        2.18004   0.00002  -0.00012   0.00033   0.00021   2.18025
   anh        2.10594  -0.00026  -0.00010  -0.00296  -0.00306   2.10288
         Item               Value     Threshold  Converged?
 Maximum Force            0.009715     0.000450     NO 
 RMS     Force            0.004084     0.000300     NO 
 Maximum Displacement     0.143840     0.001800     NO 
 RMS     Displacement     0.086877     0.001200     NO 
 Predicted change in Energy=-6.813155D-05
 GradGradGradGradGradGradGradGradGradGradGradGradGradGradGradGradGradGrad

 ---------------------------------------------------------------------------------------------------
                            Z-MATRIX (ANGSTROMS AND DEGREES)
   CD    Cent   Atom    N1       Length/X        N2       Alpha/Y        N3        Beta/Z          J
 ---------------------------------------------------------------------------------------------------
      1         X 
      2         X        1   1.000000(     1)
      3      1  C        1   1.000000(     2)      2   90.000(     9)
      4      2  N        1   1.172353(     3)      2   90.000(    10)      3   75.703(    16)      0
      5      3  N        1   1.299490(     4)      2   90.000(    11)      3  140.861(    17)      0
      6      4  N        1   1.157894(     5)      2   90.000(    12)      3  203.156(    18)      0
      7      5  N        1   1.018332(     6)      2   90.000(    13)      3  279.489(    19)      0
      8      6  H        3   1.075540(     7)      4  124.919(    14)      5  180.000(    20)      0
      9      7  H        4   1.006386(     8)      5  120.486(    15)      6  180.000(    21)      0
 ---------------------------------------------------------------------------------------------------
                         Z-Matrix orientation:                         
 ---------------------------------------------------------------------
 Center     Atomic      Atomic             Coordinates (Angstroms)
 Number     Number       Type             X           Y           Z
 ---------------------------------------------------------------------
      1         -1           0        0.000000    0.000000    0.000000
      2         -1           0        0.000000    0.000000    1.000000
      3          6           0        1.000000    0.000000    0.000000
      4          7           0        0.289518   -1.136042    0.000000
      5          7           0       -1.007906   -0.820244    0.000000
      6          7           0       -1.064610    0.455329    0.000000
      7          7           0        0.167881    1.004398    0.000000
      8          1           0        2.074165    0.054360    0.000000
      9          1           0        0.580500   -2.099443    0.000000
 ---------------------------------------------------------------------
                    Distance matrix (angstroms):
                    1          2          3          4          5
     1  X    0.000000
     2  X    1.000000   0.000000
     3  C    1.000000   1.414214   0.000000
     4  N    1.172353   1.540913   1.339916   0.000000
     5  N    1.299490   1.639718   2.168983   1.335304   0.000000
     6  N    1.157894   1.529941   2.114223   2.089527   1.276832
     7  N    1.018332   1.427235   1.304315   2.143894   2.170667
     8  H    2.074878   2.303284   1.075540   2.145233   3.203763
     9  H    2.178220   2.396798   2.140944   1.006386   2.039457
                    6          7          8          9
     6  N    0.000000
     7  N    1.349264   0.000000
     8  H    3.164283   2.129904   0.000000
     9  H    3.038626   3.131148   2.621050   0.000000
 Stoichiometry    CH2N4
 Framework group  CS[SG(CH2N4)]
 Deg. of freedom    11
 Full point group                 CS      NOp   2
 Largest Abelian subgroup         CS      NOp   2
 Largest concise Abelian subgroup C1      NOp   1
                         Standard orientation:                         
 ---------------------------------------------------------------------
 Center     Atomic      Atomic             Coordinates (Angstroms)
 Number     Number       Type             X           Y           Z
 ---------------------------------------------------------------------
      1          6           0        1.060235    0.228324    0.000000
      2          7           0        0.000000    1.047639    0.000000
      3          7           0       -1.107508    0.301674    0.000000
      4          7           0       -0.718522   -0.914464    0.000000
      5          7           0        0.627883   -1.002249    0.000000
      6          1           0        2.086641    0.549690    0.000000
      7          1           0       -0.061020    2.052173    0.000000
 ---------------------------------------------------------------------
 Rotational constants (GHZ):     10.7124654     10.5131931      5.3059469
 Standard basis: Aug-CC-pVTZ (5D, 7F)
 There are   221 symmetry adapted cartesian basis functions of A'  symmetry.
 There are   104 symmetry adapted cartesian basis functions of A"  symmetry.
 There are   182 symmetry adapted basis functions of A'  symmetry.
 There are    94 symmetry adapted basis functions of A"  symmetry.
   276 basis functions,   414 primitive gaussians,   325 cartesian basis functions
    18 alpha electrons       18 beta electrons
       nuclear repulsion energy       168.1087884144 Hartrees.
 NAtoms=    7 NActive=    7 NUniq=    7 SFac= 1.00D+00 NAtFMM=   60 NAOKFM=F Big=F
 Integral buffers will be    131072 words long.
 Raffenetti 2 integral format.
 Two-electron integral symmetry is turned on.
 One-electron integrals computed using PRISM.
 NBasis=   276 RedAO= T EigKep=  3.45D-05  NBF=   182    94
 NBsUse=   276 1.00D-06 EigRej= -1.00D+00 NBFU=   182    94
 Initial guess from the checkpoint file:  "/tmp/rdj3/g09-23219/Gau-11948.chk"
 B after Tr=     0.000000    0.000000    0.000000
         Rot=    1.000000    0.000000    0.000000    0.000408 Ang=   0.05 deg.
 Initial guess orbital symmetries:
       Occupied  (A') (A') (A') (A') (A') (A') (A') (A') (A') (A')
                 (A') (A") (A') (A') (A") (A') (A") (A')
       Virtual   (A') (A') (A') (A') (A') (A') (A') (A') (A') (A')
                 (A') (A') (A') (A') (A') (A') (A') (A') (A') (A')
                 (A') (A') (A') (A') (A') (A') (A') (A') (A') (A')
                 (A') (A') (A') (A') (A') (A') (A') (A') (A') (A')
                 (A') (A') (A') (A') (A') (A') (A') (A') (A') (A')
                 (A') (A') (A') (A') (A') (A') (A') (A') (A') (A')
                 (A') (A') (A') (A') (A') (A') (A') (A') (A') (A')
                 (A') (A') (A') (A') (A') (A') (A') (A') (A') (A')
                 (A') (A') (A') (A') (A') (A') (A') (A') (A') (A')
                 (A') (A') (A') (A') (A') (A') (A') (A') (A') (A')
                 (A') (A') (A') (A') (A') (A') (A') (A') (A') (A')
                 (A') (A') (A') (A') (A') (A') (A') (A') (A') (A')
                 (A') (A') (A') (A') (A') (A') (A') (A') (A') (A')
                 (A') (A') (A') (A') (A') (A') (A') (A') (A') (A')
                 (A') (A') (A') (A') (A') (A') (A') (A') (A') (A')
                 (A') (A') (A') (A') (A') (A') (A') (A') (A') (A')
                 (A') (A') (A') (A') (A') (A') (A') (A") (A") (A")
                 (A") (A") (A") (A") (A") (A") (A") (A") (A") (A")
                 (A") (A") (A") (A") (A") (A") (A") (A") (A") (A")
                 (A") (A") (A") (A") (A") (A") (A") (A") (A") (A")
                 (A") (A") (A") (A") (A") (A") (A") (A") (A") (A")
                 (A") (A") (A") (A") (A") (A") (A") (A") (A") (A")
                 (A") (A") (A") (A") (A") (A") (A") (A") (A") (A")
                 (A") (A") (A") (A") (A") (A") (A") (A") (A") (A")
                 (A") (A") (A") (A") (A") (A") (A") (A") (A") (A")
                 (A") (A") (A") (A") (A") (A") (A") (A")
 ExpMin= 2.53D-02 ExpMax= 1.14D+04 ExpMxC= 3.89D+02 IAcc=3 IRadAn=         5 AccDes= 0.00D+00
 Harris functional with IExCor= 1009 and IRadAn=       5 diagonalized for initial guess.
 HarFok:  IExCor= 1009 AccDes= 0.00D+00 IRadAn=         5 IDoV= 1 UseB2=F ITyADJ=14
 ICtDFT=  3500011 ScaDFX=  1.000000  1.000000  1.000000  1.000000
 FoFCou: FMM=F IPFlag=           0 FMFlag=      100000 FMFlg1=           0
         NFxFlg=           0 DoJE=T BraDBF=F KetDBF=T FulRan=T
         wScrn=  0.000000 ICntrl=     500 IOpCl=  0 I1Cent=   200000004 NGrid=           0
         NMat0=    1 NMatS0=      1 NMatT0=    0 NMatD0=    1 NMtDS0=    0 NMtDT0=    0
 Petite list used in FoFCou.
 Requested convergence on RMS density matrix=1.00D-08 within 128 cycles.
 Requested convergence on MAX density matrix=1.00D-06.
 Requested convergence on             energy=1.00D-06.
 No special actions if energy rises.
 SCF Done:  E(RM062X) =  -258.254195908     A.U. after   10 cycles
            NFock= 10  Conv=0.36D-08     -V/T= 2.0051
 Calling FoFJK, ICntrl=      2127 FMM=F ISym2X=1 I1Cent= 0 IOpClX= 0 NMat=1 NMatS=1 NMatT=0.
 ***** Axes restored to original set *****
 -------------------------------------------------------------------
 Center     Atomic                   Forces (Hartrees/Bohr)
 Number     Number              X              Y              Z
 -------------------------------------------------------------------
      1        6           0.003289747   -0.001685990    0.000000000
      2        7           0.001244985    0.000785498    0.000000000
      3        7          -0.000848887    0.000070230    0.000000000
      4        7          -0.004176170    0.000621719    0.000000000
      5        7           0.000614068   -0.000047042    0.000000000
      6        1          -0.000268235   -0.000222721    0.000000000
      7        1           0.000144493    0.000478306    0.000000000
 -------------------------------------------------------------------
 Cartesian Forces:  Max     0.004176170 RMS     0.001293481
 -----------------------------------------------------------------------------------------------
                       Internal Coordinate Forces (Hartree/Bohr or radian)
  Cent   Atom   N1       Length/X         N2         Alpha/Y        N3         Beta/Z          J
 -----------------------------------------------------------------------------------------------
         X 
         X        1   0.000000(     1)
      1  C        1   0.003164(     2)      2   0.000000(     9)
      2  N        1  -0.001187(     3)      2   0.000000(    10)      3  -0.003635(    16)     0
      3  N        1   0.000780(     4)      2   0.000000(    11)      3   0.001140(    17)     0
      4  N        1   0.004084(     5)      2   0.000000(    12)      3  -0.002343(    18)     0
      5  N        1   0.000055(     6)      2   0.000000(    13)      3   0.001180(    19)     0
      6  H        3  -0.000279(     7)      4  -0.000425(    14)      5   0.000000(    20)     0
      7  H        4  -0.000416(     8)      5   0.000526(    15)      6   0.000000(    21)     0
 -----------------------------------------------------------------------------------------------
 Internal  Forces:  Max     0.004084207 RMS     0.001555464

 GradGradGradGradGradGradGradGradGradGradGradGradGradGradGradGradGradGrad
 Berny optimization.
 Search for a local minimum.
 Step number   3 out of a maximum of   22
 All quantities printed in internal units (Hartrees-Bohrs-Radians)
 Update second derivatives using D2CorN and points    1    2    3
 DE= -9.40D-06 DEPred=-6.81D-05 R= 1.38D-01
 Trust test= 1.38D-01 RLast= 3.01D-01 DXMaxT set to 3.00D-01
 The second derivative matrix:
                          rn1       rn2       rn3       rn4       rch
           rn1          0.65673
           rn2          0.01914   0.66836
           rn3          0.05153   0.05394   0.57412
           rn4          0.04401   0.01173   0.12894   0.63371
           rch          0.00423  -0.00555   0.00051  -0.00026   0.37604
           rnh          0.00614  -0.00981  -0.00098  -0.00143   0.00088
           an1          0.02065  -0.74976   0.05041  -0.07637   0.00338
           an2          0.73411  -0.28275  -0.68168   0.07539   0.01397
           an3         -0.03714   1.01467   0.01351  -0.60481  -0.01127
           an4          0.05150  -0.02888   0.65503  -0.10147  -0.00071
           ach          0.04441   0.00060   0.00023   0.05131  -0.00007
           anh         -0.10169   0.05472   0.00102   0.00004   0.00026
                          rnh       an1       an2       an3       an4
           rnh          0.48790
           an1          0.00485   4.53939
           an2          0.02104  -2.66843   6.03438
           an3         -0.01753  -0.03607  -3.19556   4.46890
           an4         -0.00076  -0.12333  -0.07653  -1.15304   2.58442
           ach         -0.00003  -0.10483  -0.00155   0.00213   0.07347
           anh          0.00045   0.03467  -0.09248   0.00079  -0.00043
                          ach       anh
           ach          0.32000
           anh         -0.00006   0.31996
 ITU=  0  1  0
     Eigenvalues ---    0.00098   0.13016   0.26644   0.33105   0.37589
     Eigenvalues ---    0.39586   0.48794   0.75511   1.20908   2.99208
     Eigenvalues ---    5.08762   9.63168
 RFO step:  Lambda=-4.07095385D-05 EMin= 9.82215296D-04
 Quartic linear search produced a step of -0.38313.
 Variable       Old X    -DE/DX   Delta X   Delta X   Delta X     New X
                                 (Linear)    (Quad)   (Total)
   rn1        2.21543  -0.00119   0.05288  -0.02690   0.02598   2.24141
   rn2        2.45568   0.00078   0.03640  -0.00876   0.02764   2.48332
   rn3        2.18810   0.00408  -0.01380   0.01723   0.00343   2.19153
   rn4        1.92437   0.00005  -0.05511   0.01860  -0.03651   1.88786
   rch        2.03248  -0.00028  -0.00005  -0.00076  -0.00081   2.03167
   rnh        1.90179  -0.00042  -0.00038  -0.00048  -0.00086   1.90093
   an1        1.32126  -0.00363  -0.02189   0.00992  -0.01197   1.30929
   an2        2.45849   0.00114  -0.04364   0.01934  -0.02430   2.43419
   an3        3.54574  -0.00234  -0.05391   0.02041  -0.03351   3.51224
   an4        4.87800   0.00118  -0.02559   0.00723  -0.01835   4.85965
   ach        2.18025  -0.00042  -0.00008   0.00150   0.00142   2.18167
   anh        2.10288   0.00053   0.00117  -0.00193  -0.00076   2.10213
         Item               Value     Threshold  Converged?
 Maximum Force            0.004084     0.000450     NO 
 RMS     Force            0.001844     0.000300     NO 
 Maximum Displacement     0.036508     0.001800     NO 
 RMS     Displacement     0.020373     0.001200     NO 
 Predicted change in Energy=-4.315640D-05
 GradGradGradGradGradGradGradGradGradGradGradGradGradGradGradGradGradGrad

 ---------------------------------------------------------------------------------------------------
                            Z-MATRIX (ANGSTROMS AND DEGREES)
   CD    Cent   Atom    N1       Length/X        N2       Alpha/Y        N3        Beta/Z          J
 ---------------------------------------------------------------------------------------------------
      1         X 
      2         X        1   1.000000(     1)
      3      1  C        1   1.000000(     2)      2   90.000(     9)
      4      2  N        1   1.186103(     3)      2   90.000(    10)      3   75.017(    16)      0
      5      3  N        1   1.314118(     4)      2   90.000(    11)      3  139.469(    17)      0
      6      4  N        1   1.159710(     5)      2   90.000(    12)      3  201.236(    18)      0
      7      5  N        1   0.999013(     6)      2   90.000(    13)      3  278.438(    19)      0
      8      6  H        3   1.075113(     7)      4  125.001(    14)      5  180.000(    20)      0
      9      7  H        4   1.005929(     8)      5  120.443(    15)      6  180.000(    21)      0
 ---------------------------------------------------------------------------------------------------
                         Z-Matrix orientation:                         
 ---------------------------------------------------------------------
 Center     Atomic      Atomic             Coordinates (Angstroms)
 Number     Number       Type             X           Y           Z
 ---------------------------------------------------------------------
      1         -1           0        0.000000    0.000000    0.000000
      2         -1           0        0.000000    0.000000    1.000000
      3          6           0        1.000000    0.000000    0.000000
      4          7           0        0.306654   -1.145776    0.000000
      5          7           0       -0.998800   -0.853993    0.000000
      6          7           0       -1.080958    0.420068    0.000000
      7          7           0        0.146588    0.988200    0.000000
      8          1           0        2.072723    0.071648    0.000000
      9          1           0        0.614893   -2.103316    0.000000
 ---------------------------------------------------------------------
                    Distance matrix (angstroms):
                    1          2          3          4          5
     1  X    0.000000
     2  X    1.000000   0.000000
     3  C    1.000000   1.414214   0.000000
     4  N    1.186103   1.551399   1.339228   0.000000
     5  N    1.314118   1.651335   2.173593   1.337665   0.000000
     6  N    1.159710   1.531315   2.122933   2.092208   1.276706
     7  N    0.999013   1.413516   1.305700   2.139971   2.169236
     8  H    2.073961   2.302458   1.075113   2.145023   3.207969
     9  H    2.191354   2.408740   2.138281   1.005929   2.040788
                    6          7          8          9
     6  N    0.000000
     7  N    1.352643   0.000000
     8  H    3.172869   2.133088   0.000000
     9  H    3.040292   3.126784   2.618346   0.000000
 Stoichiometry    CH2N4
 Framework group  CS[SG(CH2N4)]
 Deg. of freedom    11
 Full point group                 CS      NOp   2
 Largest Abelian subgroup         CS      NOp   2
 Largest concise Abelian subgroup C1      NOp   1
                         Standard orientation:                         
 ---------------------------------------------------------------------
 Center     Atomic      Atomic             Coordinates (Angstroms)
 Number     Number       Type             X           Y           Z
 ---------------------------------------------------------------------
      1          6           0        1.063440    0.232370    0.000000
      2          7           0        0.000000    1.046389    0.000000
      3          7           0       -1.109143    0.298625    0.000000
      4          7           0       -0.721017   -0.917655    0.000000
      5          7           0        0.629178   -0.998998    0.000000
      6          1           0        2.088416    0.556858    0.000000
      7          1           0       -0.062185    2.050394    0.000000
 ---------------------------------------------------------------------
 Rotational constants (GHZ):     10.6721758     10.5162349      5.2968158
 Standard basis: Aug-CC-pVTZ (5D, 7F)
 There are   221 symmetry adapted cartesian basis functions of A'  symmetry.
 There are   104 symmetry adapted cartesian basis functions of A"  symmetry.
 There are   182 symmetry adapted basis functions of A'  symmetry.
 There are    94 symmetry adapted basis functions of A"  symmetry.
   276 basis functions,   414 primitive gaussians,   325 cartesian basis functions
    18 alpha electrons       18 beta electrons
       nuclear repulsion energy       167.9658342259 Hartrees.
 NAtoms=    7 NActive=    7 NUniq=    7 SFac= 1.00D+00 NAtFMM=   60 NAOKFM=F Big=F
 Integral buffers will be    131072 words long.
 Raffenetti 2 integral format.
 Two-electron integral symmetry is turned on.
 One-electron integrals computed using PRISM.
 NBasis=   276 RedAO= T EigKep=  3.49D-05  NBF=   182    94
 NBsUse=   276 1.00D-06 EigRej= -1.00D+00 NBFU=   182    94
 Initial guess from the checkpoint file:  "/tmp/rdj3/g09-23219/Gau-11948.chk"
 B after Tr=     0.000000    0.000000    0.000000
         Rot=    1.000000    0.000000    0.000000   -0.000847 Ang=  -0.10 deg.
 Initial guess orbital symmetries:
       Occupied  (A') (A') (A') (A') (A') (A') (A') (A') (A') (A')
                 (A') (A") (A') (A') (A") (A') (A") (A')
       Virtual   (A') (A') (A') (A') (A') (A') (A') (A') (A') (A')
                 (A') (A') (A') (A') (A') (A') (A') (A') (A') (A')
                 (A') (A') (A') (A') (A') (A') (A') (A') (A') (A')
                 (A') (A') (A') (A') (A') (A') (A') (A') (A') (A')
                 (A') (A') (A') (A') (A') (A') (A') (A') (A') (A')
                 (A') (A') (A') (A') (A') (A') (A') (A') (A') (A')
                 (A') (A') (A') (A') (A') (A') (A') (A') (A') (A')
                 (A') (A') (A') (A') (A') (A') (A') (A') (A') (A')
                 (A') (A') (A') (A') (A') (A') (A') (A') (A') (A')
                 (A') (A') (A') (A') (A') (A') (A') (A') (A') (A')
                 (A') (A') (A') (A') (A') (A') (A') (A') (A') (A')
                 (A') (A') (A') (A') (A') (A') (A') (A') (A') (A')
                 (A') (A') (A') (A') (A') (A') (A') (A') (A') (A')
                 (A') (A') (A') (A') (A') (A') (A') (A') (A') (A')
                 (A') (A') (A') (A') (A') (A') (A') (A') (A') (A')
                 (A') (A') (A') (A') (A') (A') (A') (A') (A') (A')
                 (A') (A') (A') (A') (A') (A') (A') (A") (A") (A")
                 (A") (A") (A") (A") (A") (A") (A") (A") (A") (A")
                 (A") (A") (A") (A") (A") (A") (A") (A") (A") (A")
                 (A") (A") (A") (A") (A") (A") (A") (A") (A") (A")
                 (A") (A") (A") (A") (A") (A") (A") (A") (A") (A")
                 (A") (A") (A") (A") (A") (A") (A") (A") (A") (A")
                 (A") (A") (A") (A") (A") (A") (A") (A") (A") (A")
                 (A") (A") (A") (A") (A") (A") (A") (A") (A") (A")
                 (A") (A") (A") (A") (A") (A") (A") (A") (A") (A")
                 (A") (A") (A") (A") (A") (A") (A") (A")
 ExpMin= 2.53D-02 ExpMax= 1.14D+04 ExpMxC= 3.89D+02 IAcc=3 IRadAn=         5 AccDes= 0.00D+00
 Harris functional with IExCor= 1009 and IRadAn=       5 diagonalized for initial guess.
 HarFok:  IExCor= 1009 AccDes= 0.00D+00 IRadAn=         5 IDoV= 1 UseB2=F ITyADJ=14
 ICtDFT=  3500011 ScaDFX=  1.000000  1.000000  1.000000  1.000000
 FoFCou: FMM=F IPFlag=           0 FMFlag=      100000 FMFlg1=           0
         NFxFlg=           0 DoJE=T BraDBF=F KetDBF=T FulRan=T
         wScrn=  0.000000 ICntrl=     500 IOpCl=  0 I1Cent=   200000004 NGrid=           0
         NMat0=    1 NMatS0=      1 NMatT0=    0 NMatD0=    1 NMtDS0=    0 NMtDT0=    0
 Petite list used in FoFCou.
 Requested convergence on RMS density matrix=1.00D-08 within 128 cycles.
 Requested convergence on MAX density matrix=1.00D-06.
 Requested convergence on             energy=1.00D-06.
 No special actions if energy rises.
 SCF Done:  E(RM062X) =  -258.254215279     A.U. after    9 cycles
            NFock=  9  Conv=0.68D-08     -V/T= 2.0052
 Calling FoFJK, ICntrl=      2127 FMM=F ISym2X=1 I1Cent= 0 IOpClX= 0 NMat=1 NMatS=1 NMatT=0.
 ***** Axes restored to original set *****
 -------------------------------------------------------------------
 Center     Atomic                   Forces (Hartrees/Bohr)
 Number     Number              X              Y              Z
 -------------------------------------------------------------------
      1        6          -0.001687610   -0.000321742    0.000000000
      2        7          -0.000356305   -0.000464896    0.000000000
      3        7           0.000667626   -0.000512877    0.000000000
      4        7           0.001280540   -0.000225696    0.000000000
      5        7           0.000223734    0.001521354    0.000000000
      6        1          -0.000092610    0.000064177    0.000000000
      7        1          -0.000035374   -0.000060321    0.000000000
 -------------------------------------------------------------------
 Cartesian Forces:  Max     0.001687610 RMS     0.000620149
 -----------------------------------------------------------------------------------------------
                       Internal Coordinate Forces (Hartree/Bohr or radian)
  Cent   Atom   N1       Length/X         N2         Alpha/Y        N3         Beta/Z          J
 -----------------------------------------------------------------------------------------------
         X 
         X        1   0.000000(     1)
      1  C        1  -0.001828(     2)      2   0.000000(     9)
      2  N        1   0.000482(     3)      2   0.000000(    10)      3   0.001106(    16)     0
      3  N        1  -0.000206(     4)      2   0.000000(    11)      3  -0.001987(    17)     0
      4  N        1  -0.001275(     5)      2   0.000000(    12)      3   0.000555(    18)     0
      5  N        1   0.001538(     6)      2   0.000000(    13)      3  -0.000004(    19)     0
      6  H        3  -0.000088(     7)      4   0.000143(    14)      5   0.000000(    20)     0
      7  H        4   0.000047(     8)      5  -0.000099(    15)      6   0.000000(    21)     0
 -----------------------------------------------------------------------------------------------
 Internal  Forces:  Max     0.001987017 RMS     0.000790650

 GradGradGradGradGradGradGradGradGradGradGradGradGradGradGradGradGradGrad
 Berny optimization.
 Search for a local minimum.
 Step number   4 out of a maximum of   22
 All quantities printed in internal units (Hartrees-Bohrs-Radians)
 Update second derivatives using D2CorN and points    1    2    3    4
 DE= -1.94D-05 DEPred=-4.32D-05 R= 4.49D-01
 Trust test= 4.49D-01 RLast= 7.06D-02 DXMaxT set to 3.00D-01
 The second derivative matrix:
                          rn1       rn2       rn3       rn4       rch
           rn1          0.65690
           rn2          0.01858   0.66722
           rn3          0.05553   0.05862   0.57677
           rn4          0.04157   0.00760   0.12111   0.64268
           rch          0.00458  -0.00525   0.00071  -0.00060   0.37609
           rnh          0.00625  -0.00998  -0.00089  -0.00143   0.00095
           an1          0.01787  -0.75308   0.04781  -0.07070   0.00341
           an2          0.74112  -0.27310  -0.68177   0.06890   0.01403
           an3         -0.04143   1.00960   0.00640  -0.59521  -0.01181
           an4          0.05179  -0.02856   0.65170  -0.09909  -0.00098
           ach          0.04392   0.00007   0.00034   0.05166  -0.00005
           anh         -0.10118   0.05526   0.00094  -0.00036   0.00023
                          rnh       an1       an2       an3       an4
           rnh          0.48798
           an1          0.00502   4.54212
           an2          0.02168  -2.66846   6.02211
           an3         -0.01785  -0.03034  -3.20067   4.47967
           an4         -0.00079  -0.12119  -0.08232  -1.14998   2.58428
           ach         -0.00004  -0.10485  -0.00070   0.00253   0.07382
           anh          0.00045   0.03459  -0.09332   0.00035  -0.00076
                          ach       anh
           ach          0.31994
           anh         -0.00001   0.31992
 ITU=  0  0  1  0
     Eigenvalues ---    0.00212   0.13832   0.26841   0.33267   0.37595
     Eigenvalues ---    0.39571   0.48802   0.75463   1.20876   2.99207
     Eigenvalues ---    5.08750   9.63152
 RFO step:  Lambda=-3.30561303D-06 EMin= 2.11974908D-03
 Quartic linear search produced a step of -0.32586.
 Variable       Old X    -DE/DX   Delta X   Delta X   Delta X     New X
                                 (Linear)    (Quad)   (Total)
   rn1        2.24141   0.00048  -0.00847   0.00932   0.00086   2.24227
   rn2        2.48332  -0.00021  -0.00901   0.00491  -0.00410   2.47922
   rn3        2.19153  -0.00128  -0.00112  -0.00455  -0.00567   2.18586
   rn4        1.88786   0.00154   0.01190  -0.00587   0.00603   1.89389
   rch        2.03167  -0.00009   0.00026  -0.00039  -0.00012   2.03155
   rnh        1.90093   0.00005   0.00028  -0.00018   0.00010   1.90103
   an1        1.30929   0.00111   0.00390  -0.00411  -0.00021   1.30908
   an2        2.43419  -0.00199   0.00792  -0.00779   0.00012   2.43432
   an3        3.51224   0.00056   0.01092  -0.00829   0.00263   3.51487
   an4        4.85965   0.00000   0.00598  -0.00316   0.00282   4.86247
   ach        2.18167   0.00014  -0.00046  -0.00103  -0.00149   2.18018
   anh        2.10213  -0.00010   0.00025   0.00061   0.00085   2.10298
         Item               Value     Threshold  Converged?
 Maximum Force            0.001987     0.000450     NO 
 RMS     Force            0.000903     0.000300     NO 
 Maximum Displacement     0.006030     0.001800     NO 
 RMS     Displacement     0.002943     0.001200     NO 
 Predicted change in Energy=-1.086467D-05
 GradGradGradGradGradGradGradGradGradGradGradGradGradGradGradGradGradGrad

 ---------------------------------------------------------------------------------------------------
                            Z-MATRIX (ANGSTROMS AND DEGREES)
   CD    Cent   Atom    N1       Length/X        N2       Alpha/Y        N3        Beta/Z          J
 ---------------------------------------------------------------------------------------------------
      1         X 
      2         X        1   1.000000(     1)
      3      1  C        1   1.000000(     2)      2   90.000(     9)
      4      2  N        1   1.186557(     3)      2   90.000(    10)      3   75.005(    16)      0
      5      3  N        1   1.311949(     4)      2   90.000(    11)      3  139.476(    17)      0
      6      4  N        1   1.156708(     5)      2   90.000(    12)      3  201.387(    18)      0
      7      5  N        1   1.002204(     6)      2   90.000(    13)      3  278.599(    19)      0
      8      6  H        3   1.075048(     7)      4  124.915(    14)      5  180.000(    20)      0
      9      7  H        4   1.005984(     8)      5  120.492(    15)      6  180.000(    21)      0
 ---------------------------------------------------------------------------------------------------
                         Z-Matrix orientation:                         
 ---------------------------------------------------------------------
 Center     Atomic      Atomic             Coordinates (Angstroms)
 Number     Number       Type             X           Y           Z
 ---------------------------------------------------------------------
      1         -1           0        0.000000    0.000000    0.000000
      2         -1           0        0.000000    0.000000    1.000000
      3          6           0        1.000000    0.000000    0.000000
      4          7           0        0.307010   -1.146151    0.000000
      5          7           0       -0.997256   -0.852460    0.000000
      6          7           0       -1.077055    0.421812    0.000000
      7          7           0        0.149848    0.990938    0.000000
      8          1           0        2.072737    0.070441    0.000000
      9          1           0        0.614565   -2.103968    0.000000
 ---------------------------------------------------------------------
                    Distance matrix (angstroms):
                    1          2          3          4          5
     1  X    0.000000
     2  X    1.000000   0.000000
     3  C    1.000000   1.414214   0.000000
     4  N    1.186557   1.551746   1.339365   0.000000
     5  N    1.311949   1.649609   2.171571   1.336923   0.000000
     6  N    1.156708   1.529043   2.119454   2.091446   1.276769
     7  N    1.002204   1.415773   1.305648   2.142860   2.171167
     8  H    2.073934   2.302434   1.075048   2.144269   3.205715
     9  H    2.191887   2.409226   2.138981   1.005984   2.040646
                    6          7          8          9
     6  N    0.000000
     7  N    1.352478   0.000000
     8  H    3.169330   2.131858   0.000000
     9  H    3.039925   3.129601   2.618076   0.000000
 Stoichiometry    CH2N4
 Framework group  CS[SG(CH2N4)]
 Deg. of freedom    11
 Full point group                 CS      NOp   2
 Largest Abelian subgroup         CS      NOp   2
 Largest concise Abelian subgroup C1      NOp   1
                         Standard orientation:                         
 ---------------------------------------------------------------------
 Center     Atomic      Atomic             Coordinates (Angstroms)
 Number     Number       Type             X           Y           Z
 ---------------------------------------------------------------------
      1          6           0        1.061829    0.230859    0.000000
      2          7           0        0.000000    1.047203    0.000000
      3          7           0       -1.108641    0.300022    0.000000
      4          7           0       -0.720353   -0.916272    0.000000
      5          7           0        0.629460   -1.001120    0.000000
      6          1           0        2.086942    0.554696    0.000000
      7          1           0       -0.061179    2.051324    0.000000
 ---------------------------------------------------------------------
 Rotational constants (GHZ):     10.6818309     10.5109824      5.2978590
 Standard basis: Aug-CC-pVTZ (5D, 7F)
 There are   221 symmetry adapted cartesian basis functions of A'  symmetry.
 There are   104 symmetry adapted cartesian basis functions of A"  symmetry.
 There are   182 symmetry adapted basis functions of A'  symmetry.
 There are    94 symmetry adapted basis functions of A"  symmetry.
   276 basis functions,   414 primitive gaussians,   325 cartesian basis functions
    18 alpha electrons       18 beta electrons
       nuclear repulsion energy       167.9836255743 Hartrees.
 NAtoms=    7 NActive=    7 NUniq=    7 SFac= 1.00D+00 NAtFMM=   60 NAOKFM=F Big=F
 Integral buffers will be    131072 words long.
 Raffenetti 2 integral format.
 Two-electron integral symmetry is turned on.
 One-electron integrals computed using PRISM.
 NBasis=   276 RedAO= T EigKep=  3.49D-05  NBF=   182    94
 NBsUse=   276 1.00D-06 EigRej= -1.00D+00 NBFU=   182    94
 Initial guess from the checkpoint file:  "/tmp/rdj3/g09-23219/Gau-11948.chk"
 B after Tr=     0.000000    0.000000    0.000000
         Rot=    1.000000    0.000000    0.000000    0.000337 Ang=   0.04 deg.
 Initial guess orbital symmetries:
       Occupied  (A') (A') (A') (A') (A') (A') (A') (A') (A') (A')
                 (A') (A") (A') (A') (A") (A') (A") (A')
       Virtual   (A') (A') (A') (A') (A') (A') (A') (A') (A') (A')
                 (A') (A') (A') (A') (A') (A') (A') (A') (A') (A')
                 (A') (A') (A') (A') (A') (A') (A') (A') (A') (A')
                 (A') (A') (A') (A') (A') (A') (A') (A') (A') (A')
                 (A') (A') (A') (A') (A') (A') (A') (A') (A') (A')
                 (A') (A') (A') (A') (A') (A') (A') (A') (A') (A')
                 (A') (A') (A') (A') (A') (A') (A') (A') (A') (A')
                 (A') (A') (A') (A') (A') (A') (A') (A') (A') (A')
                 (A') (A') (A') (A') (A') (A') (A') (A') (A') (A')
                 (A') (A') (A') (A') (A') (A') (A') (A') (A') (A')
                 (A') (A') (A') (A') (A') (A') (A') (A') (A') (A')
                 (A') (A') (A') (A') (A') (A') (A') (A') (A') (A')
                 (A') (A') (A') (A') (A') (A') (A') (A') (A') (A')
                 (A') (A') (A') (A') (A') (A') (A') (A') (A') (A')
                 (A') (A') (A') (A') (A') (A') (A') (A') (A') (A')
                 (A') (A') (A') (A') (A') (A') (A') (A') (A') (A')
                 (A') (A') (A') (A') (A') (A') (A') (A") (A") (A")
                 (A") (A") (A") (A") (A") (A") (A") (A") (A") (A")
                 (A") (A") (A") (A") (A") (A") (A") (A") (A") (A")
                 (A") (A") (A") (A") (A") (A") (A") (A") (A") (A")
                 (A") (A") (A") (A") (A") (A") (A") (A") (A") (A")
[...]
 Quadrupole moment (field-independent basis, Debye-Ang):
   XX=            -29.0665   YY=            -26.6284   ZZ=            -28.8027
   XY=              1.8756   XZ=              0.0000   YZ=              0.0000
 Traceless Quadrupole moment (field-independent basis, Debye-Ang):
   XX=             -0.9006   YY=              1.5374   ZZ=             -0.6368
   XY=              1.8756   XZ=              0.0000   YZ=              0.0000
 Octapole moment (field-independent basis, Debye-Ang**2):
  XXX=             12.3257  YYY=             22.7399  ZZZ=              0.0000  XYY=             -0.6351
  XXY=              4.8045  XXZ=              0.0000  XZZ=             -0.5081  YZZ=              0.7437
  YYZ=              0.0000  XYZ=              0.0000
 Hexadecapole moment (field-independent basis, Debye-Ang**3):
 XXXX=           -145.0205 YYYY=           -123.4229 ZZZZ=            -27.7503 XXXY=              7.3105
 XXXZ=              0.0000 YYYX=             -0.1212 YYYZ=              0.0000 ZZZX=              0.0000
 ZZZY=              0.0000 XXYY=            -55.1274 XXZZ=            -31.5405 YYZZ=            -30.0313
 XXYZ=              0.0000 YYXZ=              0.0000 ZZXY=              0.0402
 N-N= 1.679936428229D+02 E-N=-9.385073912472D+02  KE= 2.569275261057D+02
 Symmetry A'   KE= 2.476123247278D+02
 Symmetry A"   KE= 9.315201377899D+00
  Exact polarizability:  44.260   0.479  43.966   0.000   0.000  26.134
 Approx polarizability:  58.169   0.426  60.773   0.000   0.000  33.158
 Calling FoFJK, ICntrl=    100127 FMM=F ISym2X=1 I1Cent= 0 IOpClX= 0 NMat=1 NMatS=1 NMatT=0.
 Full mass-weighted force constant matrix:
 Low frequencies ---  -18.6476   -0.0010   -0.0010   -0.0004    7.4531   18.0983
 Low frequencies ---  610.9406  702.8417  758.6008
 Diagonal vibrational polarizability:
        1.1519828       1.1299790       7.3587211
 Harmonic frequencies (cm**-1), IR intensities (KM/Mole), Raman scattering
 activities (A**4/AMU), depolarization ratios for plane and unpolarized
 incident light, reduced masses (AMU), force constants (mDyne/A),
 and normal coordinates:
                      1                      2                      3
                     A"                     A"                     A"
 Frequencies --    610.9228               702.8396               758.6008
 Red. masses --      1.5895                 2.1542                 8.9853
 Frc consts  --      0.3495                 0.6270                 3.0465
 IR Inten    --     86.9740                 5.0826                 6.9654
  Atom  AN      X      Y      Z        X      Y      Z        X      Y      Z
     1   6     0.00   0.00  -0.06     0.00   0.00   0.19     0.00   0.00  -0.09
     2   7     0.00   0.00   0.19     0.00   0.00  -0.12     0.00   0.00  -0.14
     3   7     0.00   0.00  -0.07     0.00   0.00   0.11     0.00   0.00   0.44
     4   7     0.00   0.00   0.00     0.00   0.00   0.03     0.00   0.00  -0.52
     5   7     0.00   0.00   0.02     0.00   0.00  -0.17     0.00   0.00   0.35
     6   1     0.00   0.00  -0.22     0.00   0.00   0.56     0.00   0.00  -0.17
     7   1     0.00   0.00  -0.95     0.00   0.00  -0.77     0.00   0.00  -0.60
                      4                      5                      6
                     A"                     A'                     A'
 Frequencies --    900.5735               996.6365              1029.5682
 Red. masses --      1.3829                 4.2357                 6.2772
 Frc consts  --      0.6608                 2.4789                 3.9203
 IR Inten    --     14.6142                 2.4846                 1.0650
  Atom  AN      X      Y      Z        X      Y      Z        X      Y      Z
     1   6     0.00   0.00   0.18     0.13   0.11   0.00    -0.35  -0.05   0.00
     2   7     0.00   0.00  -0.04     0.09   0.02   0.00     0.00   0.40   0.00
     3   7     0.00   0.00   0.00     0.13  -0.13   0.00     0.18  -0.05   0.00
     4   7     0.00   0.00  -0.01    -0.02  -0.18   0.00     0.21  -0.09   0.00
     5   7     0.00   0.00  -0.03    -0.31   0.24   0.00    -0.07  -0.21   0.00
     6   1     0.00   0.00  -0.98     0.36  -0.63   0.00    -0.21  -0.59   0.00
     7   1     0.00   0.00  -0.02    -0.47  -0.02   0.00    -0.01   0.42   0.00
                      7                      8                      9
                     A'                     A'                     A'
 Frequencies --   1086.7629              1096.2174              1160.7842
 Red. masses --      4.1840                 2.9527                 2.0805
 Frc consts  --      2.9115                 2.0905                 1.6517
 IR Inten    --     17.5106                30.6571                12.6325
  Atom  AN      X      Y      Z        X      Y      Z        X      Y      Z
     1   6    -0.08   0.02   0.00     0.06  -0.06   0.00     0.07  -0.10   0.00
     2   7    -0.13  -0.21   0.00    -0.11   0.07   0.00    -0.14  -0.03   0.00
     3   7     0.25   0.20   0.00     0.21   0.03   0.00    -0.08   0.05   0.00
     4   7     0.19   0.00   0.00    -0.24  -0.01   0.00     0.15   0.13   0.00
     5   7    -0.19  -0.04   0.00     0.15  -0.04   0.00     0.01   0.00   0.00
     6   1    -0.32   0.72   0.00     0.04   0.01   0.00     0.29  -0.78   0.00
     7   1    -0.28  -0.23   0.00    -0.92   0.03   0.00    -0.46  -0.05   0.00
                     10                     11                     12
                     A'                     A'                     A'
 Frequencies --   1295.1516              1352.1017              1485.3832
 Red. masses --      2.4350                 9.8633                 3.3874
 Frc consts  --      2.4066                10.6241                 4.4035
 IR Inten    --      1.2016                16.1631                10.5290
  Atom  AN      X      Y      Z        X      Y      Z        X      Y      Z
     1   6     0.17   0.03   0.00     0.27   0.07   0.00    -0.18   0.26   0.00
     2   7     0.08   0.11   0.00    -0.15   0.15   0.00     0.21  -0.14   0.00
     3   7    -0.11  -0.07   0.00    -0.19   0.46   0.00    -0.07   0.11   0.00
     4   7     0.06   0.06   0.00     0.03  -0.55   0.00    -0.02  -0.03   0.00
     5   7    -0.12  -0.17   0.00     0.03  -0.13   0.00     0.08  -0.11   0.00
     6   1    -0.01   0.65   0.00     0.37  -0.07   0.00     0.03  -0.49   0.00
     7   1    -0.68   0.07   0.00     0.34   0.22   0.00    -0.72  -0.22   0.00
                     13                     14                     15
                     A'                     A'                     A'
 Frequencies --   1544.6452              3298.5985              3664.4250
 Red. masses --      3.9340                 1.1025                 1.0845
 Frc consts  --      5.5303                 7.0676                 8.5804
 IR Inten    --     18.8728                 3.0854               121.5723
  Atom  AN      X      Y      Z        X      Y      Z        X      Y      Z
     1   6     0.12   0.32   0.00     0.09   0.03   0.00     0.00   0.00   0.00
     2   7    -0.17  -0.03   0.00     0.00   0.00   0.00    -0.01   0.08   0.00
     3   7     0.11  -0.09   0.00     0.00   0.00   0.00     0.00   0.00   0.00
     4   7    -0.07   0.11   0.00     0.00   0.00   0.00     0.00   0.00   0.00
     5   7    -0.05  -0.24   0.00     0.00   0.00   0.00     0.00   0.00   0.00
     6   1     0.39  -0.38   0.00    -0.95  -0.30   0.00    -0.02   0.00   0.00
     7   1     0.68   0.02   0.00     0.01   0.02   0.00     0.06  -1.00   0.00

 -------------------
 - Thermochemistry -
 -------------------
 Temperature   298.150 Kelvin.  Pressure   1.00000 Atm.
 Atom     1 has atomic number  6 and mass  12.00000
 Atom     2 has atomic number  7 and mass  14.00307
 Atom     3 has atomic number  7 and mass  14.00307
 Atom     4 has atomic number  7 and mass  14.00307
 Atom     5 has atomic number  7 and mass  14.00307
 Atom     6 has atomic number  1 and mass   1.00783
 Atom     7 has atomic number  1 and mass   1.00783
 Molecular mass:    70.02795 amu.
 Principal axes and moments of inertia in atomic units:
                           1         2         3
     Eigenvalues --   168.98875 171.61873 340.60748
           X            0.87710   0.48031   0.00000
           Y           -0.48031   0.87710   0.00000
           Z            0.00000   0.00000   1.00000
 This molecule is an asymmetric top.
 Rotational symmetry number  1.
 Rotational temperatures (Kelvin)      0.51254     0.50469     0.25429
 Rotational constants (GHZ):          10.67965    10.51599     5.29860
 Zero-point vibrational energy     125507.5 (Joules/Mol)
                                   29.99701 (Kcal/Mol)
 Warning -- explicit consideration of   1 degrees of freedom as
           vibrations may cause significant error
 Vibrational temperatures:    878.98  1011.23  1091.46  1295.72  1433.94
          (Kelvin)           1481.32  1563.61  1577.21  1670.11  1863.43
                             1945.37  2137.13  2222.40  4745.94  5272.28
 
 Zero-point correction=                           0.047803 (Hartree/Particle)
 Thermal correction to Energy=                    0.051218
 Thermal correction to Enthalpy=                  0.052162
 Thermal correction to Gibbs Free Energy=         0.021750
 Sum of electronic and zero-point Energies=           -258.206419
 Sum of electronic and thermal Energies=              -258.203005
 Sum of electronic and thermal Enthalpies=            -258.202061
 Sum of electronic and thermal Free Energies=         -258.232472
 
                     E (Thermal)             CV                S
                      KCal/Mol        Cal/Mol-Kelvin    Cal/Mol-Kelvin
 Total                   32.140             10.966             64.006
 Electronic               0.000              0.000              0.000
 Translational            0.889              2.981             38.656
 Rotational               0.889              2.981             23.806
 Vibrational             30.362              5.004              1.545
 Vibration     1          0.970              1.009              0.431
                       Q            Log10(Q)             Ln(Q)
 Total Bot       0.989923D-10        -10.004399        -23.035979
 Total V=0       0.962793D+12         11.983533         27.593105
 Vib (Bot)       0.120796D-21        -21.917946        -50.467935
 Vib (Bot)    1  0.241667D+00         -0.616783         -1.420194
 Vib (V=0)       0.117486D+01          0.069986          0.161149
 Vib (V=0)    1  0.105534D+01          0.023393          0.053863
 Electronic      0.100000D+01          0.000000          0.000000
 Translational   0.230336D+08          7.362362         16.952466
 Rotational      0.355783D+05          4.551185         10.479490
 ***** Axes restored to original set *****
 -------------------------------------------------------------------
 Center     Atomic                   Forces (Hartrees/Bohr)
 Number     Number              X              Y              Z
 -------------------------------------------------------------------
      1        6           0.000009536   -0.000075156    0.000000000
      2        7           0.000086539    0.000002623    0.000000000
      3        7          -0.000130738    0.000125048    0.000000000
      4        7          -0.000064406   -0.000171760    0.000000000
      5        7           0.000093647    0.000107553    0.000000000
      6        1           0.000005850    0.000011453    0.000000000
      7        1          -0.000000428    0.000000239    0.000000000
 -------------------------------------------------------------------
 Cartesian Forces:  Max     0.000171760 RMS     0.000069047
 -----------------------------------------------------------------------------------------------
                       Internal Coordinate Forces (Hartree/Bohr or radian)
  Cent   Atom   N1       Length/X         N2         Alpha/Y        N3         Beta/Z          J
 -----------------------------------------------------------------------------------------------
         X 
         X        1   0.000000(     1)
      1  C        1   0.000008(     2)      2   0.000000(     9)
      2  N        1   0.000026(     3)      2   0.000000(    10)      3  -0.000200(    16)     0
      3  N        1   0.000021(     4)      2   0.000000(    11)      3   0.000444(    17)     0
      4  N        1  -0.000006(     5)      2   0.000000(    12)      3  -0.000402(    18)     0
      5  N        1   0.000121(     6)      2   0.000000(    13)      3   0.000144(    19)     0
      6  H        3   0.000006(     7)      4   0.000023(    14)      5   0.000000(    20)     0
      7  H        4   0.000000(     8)      5  -0.000001(    15)      6   0.000000(    21)     0
 -----------------------------------------------------------------------------------------------
 Internal  Forces:  Max     0.000443730 RMS     0.000144103

 GradGradGradGradGradGradGradGradGradGradGradGradGradGradGradGradGradGrad
 Berny optimization.
 Search for a local minimum.
 Step number   1 out of a maximum of    2
 All quantities printed in internal units (Hartrees-Bohrs-Radians)
 Second derivative matrix not updated -- analytic derivatives used.
 The second derivative matrix:
                          rn1       rn2       rn3       rn4       rch
           rn1          0.60987
           rn2         -0.03367   0.61274
           rn3          0.08467   0.00294   0.59322
           rn4          0.10055   0.07840  -0.00368   0.58767
           rch         -0.00332  -0.00138   0.00053  -0.00321   0.38098
           rnh          0.01094  -0.00596  -0.00011  -0.00031   0.00034
           an1          0.09780  -0.38340  -0.22162   0.14473   0.01309
           an2          0.27378  -0.16001  -0.46373  -0.17406   0.00052
           an3          0.24330   0.51893   0.20856  -0.27650   0.00078
           an4         -0.15188   0.17992   0.32919  -0.17922  -0.01618
           ach          0.03628   0.01184  -0.01442   0.02862   0.00085
           anh         -0.04885   0.02052   0.02432  -0.01947  -0.00105
                          rnh       an1       an2       an3       an4
           rnh          0.47634
           an1         -0.00974   2.37043
           an2          0.01843  -0.96109   2.91392
           an3         -0.00517  -0.28162  -1.47486   2.41702
           an4          0.00120  -0.26748  -0.31919  -0.40555   1.75872
           ach          0.00048   0.00141  -0.02209  -0.00279   0.09052
           anh          0.00098  -0.03547  -0.01334   0.00354  -0.00417
                          ach       anh
           ach          0.21323
           anh          0.00100   0.21068
 ITU=  0
     Eigenvalues ---    0.00011   0.16145   0.20970   0.27355   0.38109
     Eigenvalues ---    0.47582   0.62969   0.72484   0.84199   2.17795
     Eigenvalues ---    2.86154   4.40709
 Angle between quadratic step and forces=  87.84 degrees.
 Linear search not attempted -- first point.
 Variable       Old X    -DE/DX   Delta X   Delta X   Delta X     New X
                                 (Linear)    (Quad)   (Total)
   rn1        2.22320   0.00003   0.00000  -0.10422  -0.10422   2.11898
   rn2        2.46722   0.00002   0.00000  -0.06877  -0.06877   2.39845
   rn3        2.19414  -0.00001   0.00000   0.04107   0.04107   2.23521
   rn4        1.91143   0.00012   0.00000   0.10658   0.10658   2.01800
   rch        2.03156   0.00001   0.00000  -0.00013  -0.00013   2.03143
   rnh        1.90100   0.00000   0.00000   0.00000   0.00000   1.90099
   an1        1.31688  -0.00020   0.00000   0.04515   0.04515   1.36202
   an2        2.44999   0.00044   0.00000   0.09133   0.09133   2.54132
   an3        3.53273  -0.00040   0.00000   0.10286   0.10286   3.63559
   an4        4.87039   0.00014   0.00000   0.04845   0.04845   4.91883
   ach        2.18057   0.00002   0.00000   0.00007   0.00007   2.18064
   anh        2.10297   0.00000   0.00000   0.00025   0.00025   2.10323
         Item               Value     Threshold  Converged?
 Maximum Force            0.000444     0.000450     YES
 RMS     Force            0.000191     0.000300     YES
 Maximum Displacement     0.106576     0.001800     NO 
 RMS     Displacement     0.065792     0.001200     NO 
 Predicted change in Energy=-2.830079D-06
 GradGradGradGradGradGradGradGradGradGradGradGradGradGradGradGradGradGrad

 1\1\GINC-N366\Freq\RM062X\Aug-CC-pVTZ\C1H2N4\RDJ3\26-Nov-2013\1\\#N Ge
 om=AllCheck Guess=TCheck SCRF=Check GenChk RM062X/Aug-CC-pVTZ Freq\\1H
 -tetrazole CH2N4 casno=288948 state=1 config=1 method=58 basis=18\\0,1
 \X\X,1,1.\C,1,1.,2,90.\N,1,rn1,2,90.,3,an1,0\N,1,rn2,2,90.,3,an2,0\N,1
 ,rn3,2,90.,3,an3,0\N,1,rn4,2,90.,3,an4,0\H,3,rch,4,ach,5,180.,0\H,4,rn
 h,5,anh,6,180.,0\\rn1=1.17646928\rn2=1.30559803\rn3=1.16108702\rn4=1.0
 1148319\rch=1.07505487\rnh=1.00596369\an1=75.45151187\an2=140.37384803
 \an3=202.41056628\an4=279.05259288\ach=124.93751013\anh=120.49135941\\
 Version=EM64L-G09RevD.01\State=1-A'\HF=-258.2542226\RMSD=3.996e-09\RMS
 F=6.905e-05\ZeroPoint=0.0478033\Thermal=0.0512176\Dipole=1.5862768,-1.
 3995433,0.\DipoleDeriv=0.208755,0.0715018,0.,-0.0859637,0.4791887,0.,0
 .,0.,0.0947514,-0.2070783,0.277131,0.,0.204926,-0.4457723,0.,0.,0.,-0.
 122902,0.0693415,-0.3763058,0.,-0.3132241,-0.1366887,0.,0.,0.,-0.09844
 85,0.0908579,0.1433048,0.,0.1909941,-0.0245633,0.,0.,0.,-0.1572958,-0.
 439402,-0.0978574,0.,0.0109679,-0.3005648,0.,0.,0.,-0.2135477,0.076964
 2,0.0192214,0.,0.0134211,0.1094851,0.,0.,0.,0.1687956,0.2005618,-0.036
 9959,0.,-0.0211213,0.3189152,0.,0.,0.,0.328647\Polar=44.5404806,-0.261
 8461,43.6855397,0.,0.,26.1338079\PG=CS [SG(C1H2N4)]\NImag=0\\0.9874739
 5,-0.01323479,0.63412756,0.,0.,0.15227475,-0.18923606,-0.08864494,0.,0
 .59372802,-0.11946049,-0.27396352,0.,-0.08500761,1.03904412,0.,0.,-0.0
 6910996,0.,0.,0.10235108,-0.10200326,-0.08645163,0.,-0.25057332,-0.017
 80498,0.,0.49406136,0.00838830,-0.02506339,0.,0.01611521,-0.10552871,0
 .,0.07896559,0.61485238,0.,0.,0.02248089,0.,0.,-0.07440449,0.,0.,0.122
 17357,-0.11847875,0.08847921,0.,-0.06805178,0.03097490,0.,-0.11391181,
 -0.01036637,0.,0.51302974,-0.02084000,0.03195113,0.,0.11882677,-0.1168
 5357,0.,0.03804081,-0.38520266,0.,-0.09949497,0.58225379,0.,0.,0.02019
 776,0.,0.,0.02861489,0.,0.,-0.10244887,0.,0.,0.13088769,-0.22979271,0.
 13268966,0.,0.02020823,0.08771167,0.,-0.03186082,-0.12919433,0.,-0.200
 66026,-0.04199381,0.,0.45481599,0.14950128,-0.30367221,0.,-0.03940158,
 -0.11268892,0.,-0.01229582,-0.09266867,0.,-0.01323237,-0.11270139,0.,-
 0.07255691,0.61416229,0.,0.,-0.08416620,0.,0.,0.02282967,0.,0.,0.03757
 836,0.,0.,-0.09448739,0.,0.,0.11519671,-0.36488362,-0.02015409,0.,-0.0
 0453543,0.00255879,0.,0.00092343,0.00102230,0.,-0.00070619,0.00071489,
 0.,-0.01025988,-0.00240560,0.,0.37990544,-0.01669474,-0.05712557,0.,-0
 .03175464,0.00456742,0.,-0.00158518,-0.00687722,0.,0.00629224,-0.00324
 926,0.,0.02470459,0.01012724,0.,0.01874586,0.05273119,0.,0.,-0.0334857
 8,0.,0.,-0.00162350,0.,0.,0.00640400,0.,0.,0.00919693,0.,0.,-0.0044221
 4,0.,0.,0.02505235,0.01692045,-0.01268342,0.,-0.10153966,0.10102772,0.
 ,0.00336442,0.03506929,0.,-0.01122095,0.00474630,0.,-0.00245056,-0.009
 60900,0.,-0.00044376,0.00029188,0.,0.09537006,0.01234044,-0.00625401,0
 .,0.10986680,-0.43457682,0.,0.00113121,0.00048828,0.,-0.00265266,0.003
 80196,0.,-0.00136088,-0.00255833,0.,-0.00048214,-0.00017380,0.,-0.1188
 4277,0.43927272,0.,0.,-0.00819146,0.,0.,-0.00865769,0.,0.,-0.01178347,
 0.,0.,0.00803900,0.,0.,0.00747099,0.,0.,-0.00112185,0.,0.,0.01424448\\
 -0.00000954,0.00007516,0.,-0.00008654,-0.00000262,0.,0.00013074,-0.000
 12505,0.,0.00006441,0.00017176,0.,-0.00009365,-0.00010755,0.,-0.000005
 85,-0.00001145,0.,0.00000043,-0.00000024,0.\\\@


  THE LARGE PRINT GIVETH,
  AND THE SMALL PRINT TAKETH AWAY.

                     -- TOM WAITS
 Job cpu time:       0 days  1 hours  8 minutes  3.0 seconds.
 File lengths (MBytes):  RWF=     50 Int=      0 D2E=      0 Chk=      6 Scr=      1
 Normal termination of Gaussian 09 at Tue Nov 26 11:25:08 2013.
