 Entering Gaussian System, Link 0=g09
 Initial command:
 /usr/local/gaussian/g09.d01.em64t.legacy.linda/g09/l1.exe "/tmp/rdj3/g09-23219/Gau-14567.inp" -scrdir="/tmp/rdj3/g09-23219/"
 Entering Link 1 = /usr/local/gaussian/g09.d01.em64t.legacy.linda/g09/l1.exe PID=     14568.
  
 Copyright (c) 1988,1990,1992,1993,1995,1998,2003,2009,2013,
            Gaussian, Inc.  All Rights Reserved.
  
 This is part of the Gaussian(R) 09 program.  It is based on
 the Gaussian(R) 03 system (copyright 2003, Gaussian, Inc.),
 the Gaussian(R) 98 system (copyright 1998, Gaussian, Inc.),
 the Gaussian(R) 94 system (copyright 1995, Gaussian, Inc.),
 the Gaussian 92(TM) system (copyright 1992, Gaussian, Inc.),
 the Gaussian 90(TM) system (copyright 1990, Gaussian, Inc.),
 the Gaussian 88(TM) system (copyright 1988, Gaussian, Inc.),
 the Gaussian 86(TM) system (copyright 1986, Carnegie Mellon
 University), and the Gaussian 82(TM) system (copyright 1983,
 Carnegie Mellon University). Gaussian is a federally registered
 trademark of Gaussian, Inc.
  
 This software contains proprietary and confidential information,
 including trade secrets, belonging to Gaussian, Inc.
  
 This software is provided under written license and may be
 used, copied, transmitted, or stored only in accord with that
 written license.
  
 The following legend is applicable only to US Government
 contracts under FAR:
  
                    RESTRICTED RIGHTS LEGEND
  
 Use, reproduction and disclosure by the US Government is
 subject to restrictions as set forth in subparagraphs (a)
 and (c) of the Commercial Computer Software - Restricted
 Rights clause in FAR 52.227-19.
  
 Gaussian, Inc.
 340 Quinnipiac St., Bldg. 40, Wallingford CT 06492
  
  
 ---------------------------------------------------------------
 Warning -- This program may not be used in any manner that
 competes with the business of Gaussian, Inc. or will provide
 assistance to any competitor of Gaussian, Inc.  The licensee
 of this program is prohibited from giving any competitor of
 Gaussian, Inc. access to this program.  By using this program,
 the user acknowledges that Gaussian, Inc. is engaged in the
 business of creating and licensing software in the field of
 computational chemistry and represents and warrants to the
 licensee that it is not a competitor of Gaussian, Inc. and that
 it will not use this program in any manner prohibited above.
 ---------------------------------------------------------------
  

 Cite this work as:
 Gaussian 09, Revision D.01,
 M. J. Frisch, G. W. Trucks, H. B. Schlegel, G. E. Scuseria, 
 M. A. Robb, J. R. Cheeseman, G. Scalmani, V. Barone, B. Mennucci, 
 G. A. Petersson, H. Nakatsuji, M. Caricato, X. Li, H. P. Hratchian, 
 A. F. Izmaylov, J. Bloino, G. Zheng, J. L. Sonnenberg, M. Hada, 
 M. Ehara, K. Toyota, R. Fukuda, J. Hasegawa, M. Ishida, T. Nakajima, 
 Y. Honda, O. Kitao, H. Nakai, T. Vreven, J. A. Montgomery, Jr., 
 J. E. Peralta, F. Ogliaro, M. Bearpark, J. J. Heyd, E. Brothers, 
 K. N. Kudin, V. N. Staroverov, T. Keith, R. Kobayashi, J. Normand, 
 K. Raghavachari, A. Rendell, J. C. Burant, S. S. Iyengar, J. Tomasi, 
 M. Cossi, N. Rega, J. M. Millam, M. Klene, J. E. Knox, J. B. Cross, 
 V. Bakken, C. Adamo, J. Jaramillo, R. Gomperts, R. E. Stratmann, 
 O. Yazyev, A. J. Austin, R. Cammi, C. Pomelli, J. W. Ochterski, 
 R. L. Martin, K. Morokuma, V. G. Zakrzewski, G. A. Voth, 
 P. Salvador, J. J. Dannenberg, S. Dapprich, A. D. Daniels, 
 O. Farkas, J. B. Foresman, J. V. Ortiz, J. Cioslowski, 
 and D. J. Fox, Gaussian, Inc., Wallingford CT, 2013.
 
 ******************************************
 Gaussian 09:  EM64L-G09RevD.01 24-Apr-2013
                26-Nov-2013 
 ******************************************
 %Nproc=8
 Will use up to    8 processors via shared memory.
 %mem=436000000
 -------------------------------
 #M062X/6-31G* opt=z-matrix freq
 -------------------------------
 1/10=7,14=-1,18=40,26=3,38=1/1,3;
 2/12=2,17=6,18=5,29=3,40=1/2;
 3/5=1,6=6,7=1,11=2,16=1,25=1,30=1,71=1,74=-55/1,2,3;
 4//1;
 5/5=2,38=5/2;
 6/7=2,8=2,9=2,10=2,28=1/1;
 7/29=1/1,2,3,16;
 1/10=7,14=-1,18=40,26=3/3(2);
 2/29=3/2;
 99//99;
 2/29=3/2;
 3/5=1,6=6,7=1,11=2,16=1,25=1,30=1,71=1,74=-55/1,2,3;
 4/5=5,16=3,69=1/1;
 5/5=2,38=5/2;
 7//1,2,3,16;
 1/14=-1,18=40,26=3/3(-5);
 2/29=3/2;
 6/7=2,8=2,9=2,10=2,19=2,28=1/1;
 99/9=1/99;
 ------------------------------------------------------------------
 1H-tetrazole CH2N4 casno=288948 state=1 config=1 method=58 basis=1
 ------------------------------------------------------------------
 Symbolic Z-matrix:
 Charge =  0 Multiplicity = 1
 X
 X                    1     1. 
 C                    1     1.       2     90. 
 N                    1    rn1      2     90.      3    an1      0
 N                    1    rn2      2     90.      3    an2      0
 N                    1    rn3      2     90.      3    an3      0
 N                    1    rn4      2     90.      3    an4      0
 H                    3    rch      4    ach      5     180.     0
 H                    4    rnh      5    anh      6     180.     0
       Variables:
  rn1                   1.2426                   
  rn2                   1.333                    
  rn3                   1.1146                   
  rn4                   0.9264                   
  rch                   1.0678                   
  rnh                   0.9941                   
  an1                  71.8427                   
  an2                 133.7028                   
  an3                 194.4597                   
  an4                 276.0768                   
  ach                 125.0248                   
  anh                 120.7626                   
 

 GradGradGradGradGradGradGradGradGradGradGradGradGradGradGradGradGradGrad
 Berny optimization.
 Initialization pass.
                       ----------------------------
                       !    Initial Parameters    !
                       ! (Angstroms and Degrees)  !
 ----------------------                            ----------------------
 !      Name          Value   Derivative information (Atomic Units)     !
 ------------------------------------------------------------------------
 !       rn1         1.2426   estimate D2E/DX2                          !
 !       rn2         1.333    estimate D2E/DX2                          !
 !       rn3         1.1146   estimate D2E/DX2                          !
 !       rn4         0.9264   estimate D2E/DX2                          !
 !       rch         1.0678   estimate D2E/DX2                          !
 !       rnh         0.9941   estimate D2E/DX2                          !
 !       an1        71.8427   estimate D2E/DX2                          !
 !       an2       133.7028   estimate D2E/DX2                          !
 !       an3       194.4597   estimate D2E/DX2                          !
 !       an4       276.0768   estimate D2E/DX2                          !
 !       ach       125.0248   estimate D2E/DX2                          !
 !       anh       120.7626   estimate D2E/DX2                          !
 ------------------------------------------------------------------------
 Trust Radius=3.00D-01 FncErr=1.00D-07 GrdErr=1.00D-06
 Number of steps in this run=     22 maximum allowed number of steps=    100.
 GradGradGradGradGradGradGradGradGradGradGradGradGradGradGradGradGradGrad

 ---------------------------------------------------------------------------------------------------
                            Z-MATRIX (ANGSTROMS AND DEGREES)
   CD    Cent   Atom    N1       Length/X        N2       Alpha/Y        N3        Beta/Z          J
 ---------------------------------------------------------------------------------------------------
      1         X 
      2         X        1   1.000000(     1)
      3      1  C        1   1.000000(     2)      2   90.000(     9)
      4      2  N        1   1.242600(     3)      2   90.000(    10)      3   71.843(    16)      0
      5      3  N        1   1.333000(     4)      2   90.000(    11)      3  133.703(    17)      0
      6      4  N        1   1.114600(     5)      2   90.000(    12)      3  194.460(    18)      0
      7      5  N        1   0.926400(     6)      2   90.000(    13)      3  276.077(    19)      0
      8      6  H        3   1.067800(     7)      4  125.025(    14)      5  180.000(    20)      0
      9      7  H        4   0.994100(     8)      5  120.763(    15)      6  180.000(    21)      0
 ---------------------------------------------------------------------------------------------------
                         Z-Matrix orientation:                         
 ---------------------------------------------------------------------
 Center     Atomic      Atomic             Coordinates (Angstroms)
 Number     Number       Type             X           Y           Z
 ---------------------------------------------------------------------
      1         -1           0        0.000000    0.000000    0.000000
      2         -1           0        0.000000    0.000000    1.000000
      3          6           0        1.000000    0.000000    0.000000
      4          7           0        0.387228   -1.180724    0.000000
      5          7           0       -0.920993   -0.963670    0.000000
      6          7           0       -1.079293    0.278314    0.000000
      7          7           0        0.098070    0.921194    0.000000
      8          1           0        2.058429    0.141157    0.000000
      9          1           0        0.749017   -2.106652    0.000000
 ---------------------------------------------------------------------
                    Distance matrix (angstroms):
                    1          2          3          4          5
     1  X    0.000000
     2  X    1.000000   0.000000
     3  C    1.000000   1.414214   0.000000
     4  N    1.242600   1.595009   1.330263   0.000000
     5  N    1.333000   1.666400   2.149157   1.326105   0.000000
     6  N    1.114600   1.497442   2.097837   2.068690   1.252032
     7  N    0.926400   1.363164   1.289216   2.121715   2.142710
     8  H    2.063263   2.292827   1.067800   2.130794   3.177672
     9  H    2.235847   2.449288   2.121551   0.994100   2.023695
                    6          7          8          9
     6  N    0.000000
     7  N    1.341447   0.000000
     8  H    3.140719   2.109850   0.000000
     9  H    3.005127   3.097029   2.601385   0.000000
 Stoichiometry    CH2N4
 Framework group  CS[SG(CH2N4)]
 Deg. of freedom    11
 Full point group                 CS      NOp   2
 Largest Abelian subgroup         CS      NOp   2
 Largest concise Abelian subgroup C1      NOp   1
                         Standard orientation:                         
 ---------------------------------------------------------------------
 Center     Atomic      Atomic             Coordinates (Angstroms)
 Number     Number       Type             X           Y           Z
 ---------------------------------------------------------------------
      1          6           0        1.052733    0.225621    0.000000
      2          7           0        0.000000    1.038857    0.000000
      3          7           0       -1.095416    0.291448    0.000000
      4          7           0       -0.716382   -0.901832    0.000000
      5          7           0        0.622191   -0.989579    0.000000
      6          1           0        2.072287    0.542964    0.000000
      7          1           0       -0.061439    2.031056    0.000000
 ---------------------------------------------------------------------
 Rotational constants (GHZ):     10.9201517     10.7345054      5.4132664
 Standard basis: 6-31G(d) (6D, 7F)
 There are    59 symmetry adapted cartesian basis functions of A'  symmetry.
 There are    20 symmetry adapted cartesian basis functions of A"  symmetry.
 There are    59 symmetry adapted basis functions of A'  symmetry.
 There are    20 symmetry adapted basis functions of A"  symmetry.
    79 basis functions,   148 primitive gaussians,    79 cartesian basis functions
    18 alpha electrons       18 beta electrons
       nuclear repulsion energy       169.8308489506 Hartrees.
 NAtoms=    7 NActive=    7 NUniq=    7 SFac= 1.00D+00 NAtFMM=   60 NAOKFM=F Big=F
 Integral buffers will be    131072 words long.
 Raffenetti 2 integral format.
 Two-electron integral symmetry is turned on.
 One-electron integrals computed using PRISM.
 NBasis=    79 RedAO= T EigKep=  3.48D-03  NBF=    59    20
 NBsUse=    79 1.00D-06 EigRej= -1.00D+00 NBFU=    59    20
 ExpMin= 1.61D-01 ExpMax= 4.17D+03 ExpMxC= 6.27D+02 IAcc=1 IRadAn=         1 AccDes= 0.00D+00
 Harris functional with IExCor= 1009 and IRadAn=       1 diagonalized for initial guess.
 HarFok:  IExCor= 1009 AccDes= 0.00D+00 IRadAn=         1 IDoV= 1 UseB2=F ITyADJ=14
 ICtDFT=  3500011 ScaDFX=  1.000000  1.000000  1.000000  1.000000
 FoFCou: FMM=F IPFlag=           0 FMFlag=      100000 FMFlg1=           0
         NFxFlg=           0 DoJE=T BraDBF=F KetDBF=T FulRan=T
         wScrn=  0.000000 ICntrl=     500 IOpCl=  0 I1Cent=   200000004 NGrid=           0
         NMat0=    1 NMatS0=      1 NMatT0=    0 NMatD0=    1 NMtDS0=    0 NMtDT0=    0
 Petite list used in FoFCou.
 Initial guess orbital symmetries:
       Occupied  (A') (A') (A') (A') (A') (A') (A') (A') (A') (A')
                 (A') (A') (A") (A') (A") (A') (A") (A')
       Virtual   (A") (A") (A') (A') (A') (A') (A') (A') (A') (A')
                 (A") (A') (A') (A') (A') (A') (A") (A") (A') (A")
                 (A') (A") (A') (A') (A') (A') (A') (A') (A') (A")
                 (A") (A") (A') (A') (A") (A") (A') (A') (A') (A')
                 (A') (A') (A") (A") (A') (A') (A") (A") (A') (A')
                 (A") (A') (A') (A') (A') (A') (A') (A') (A') (A')
                 (A')
 The electronic state of the initial guess is 1-A'.
 Keep R1 ints in memory in symmetry-blocked form, NReq=7698310.
 Requested convergence on RMS density matrix=1.00D-08 within 128 cycles.
 Requested convergence on MAX density matrix=1.00D-06.
 Requested convergence on             energy=1.00D-06.
 No special actions if energy rises.
 Integral accuracy reduced to 1.0D-05 until final iterations.
 Initial convergence to 1.0D-05 achieved.  Increase integral accuracy.
 SCF Done:  E(RM062X) =  -258.148384143     A.U. after   16 cycles
            NFock= 16  Conv=0.39D-08     -V/T= 2.0067

 **********************************************************************

            Population analysis using the SCF density.

 **********************************************************************

 Orbital symmetries:
       Occupied  (A') (A') (A') (A') (A') (A') (A') (A') (A') (A')
                 (A') (A") (A') (A') (A") (A") (A') (A')
       Virtual   (A") (A") (A') (A') (A') (A') (A') (A') (A') (A")
                 (A') (A') (A') (A') (A") (A') (A') (A") (A') (A")
                 (A') (A") (A') (A') (A') (A') (A') (A') (A') (A")
                 (A") (A") (A') (A') (A") (A") (A') (A') (A') (A')
                 (A') (A') (A") (A") (A') (A') (A") (A") (A') (A')
                 (A") (A') (A') (A') (A') (A') (A') (A') (A') (A')
                 (A')
 The electronic state is 1-A'.
 Alpha  occ. eigenvalues --  -14.87380 -14.84030 -14.82002 -14.78772 -10.63700
 Alpha  occ. eigenvalues --   -1.28902  -1.06623  -1.01338  -0.77466  -0.75892
 Alpha  occ. eigenvalues --   -0.68800  -0.59255  -0.57497  -0.46111  -0.39711
 Alpha  occ. eigenvalues --   -0.37538  -0.37337  -0.35799
 Alpha virt. eigenvalues --    0.03762   0.07941   0.10681   0.16328   0.24925
 Alpha virt. eigenvalues --    0.25588   0.35337   0.37890   0.49910   0.56951
 Alpha virt. eigenvalues --    0.58034   0.65426   0.66035   0.72318   0.72818
 Alpha virt. eigenvalues --    0.73907   0.75286   0.76959   0.78629   0.85541
 Alpha virt. eigenvalues --    0.88439   0.89974   0.90227   0.92896   0.98641
 Alpha virt. eigenvalues --    1.05390   1.09929   1.13467   1.28227   1.32954
 Alpha virt. eigenvalues --    1.39226   1.42938   1.45045   1.50456   1.61769
 Alpha virt. eigenvalues --    1.63638   1.70412   1.92722   2.01147   2.09802
 Alpha virt. eigenvalues --    2.13607   2.23890   2.24916   2.30173   2.38085
 Alpha virt. eigenvalues --    2.42556   2.43930   2.50933   2.59724   2.60866
 Alpha virt. eigenvalues --    2.70217   2.71945   2.76424   3.01437   3.04256
 Alpha virt. eigenvalues --    3.08740   3.52688   3.65320   4.00375   4.07824
 Alpha virt. eigenvalues --    4.19671
          Condensed to atoms (all electrons):
               1          2          3          4          5          6
     1  C    4.847758   0.310231  -0.117302  -0.108968   0.440781   0.386274
     2  N    0.310231   6.851419   0.197896  -0.098356  -0.077139  -0.042720
     3  N   -0.117302   0.197896   6.760968   0.296684  -0.086406   0.002325
     4  N   -0.108968  -0.098356   0.296684   6.696587   0.283453   0.004497
     5  N    0.440781  -0.077139  -0.086406   0.283453   6.782445  -0.028965
     6  H    0.386274  -0.042720   0.002325   0.004497  -0.028965   0.448770
     7  H   -0.024111   0.315356  -0.024623   0.006414   0.005204   0.000947
               7
     1  C   -0.024111
     2  N    0.315356
     3  N   -0.024623
     4  N    0.006414
     5  N    0.005204
     6  H    0.000947
     7  H    0.329109
 Mulliken charges:
               1
     1  C    0.265337
     2  N   -0.456687
     3  N   -0.029542
     4  N   -0.080311
     5  N   -0.319373
     6  H    0.228872
     7  H    0.391703
 Sum of Mulliken charges =   0.00000
 Mulliken charges with hydrogens summed into heavy atoms:
               1
     1  C    0.494209
     2  N   -0.064983
     3  N   -0.029542
     4  N   -0.080311
     5  N   -0.319373
 Electronic spatial extent (au):  <R**2>=            243.8995
 Charge=              0.0000 electrons
 Dipole moment (field-independent basis, Debye):
    X=              2.4618    Y=              4.7733    Z=              0.0000  Tot=              5.3708
 Quadrupole moment (field-independent basis, Debye-Ang):
   XX=            -28.5534   YY=            -26.0669   ZZ=            -28.1235
   XY=              1.7497   XZ=              0.0000   YZ=              0.0000
 Traceless Quadrupole moment (field-independent basis, Debye-Ang):
   XX=             -0.9721   YY=              1.5143   ZZ=             -0.5423
   XY=              1.7497   XZ=              0.0000   YZ=              0.0000
 Octapole moment (field-independent basis, Debye-Ang**2):
  XXX=             11.4490  YYY=             21.9494  ZZZ=              0.0000  XYY=             -0.6138
  XXY=              4.4792  XXZ=              0.0000  XZZ=             -0.6251  YZZ=              0.5253
  YYZ=              0.0000  XYZ=              0.0000
 Hexadecapole moment (field-independent basis, Debye-Ang**3):
 XXXX=           -137.0308 YYYY=           -115.1319 ZZZZ=            -24.4956 XXXY=              6.1688
 XXXZ=              0.0000 YYYX=             -0.4762 YYYZ=              0.0000 ZZZX=              0.0000
 ZZZY=              0.0000 XXYY=            -51.4709 XXZZ=            -29.2089 YYZZ=            -27.6240
 XXYZ=              0.0000 YYXZ=              0.0000 ZZXY=             -0.1065
 N-N= 1.698308489506D+02 E-N=-9.415450505149D+02  KE= 2.564327533198D+02
 Symmetry A'   KE= 2.471021407354D+02
 Symmetry A"   KE= 9.330612584474D+00
 Calling FoFJK, ICntrl=      2127 FMM=F ISym2X=1 I1Cent= 0 IOpClX= 0 NMat=1 NMatS=1 NMatT=0.
 ***** Axes restored to original set *****
 -------------------------------------------------------------------
 Center     Atomic                   Forces (Hartrees/Bohr)
 Number     Number              X              Y              Z
 -------------------------------------------------------------------
      1        6           0.018449238   -0.004263208    0.000000000
      2        7           0.003434671   -0.003011048    0.000000000
      3        7          -0.012641561   -0.036922278    0.000000000
      4        7          -0.018465690    0.030599805    0.000000000
      5        7          -0.004198097    0.026708608    0.000000000
      6        1           0.008489220    0.000913859    0.000000000
      7        1           0.004932219   -0.014025739    0.000000000
 -------------------------------------------------------------------
 Cartesian Forces:  Max     0.036922278 RMS     0.014150097
 -----------------------------------------------------------------------------------------------
                       Internal Coordinate Forces (Hartree/Bohr or radian)
  Cent   Atom   N1       Length/X         N2         Alpha/Y        N3         Beta/Z          J
 -----------------------------------------------------------------------------------------------
         X 
         X        1   0.000000(     1)
      1  C        1   0.027093(     2)      2   0.000000(     9)
      2  N        1   0.019011(     3)      2   0.000000(    10)      3  -0.005500(    16)     0
      3  N        1   0.035110(     4)      2   0.000000(    11)      3  -0.040696(    17)     0
      4  N        1   0.025522(     5)      2   0.000000(    12)      3   0.052699(    18)     0
      5  N        1   0.026114(     6)      2   0.000000(    13)      3  -0.012258(    19)     0
      6  H        3   0.008536(     7)      4  -0.000437(    14)      5   0.000000(    20)     0
      7  H        4   0.014859(     8)      5  -0.000959(    15)      6   0.000000(    21)     0
 -----------------------------------------------------------------------------------------------
 Internal  Forces:  Max     0.052698601 RMS     0.020201429

 GradGradGradGradGradGradGradGradGradGradGradGradGradGradGradGradGradGrad
 Berny optimization.
 Search for a local minimum.
 Step number   1 out of a maximum of   22
 All quantities printed in internal units (Hartrees-Bohrs-Radians)
 Second derivative matrix not updated -- first step.
 The second derivative matrix:
                          rn1       rn2       rn3       rn4       rch
           rn1          0.65186
           rn2          0.01318   0.69869
           rn3          0.03472   0.07334   0.58262
           rn4          0.03688   0.02662   0.13967   0.63921
           rch          0.00000   0.00000   0.00000   0.00000   0.37510
           rnh          0.00000   0.00000   0.00000   0.00000   0.00000
           an1          0.02012  -0.75016   0.04258  -0.08486   0.00000
           an2          0.72119  -0.31234  -0.71865   0.05436   0.00000
           an3         -0.02914   1.04797   0.05412  -0.58583   0.00000
           an4          0.05328  -0.03228   0.65851  -0.10009   0.00000
           ach          0.04546   0.00000   0.00000   0.05066   0.00000
           anh         -0.10206   0.05276   0.00000   0.00000   0.00000
                          rnh       an1       an2       an3       an4
           rnh          0.48741
           an1          0.00000   4.53257
           an2          0.00000  -2.68051   6.02300
           an3          0.00000  -0.03573  -3.19618   4.47465
           an4          0.00000  -0.12258  -0.06592  -1.16042   2.58479
           ach          0.00000  -0.10460   0.00000   0.00000   0.07318
           anh          0.00000   0.03519  -0.09059   0.00000   0.00000
                          ach       anh
           ach          0.32000
           anh          0.00000   0.32000
 ITU=  0
     Eigenvalues ---    0.00000   0.13346   0.26445   0.33044   0.37510
     Eigenvalues ---    0.40158   0.48741   0.75609   1.20990   2.99509
     Eigenvalues ---    5.09563   9.64077
 RFO step:  Lambda=-4.89884615D-03 EMin=-6.95624114D-16
 Linear search not attempted -- first point.
 Variable       Old X    -DE/DX   Delta X   Delta X   Delta X     New X
                                 (Linear)    (Quad)   (Total)
   rn1        2.34817   0.01901   0.00000  -0.00065  -0.00065   2.34752
   rn2        2.51900   0.03511   0.00000   0.03768   0.03768   2.55668
   rn3        2.10629   0.02552   0.00000   0.05606   0.05606   2.16235
   rn4        1.75064   0.02611   0.00000   0.04716   0.04716   1.79781
   rch        2.01785   0.00854   0.00000   0.02246   0.02246   2.04031
   rnh        1.87858   0.01486   0.00000   0.03018   0.03018   1.90876
   an1        1.25389  -0.00550   0.00000   0.01800   0.01800   1.27189
   an2        2.33355  -0.04070   0.00000   0.02130   0.02130   2.35485
   an3        3.39396   0.05270   0.00000   0.02243   0.02243   3.41639
   an4        4.81845  -0.01226   0.00000  -0.00519  -0.00519   4.81326
   ach        2.18209  -0.00044   0.00000  -0.00164  -0.00164   2.18045
   anh        2.10770  -0.00096   0.00000  -0.00528  -0.00528   2.10242
         Item               Value     Threshold  Converged?
 Maximum Force            0.052699     0.000450     NO 
 RMS     Force            0.025554     0.000300     NO 
 Maximum Displacement     0.056060     0.001800     NO 
 RMS     Displacement     0.028197     0.001200     NO 
 Predicted change in Energy=-2.472792D-03
 GradGradGradGradGradGradGradGradGradGradGradGradGradGradGradGradGradGrad

 ---------------------------------------------------------------------------------------------------
                            Z-MATRIX (ANGSTROMS AND DEGREES)
   CD    Cent   Atom    N1       Length/X        N2       Alpha/Y        N3        Beta/Z          J
 ---------------------------------------------------------------------------------------------------
      1         X 
      2         X        1   1.000000(     1)
      3      1  C        1   1.000000(     2)      2   90.000(     9)
      4      2  N        1   1.242256(     3)      2   90.000(    10)      3   72.874(    16)      0
      5      3  N        1   1.352937(     4)      2   90.000(    11)      3  134.923(    17)      0
      6      4  N        1   1.144266(     5)      2   90.000(    12)      3  195.745(    18)      0
      7      5  N        1   0.951358(     6)      2   90.000(    13)      3  275.779(    19)      0
      8      6  H        3   1.079687(     7)      4  124.931(    14)      5  180.000(    20)      0
      9      7  H        4   1.010072(     8)      5  120.460(    15)      6  180.000(    21)      0
 ---------------------------------------------------------------------------------------------------
                         Z-Matrix orientation:                         
 ---------------------------------------------------------------------
 Center     Atomic      Atomic             Coordinates (Angstroms)
 Number     Number       Type             X           Y           Z
 ---------------------------------------------------------------------
      1         -1           0        0.000000    0.000000    0.000000
      2         -1           0        0.000000    0.000000    1.000000
      3          6           0        1.000000    0.000000    0.000000
      4          7           0        0.365816   -1.187172    0.000000
      5          7           0       -0.955385   -0.957955    0.000000
      6          7           0       -1.101332    0.310502    0.000000
      7          7           0        0.095800    0.946523    0.000000
      8          1           0        2.072048    0.128206    0.000000
      9          1           0        0.721490   -2.132551    0.000000
 ---------------------------------------------------------------------
                    Distance matrix (angstroms):
                    1          2          3          4          5
     1  X    0.000000
     2  X    1.000000   0.000000
     3  C    1.000000   1.414214   0.000000
     4  N    1.242256   1.594741   1.345945   0.000000
     5  N    1.352937   1.682391   2.177432   1.340937   0.000000
     6  N    1.144266   1.519652   2.124149   2.096557   1.276826
     7  N    0.951358   1.380247   1.309000   2.150712   2.175322
     8  H    2.076010   2.304304   1.079687   2.154402   3.216379
     9  H    2.251293   2.463396   2.150661   1.010072   2.047336
                    6          7          8          9
     6  N    0.000000
     7  N    1.355599   0.000000
     8  H    3.178611   2.138970   0.000000
     9  H    3.048145   3.142003   2.633445   0.000000
 Stoichiometry    CH2N4
 Framework group  CS[SG(CH2N4)]
 Deg. of freedom    11
 Full point group                 CS      NOp   2
 Largest Abelian subgroup         CS      NOp   2
 Largest concise Abelian subgroup C1      NOp   1
                         Standard orientation:                         
 ---------------------------------------------------------------------
 Center     Atomic      Atomic             Coordinates (Angstroms)
 Number     Number       Type             X           Y           Z
 ---------------------------------------------------------------------
      1          6           0        1.065674    0.229383    0.000000
      2          7           0        0.000000    1.051517    0.000000
      3          7           0       -1.110609    0.300079    0.000000
      4          7           0       -0.722912   -0.916464    0.000000
      5          7           0        0.629798   -1.004916    0.000000
      6          1           0        2.095840    0.552619    0.000000
      7          1           0       -0.063818    2.059571    0.000000
 ---------------------------------------------------------------------
 Rotational constants (GHZ):     10.6286205     10.4501940      5.2693260
 Standard basis: 6-31G(d) (6D, 7F)
 There are    59 symmetry adapted cartesian basis functions of A'  symmetry.
 There are    20 symmetry adapted cartesian basis functions of A"  symmetry.
 There are    59 symmetry adapted basis functions of A'  symmetry.
 There are    20 symmetry adapted basis functions of A"  symmetry.
    79 basis functions,   148 primitive gaussians,    79 cartesian basis functions
    18 alpha electrons       18 beta electrons
       nuclear repulsion energy       167.5359854031 Hartrees.
 NAtoms=    7 NActive=    7 NUniq=    7 SFac= 1.00D+00 NAtFMM=   60 NAOKFM=F Big=F
 Integral buffers will be    131072 words long.
 Raffenetti 2 integral format.
 Two-electron integral symmetry is turned on.
 One-electron integrals computed using PRISM.
 NBasis=    79 RedAO= T EigKep=  3.72D-03  NBF=    59    20
 NBsUse=    79 1.00D-06 EigRej= -1.00D+00 NBFU=    59    20
 Initial guess from the checkpoint file:  "/tmp/rdj3/g09-23219/Gau-14568.chk"
 B after Tr=     0.000000    0.000000    0.000000
         Rot=    1.000000    0.000000    0.000000    0.000006 Ang=   0.00 deg.
 Initial guess orbital symmetries:
       Occupied  (A') (A') (A') (A') (A') (A') (A') (A') (A') (A')
                 (A') (A") (A') (A') (A") (A") (A') (A')
       Virtual   (A') (A') (A') (A') (A') (A') (A') (A') (A') (A')
                 (A') (A') (A') (A') (A') (A') (A') (A') (A') (A')
                 (A') (A') (A') (A') (A') (A') (A') (A') (A') (A')
                 (A') (A') (A') (A') (A') (A') (A') (A') (A') (A')
                 (A') (A') (A') (A') (A") (A") (A") (A") (A") (A")
                 (A") (A") (A") (A") (A") (A") (A") (A") (A") (A")
                 (A")
 ExpMin= 1.61D-01 ExpMax= 4.17D+03 ExpMxC= 6.27D+02 IAcc=1 IRadAn=         1 AccDes= 0.00D+00
 Harris functional with IExCor= 1009 and IRadAn=       1 diagonalized for initial guess.
 HarFok:  IExCor= 1009 AccDes= 0.00D+00 IRadAn=         1 IDoV= 1 UseB2=F ITyADJ=14
 ICtDFT=  3500011 ScaDFX=  1.000000  1.000000  1.000000  1.000000
 FoFCou: FMM=F IPFlag=           0 FMFlag=      100000 FMFlg1=           0
         NFxFlg=           0 DoJE=T BraDBF=F KetDBF=T FulRan=T
         wScrn=  0.000000 ICntrl=     500 IOpCl=  0 I1Cent=   200000004 NGrid=           0
         NMat0=    1 NMatS0=      1 NMatT0=    0 NMatD0=    1 NMtDS0=    0 NMtDT0=    0
 Petite list used in FoFCou.
 Keep R1 ints in memory in symmetry-blocked form, NReq=7698310.
 Requested convergence on RMS density matrix=1.00D-08 within 128 cycles.
 Requested convergence on MAX density matrix=1.00D-06.
 Requested convergence on             energy=1.00D-06.
 No special actions if energy rises.
 Integral accuracy reduced to 1.0D-05 until final iterations.
 Initial convergence to 1.0D-05 achieved.  Increase integral accuracy.
 SCF Done:  E(RM062X) =  -258.150845984     A.U. after   14 cycles
            NFock= 14  Conv=0.52D-08     -V/T= 2.0079
 Calling FoFJK, ICntrl=      2127 FMM=F ISym2X=1 I1Cent= 0 IOpClX= 0 NMat=1 NMatS=1 NMatT=0.
 ***** Axes restored to original set *****
 -------------------------------------------------------------------
 Center     Atomic                   Forces (Hartrees/Bohr)
 Number     Number              X              Y              Z
 -------------------------------------------------------------------
      1        6           0.000822039   -0.002151312    0.000000000
      2        7           0.000433156    0.003648419    0.000000000
      3        7          -0.000097248   -0.006063517    0.000000000
      4        7           0.000047229    0.004784358    0.000000000
      5        7          -0.000249748   -0.000310554    0.000000000
      6        1          -0.000691705   -0.000144273    0.000000000
      7        1          -0.000263724    0.000236879    0.000000000
 -------------------------------------------------------------------
 Cartesian Forces:  Max     0.006063517 RMS     0.001942681
 -----------------------------------------------------------------------------------------------
                       Internal Coordinate Forces (Hartree/Bohr or radian)
  Cent   Atom   N1       Length/X         N2         Alpha/Y        N3         Beta/Z          J
 -----------------------------------------------------------------------------------------------
         X 
         X        1   0.000000(     1)
      1  C        1   0.000174(     2)      2   0.000000(     9)
      2  N        1  -0.003588(     3)      2   0.000000(    10)      3  -0.002854(    16)     0
      3  N        1   0.004261(     4)      2   0.000000(    11)      3  -0.010590(    17)     0
      4  N        1   0.001253(     5)      2   0.000000(    12)      3   0.009985(    18)     0
      5  N        1  -0.000334(     6)      2   0.000000(    13)      3  -0.000390(    19)     0
      6  H        3  -0.000704(     7)      4  -0.000125(    14)      5   0.000000(    20)     0
      7  H        4  -0.000315(     8)      5  -0.000312(    15)      6   0.000000(    21)     0
 -----------------------------------------------------------------------------------------------
 Internal  Forces:  Max     0.010590244 RMS     0.003475100

 GradGradGradGradGradGradGradGradGradGradGradGradGradGradGradGradGradGrad
 Berny optimization.
 Search for a local minimum.
 Step number   2 out of a maximum of   22
 All quantities printed in internal units (Hartrees-Bohrs-Radians)
 Update second derivatives using D2CorN and points    1    2
 DE= -2.46D-03 DEPred=-2.47D-03 R= 9.96D-01
 TightC=F SS=  1.41D+00  RLast= 9.77D-02 DXNew= 5.0454D-01 2.9303D-01
 Trust test= 9.96D-01 RLast= 9.77D-02 DXMaxT set to 3.00D-01
 The second derivative matrix:
                          rn1       rn2       rn3       rn4       rch
           rn1          0.65162
           rn2          0.02040   0.68259
           rn3          0.04529   0.05943   0.57687
           rn4          0.04573   0.01765   0.13891   0.64201
           rch          0.00419  -0.00319   0.00124   0.00268   0.37701
           rnh          0.00565  -0.00554  -0.00019   0.00204   0.00183
           an1          0.02340  -0.74820   0.05030  -0.07705   0.00423
           an2          0.72483  -0.29577  -0.68832   0.08142   0.01350
           an3         -0.02459   1.02368   0.02396  -0.60957  -0.01067
           an4          0.05229  -0.03045   0.65985  -0.09934   0.00021
           ach          0.04515   0.00058   0.00043   0.05089   0.00007
           anh         -0.10306   0.05445   0.00111   0.00055   0.00011
                          rnh       an1       an2       an3       an4
           rnh          0.48887
           an1          0.00509   4.53812
           an2          0.01743  -2.66714   6.04687
           an3         -0.01508  -0.04159  -3.19463   4.45144
           an4          0.00045  -0.12304  -0.06842  -1.15731   2.58459
           ach          0.00014  -0.10474  -0.00079   0.00099   0.07311
           anh          0.00032   0.03464  -0.09323   0.00307  -0.00018
                          ach       anh
           ach          0.31998
           anh         -0.00006   0.31984
 ITU=  1  0
     Eigenvalues ---   -0.00017   0.13005   0.26451   0.33005   0.37692
     Eigenvalues ---    0.39974   0.48877   0.76431   1.20962   2.99370
     Eigenvalues ---    5.08887   9.63344
 RFO step:  Lambda=-4.43895659D-04 EMin=-1.71734891D-04
 Quartic linear search produced a step of  0.03254.
 Maximum step size (   0.300) exceeded in Quadratic search.
    -- Step size scaled by   0.300
 Variable       Old X    -DE/DX   Delta X   Delta X   Delta X     New X
                                 (Linear)    (Quad)   (Total)
   rn1        2.34752  -0.00359  -0.00002  -0.13982  -0.13984   2.20769
   rn2        2.55668   0.00426   0.00123  -0.09754  -0.09631   2.46037
   rn3        2.16235   0.00125   0.00182   0.03635   0.03818   2.20052
   rn4        1.79781  -0.00033   0.00153   0.13986   0.14139   1.93920
   rch        2.04031  -0.00070   0.00073  -0.00191  -0.00118   2.03913
   rnh        1.90876  -0.00031   0.00098  -0.00088   0.00010   1.90886
   an1        1.27189  -0.00285   0.00059   0.05614   0.05673   1.32861
   an2        2.35485  -0.01059   0.00069   0.11331   0.11400   2.46885
   an3        3.41639   0.00998   0.00073   0.14023   0.14096   3.55735
   an4        4.81326  -0.00039  -0.00017   0.06621   0.06604   4.87930
   ach        2.18045  -0.00012  -0.00005   0.00060   0.00054   2.18100
   anh        2.10242  -0.00031  -0.00017  -0.00345  -0.00362   2.09880
         Item               Value     Threshold  Converged?
 Maximum Force            0.010590     0.000450     NO 
 RMS     Force            0.004597     0.000300     NO 
 Maximum Displacement     0.141394     0.001800     NO 
 RMS     Displacement     0.086958     0.001200     NO 
 Predicted change in Energy=-1.090926D-04
 GradGradGradGradGradGradGradGradGradGradGradGradGradGradGradGradGradGrad

 ---------------------------------------------------------------------------------------------------
                            Z-MATRIX (ANGSTROMS AND DEGREES)
   CD    Cent   Atom    N1       Length/X        N2       Alpha/Y        N3        Beta/Z          J
 ---------------------------------------------------------------------------------------------------
      1         X 
      2         X        1   1.000000(     1)
      3      1  C        1   1.000000(     2)      2   90.000(     9)
      4      2  N        1   1.168257(     3)      2   90.000(    10)      3   76.124(    16)      0
      5      3  N        1   1.301971(     4)      2   90.000(    11)      3  141.455(    17)      0
      6      4  N        1   1.164467(     5)      2   90.000(    12)      3  203.821(    18)      0
      7      5  N        1   1.026181(     6)      2   90.000(    13)      3  279.563(    19)      0
      8      6  H        3   1.079063(     7)      4  124.962(    14)      5  180.000(    20)      0
      9      7  H        4   1.010126(     8)      5  120.253(    15)      6  180.000(    21)      0
 ---------------------------------------------------------------------------------------------------
                         Z-Matrix orientation:                         
 ---------------------------------------------------------------------
 Center     Atomic      Atomic             Coordinates (Angstroms)
 Number     Number       Type             X           Y           Z
 ---------------------------------------------------------------------
      1         -1           0        0.000000    0.000000    0.000000
      2         -1           0        0.000000    0.000000    1.000000
      3          6           0        1.000000    0.000000    0.000000
      4          7           0        0.280173   -1.134163    0.000000
      5          7           0       -1.018294   -0.811298    0.000000
      6          7           0       -1.065265    0.470312    0.000000
      7          7           0        0.170484    1.011920    0.000000
      8          1           0        2.077987    0.048187    0.000000
      9          1           0        0.563496   -2.103741    0.000000
 ---------------------------------------------------------------------
                    Distance matrix (angstroms):
                    1          2          3          4          5
     1  X    0.000000
     2  X    1.000000   0.000000
     3  C    1.000000   1.414214   0.000000
     4  N    1.168257   1.537798   1.343308   0.000000
     5  N    1.301971   1.641684   2.175251   1.338006   0.000000
     6  N    1.164467   1.534921   2.118139   2.093931   1.282471
     7  N    1.026181   1.432846   1.308465   2.148885   2.176538
     8  H    2.078545   2.306589   1.079063   2.151764   3.213358
     9  H    2.177902   2.396509   2.148549   1.010126   2.042663
                    6          7          8          9
     6  N    0.000000
     7  N    1.349228   0.000000
     8  H    3.171470   2.137135   0.000000
     9  H    3.046082   3.140351   2.631441   0.000000
 Stoichiometry    CH2N4
 Framework group  CS[SG(CH2N4)]
 Deg. of freedom    11
 Full point group                 CS      NOp   2
 Largest Abelian subgroup         CS      NOp   2
 Largest concise Abelian subgroup C1      NOp   1
                         Standard orientation:                         
 ---------------------------------------------------------------------
 Center     Atomic      Atomic             Coordinates (Angstroms)
 Number     Number       Type             X           Y           Z
 ---------------------------------------------------------------------
      1          6           0        1.063151    0.228702    0.000000
      2          7           0        0.000000    1.049791    0.000000
      3          7           0       -1.110800    0.303880    0.000000
      4          7           0       -0.718345   -0.917066    0.000000
      5          7           0        0.627996   -1.005283    0.000000
      6          1           0        2.093069    0.550644    0.000000
      7          1           0       -0.063940    2.057891    0.000000
 ---------------------------------------------------------------------
 Rotational constants (GHZ):     10.6675879     10.4557622      5.2803065
 Standard basis: 6-31G(d) (6D, 7F)
 There are    59 symmetry adapted cartesian basis functions of A'  symmetry.
 There are    20 symmetry adapted cartesian basis functions of A"  symmetry.
 There are    59 symmetry adapted basis functions of A'  symmetry.
 There are    20 symmetry adapted basis functions of A"  symmetry.
    79 basis functions,   148 primitive gaussians,    79 cartesian basis functions
    18 alpha electrons       18 beta electrons
       nuclear repulsion energy       167.6936609920 Hartrees.
 NAtoms=    7 NActive=    7 NUniq=    7 SFac= 1.00D+00 NAtFMM=   60 NAOKFM=F Big=F
 Integral buffers will be    131072 words long.
 Raffenetti 2 integral format.
 Two-electron integral symmetry is turned on.
 One-electron integrals computed using PRISM.
 NBasis=    79 RedAO= T EigKep=  3.69D-03  NBF=    59    20
 NBsUse=    79 1.00D-06 EigRej= -1.00D+00 NBFU=    59    20
 Initial guess from the checkpoint file:  "/tmp/rdj3/g09-23219/Gau-14568.chk"
 B after Tr=     0.000000    0.000000    0.000000
         Rot=    1.000000    0.000000    0.000000    0.000136 Ang=   0.02 deg.
 Initial guess orbital symmetries:
       Occupied  (A') (A') (A') (A') (A') (A') (A') (A') (A') (A')
                 (A') (A") (A') (A') (A") (A') (A") (A')
       Virtual   (A') (A') (A') (A') (A') (A') (A') (A') (A') (A')
                 (A') (A') (A') (A') (A') (A') (A') (A') (A') (A')
                 (A') (A') (A') (A') (A') (A') (A') (A') (A') (A')
                 (A') (A') (A') (A') (A') (A') (A') (A') (A') (A')
                 (A') (A') (A') (A') (A") (A") (A") (A") (A") (A")
                 (A") (A") (A") (A") (A") (A") (A") (A") (A") (A")
                 (A")
 ExpMin= 1.61D-01 ExpMax= 4.17D+03 ExpMxC= 6.27D+02 IAcc=1 IRadAn=         1 AccDes= 0.00D+00
 Harris functional with IExCor= 1009 and IRadAn=       1 diagonalized for initial guess.
 HarFok:  IExCor= 1009 AccDes= 0.00D+00 IRadAn=         1 IDoV= 1 UseB2=F ITyADJ=14
 ICtDFT=  3500011 ScaDFX=  1.000000  1.000000  1.000000  1.000000
 FoFCou: FMM=F IPFlag=           0 FMFlag=      100000 FMFlg1=           0
         NFxFlg=           0 DoJE=T BraDBF=F KetDBF=T FulRan=T
         wScrn=  0.000000 ICntrl=     500 IOpCl=  0 I1Cent=   200000004 NGrid=           0
         NMat0=    1 NMatS0=      1 NMatT0=    0 NMatD0=    1 NMtDS0=    0 NMtDT0=    0
 Petite list used in FoFCou.
 Keep R1 ints in memory in symmetry-blocked form, NReq=7698310.
 Requested convergence on RMS density matrix=1.00D-08 within 128 cycles.
 Requested convergence on MAX density matrix=1.00D-06.
 Requested convergence on             energy=1.00D-06.
 No special actions if energy rises.
 Integral accuracy reduced to 1.0D-05 until final iterations.
 Initial convergence to 1.0D-05 achieved.  Increase integral accuracy.
 SCF Done:  E(RM062X) =  -258.150855774     A.U. after   14 cycles
            NFock= 14  Conv=0.64D-08     -V/T= 2.0079
 Calling FoFJK, ICntrl=      2127 FMM=F ISym2X=1 I1Cent= 0 IOpClX= 0 NMat=1 NMatS=1 NMatT=0.
 ***** Axes restored to original set *****
 -------------------------------------------------------------------
 Center     Atomic                   Forces (Hartrees/Bohr)
 Number     Number              X              Y              Z
 -------------------------------------------------------------------
      1        6           0.003997652   -0.001790387    0.000000000
      2        7           0.001024578    0.000744110    0.000000000
      3        7          -0.001257513    0.000007980    0.000000000
      4        7          -0.004672356    0.000277040    0.000000000
      5        7           0.000945198    0.000637495    0.000000000
      6        1          -0.000201418   -0.000213720    0.000000000
      7        1           0.000163859    0.000337482    0.000000000
 -------------------------------------------------------------------
 Cartesian Forces:  Max     0.004672356 RMS     0.001476902
 -----------------------------------------------------------------------------------------------
                       Internal Coordinate Forces (Hartree/Bohr or radian)
  Cent   Atom   N1       Length/X         N2         Alpha/Y        N3         Beta/Z          J
 -----------------------------------------------------------------------------------------------
         X 
         X        1   0.000000(     1)
      1  C        1   0.003935(     2)      2   0.000000(     9)
      2  N        1  -0.001052(     3)      2   0.000000(    10)      3  -0.003065(    16)     0
      3  N        1   0.001129(     4)      2   0.000000(    11)      3   0.001658(    17)     0
      4  N        1   0.004386(     5)      2   0.000000(    12)      3  -0.003595(    18)     0
      5  N        1   0.000786(     6)      2   0.000000(    13)      3   0.001602(    19)     0
      6  H        3  -0.000211(     7)      4  -0.000417(    14)      5   0.000000(    20)     0
      7  H        4  -0.000278(     8)      5   0.000481(    15)      6   0.000000(    21)     0
 -----------------------------------------------------------------------------------------------
 Internal  Forces:  Max     0.004386207 RMS     0.001771264

 GradGradGradGradGradGradGradGradGradGradGradGradGradGradGradGradGradGrad
 Berny optimization.
 Search for a local minimum.
 Step number   3 out of a maximum of   22
 All quantities printed in internal units (Hartrees-Bohrs-Radians)
 Update second derivatives using D2CorN and points    1    2    3
 DE= -9.79D-06 DEPred=-1.09D-04 R= 8.97D-02
 Trust test= 8.97D-02 RLast= 3.01D-01 DXMaxT set to 1.50D-01
 The second derivative matrix:
                          rn1       rn2       rn3       rn4       rch
           rn1          0.65459
           rn2          0.02076   0.68147
           rn3          0.04911   0.06170   0.57260
           rn4          0.04577   0.01906   0.13312   0.63842
           rch          0.00457  -0.00301   0.00079   0.00222   0.37702
           rnh          0.00585  -0.00547  -0.00075   0.00171   0.00185
           an1          0.02122  -0.74866   0.04932  -0.07566   0.00432
           an2          0.73066  -0.29089  -0.69470   0.07240   0.01300
           an3         -0.03449   1.01918   0.02263  -0.60188  -0.01069
           an4          0.05320  -0.02925   0.65717  -0.10195  -0.00009
           ach          0.04479   0.00040   0.00063   0.05133   0.00010
           anh         -0.10236   0.05482   0.00101  -0.00016   0.00007
                          rnh       an1       an2       an3       an4
           rnh          0.48889
           an1          0.00535   4.53979
           an2          0.01693  -2.66869   6.03491
           an3         -0.01471  -0.03603  -3.19475   4.46919
           an4          0.00017  -0.12311  -0.07312  -1.15518   2.58314
           ach          0.00019  -0.10458  -0.00047   0.00139   0.07328
           anh          0.00026   0.03424  -0.09358   0.00204  -0.00041
                          ach       anh
           ach          0.31998
           anh         -0.00007   0.31990
 ITU= -1  1  0
     Eigenvalues ---    0.00138   0.12934   0.26467   0.32980   0.37692
     Eigenvalues ---    0.39969   0.48879   0.76328   1.20962   2.99362
     Eigenvalues ---    5.08900   9.63380
 RFO step:  Lambda=-4.84684946D-05 EMin= 1.37971096D-03
 Quartic linear search produced a step of -0.46688.
 Variable       Old X    -DE/DX   Delta X   Delta X   Delta X     New X
                                 (Linear)    (Quad)   (Total)
   rn1        2.20769  -0.00105   0.06529  -0.01784   0.04745   2.25513
   rn2        2.46037   0.00113   0.04497  -0.00097   0.04400   2.50436
   rn3        2.20052   0.00439  -0.01782   0.01480  -0.00302   2.19750
   rn4        1.93920   0.00079  -0.06601   0.00802  -0.05799   1.88121
   rch        2.03913  -0.00021   0.00055  -0.00120  -0.00065   2.03849
   rnh        1.90886  -0.00028  -0.00005  -0.00054  -0.00059   1.90827
   an1        1.32861  -0.00307  -0.02648   0.00600  -0.02048   1.30813
   an2        2.46885   0.00166  -0.05322   0.01115  -0.04207   2.42678
   an3        3.55735  -0.00359  -0.06581   0.01032  -0.05549   3.50186
   an4        4.87930   0.00160  -0.03083   0.00233  -0.02850   4.85080
   ach        2.18100  -0.00042  -0.00025   0.00171   0.00145   2.18245
   anh        2.09880   0.00048   0.00169  -0.00268  -0.00099   2.09781
         Item               Value     Threshold  Converged?
 Maximum Force            0.004386     0.000450     NO 
 RMS     Force            0.002049     0.000300     NO 
 Maximum Displacement     0.057994     0.001800     NO 
 RMS     Displacement     0.033719     0.001200     NO 
 Predicted change in Energy=-4.334256D-05
 GradGradGradGradGradGradGradGradGradGradGradGradGradGradGradGradGradGrad

 ---------------------------------------------------------------------------------------------------
                            Z-MATRIX (ANGSTROMS AND DEGREES)
   CD    Cent   Atom    N1       Length/X        N2       Alpha/Y        N3        Beta/Z          J
 ---------------------------------------------------------------------------------------------------
      1         X 
      2         X        1   1.000000(     1)
      3      1  C        1   1.000000(     2)      2   90.000(     9)
      4      2  N        1   1.193364(     3)      2   90.000(    10)      3   74.951(    16)      0
      5      3  N        1   1.325253(     4)      2   90.000(    11)      3  139.044(    17)      0
      6      4  N        1   1.162868(     5)      2   90.000(    12)      3  200.642(    18)      0
      7      5  N        1   0.995492(     6)      2   90.000(    13)      3  277.930(    19)      0
      8      6  H        3   1.078721(     7)      4  125.045(    14)      5  180.000(    20)      0
      9      7  H        4   1.009813(     8)      5  120.196(    15)      6  180.000(    21)      0
 ---------------------------------------------------------------------------------------------------
                         Z-Matrix orientation:                         
 ---------------------------------------------------------------------
 Center     Atomic      Atomic             Coordinates (Angstroms)
 Number     Number       Type             X           Y           Z
 ---------------------------------------------------------------------
      1         -1           0        0.000000    0.000000    0.000000
      2         -1           0        0.000000    0.000000    1.000000
      3          6           0        1.000000    0.000000    0.000000
      4          7           0        0.309859   -1.152435    0.000000
      5          7           0       -1.000855   -0.868668    0.000000
      6          7           0       -1.088214    0.409942    0.000000
      7          7           0        0.137345    0.985972    0.000000
      8          1           0        2.075920    0.077680    0.000000
      9          1           0        0.621573   -2.112933    0.000000
 ---------------------------------------------------------------------
                    Distance matrix (angstroms):
                    1          2          3          4          5
     1  X    0.000000
     2  X    1.000000   0.000000
     3  C    1.000000   1.414214   0.000000
     4  N    1.193364   1.556958   1.343280   0.000000
     5  N    1.325253   1.660209   2.181285   1.341080   0.000000
     6  N    1.162868   1.533708   2.128072   2.096575   1.281590
     7  N    0.995492   1.411029   1.310082   2.145354   2.176049
     8  H    2.077373   2.305532   1.078721   2.152244   3.219025
     9  H    2.202462   2.418851   2.146553   1.009813   2.044619
                    6          7          8          9
     6  N    0.000000
     7  N    1.354181   0.000000
     8  H    3.181531   2.140810   0.000000
     9  H    3.047666   3.136509   2.629432   0.000000
 Stoichiometry    CH2N4
 Framework group  CS[SG(CH2N4)]
 Deg. of freedom    11
 Full point group                 CS      NOp   2
 Largest Abelian subgroup         CS      NOp   2
 Largest concise Abelian subgroup C1      NOp   1
                         Standard orientation:                         
 ---------------------------------------------------------------------
 Center     Atomic      Atomic             Coordinates (Angstroms)
 Number     Number       Type             X           Y           Z
 ---------------------------------------------------------------------
      1          6           0        1.067181    0.232772    0.000000
      2          7           0        0.000000    1.048568    0.000000
      3          7           0       -1.113052    0.300498    0.000000
      4          7           0       -0.721698   -0.919877    0.000000
      5          7           0        0.629978   -1.002205    0.000000
      6          1           0        2.095640    0.558213    0.000000
      7          1           0       -0.065320    2.056267    0.000000
 ---------------------------------------------------------------------
 Rotational constants (GHZ):     10.6205414     10.4510391      5.2675543
 Standard basis: 6-31G(d) (6D, 7F)
 There are    59 symmetry adapted cartesian basis functions of A'  symmetry.
 There are    20 symmetry adapted cartesian basis functions of A"  symmetry.
 There are    59 symmetry adapted basis functions of A'  symmetry.
 There are    20 symmetry adapted basis functions of A"  symmetry.
    79 basis functions,   148 primitive gaussians,    79 cartesian basis functions
    18 alpha electrons       18 beta electrons
       nuclear repulsion energy       167.4955071736 Hartrees.
 NAtoms=    7 NActive=    7 NUniq=    7 SFac= 1.00D+00 NAtFMM=   60 NAOKFM=F Big=F
 Integral buffers will be    131072 words long.
 Raffenetti 2 integral format.
 Two-electron integral symmetry is turned on.
 One-electron integrals computed using PRISM.
 NBasis=    79 RedAO= T EigKep=  3.72D-03  NBF=    59    20
 NBsUse=    79 1.00D-06 EigRej= -1.00D+00 NBFU=    59    20
 Initial guess from the checkpoint file:  "/tmp/rdj3/g09-23219/Gau-14568.chk"
 B after Tr=     0.000000    0.000000    0.000000
         Rot=    1.000000    0.000000    0.000000   -0.000849 Ang=  -0.10 deg.
 Initial guess orbital symmetries:
       Occupied  (A') (A') (A') (A') (A') (A') (A') (A') (A') (A')
                 (A') (A") (A') (A') (A") (A') (A") (A')
       Virtual   (A') (A') (A') (A') (A') (A') (A') (A') (A') (A')
                 (A') (A') (A') (A') (A') (A') (A') (A') (A') (A')
                 (A') (A') (A') (A') (A') (A') (A') (A') (A') (A')
                 (A') (A') (A') (A') (A') (A') (A') (A') (A') (A')
                 (A') (A') (A') (A') (A") (A") (A") (A") (A") (A")
                 (A") (A") (A") (A") (A") (A") (A") (A") (A") (A")
                 (A")
 ExpMin= 1.61D-01 ExpMax= 4.17D+03 ExpMxC= 6.27D+02 IAcc=1 IRadAn=         1 AccDes= 0.00D+00
 Harris functional with IExCor= 1009 and IRadAn=       1 diagonalized for initial guess.
 HarFok:  IExCor= 1009 AccDes= 0.00D+00 IRadAn=         1 IDoV= 1 UseB2=F ITyADJ=14
 ICtDFT=  3500011 ScaDFX=  1.000000  1.000000  1.000000  1.000000
 FoFCou: FMM=F IPFlag=           0 FMFlag=      100000 FMFlg1=           0
         NFxFlg=           0 DoJE=T BraDBF=F KetDBF=T FulRan=T
         wScrn=  0.000000 ICntrl=     500 IOpCl=  0 I1Cent=   200000004 NGrid=           0
         NMat0=    1 NMatS0=      1 NMatT0=    0 NMatD0=    1 NMtDS0=    0 NMtDT0=    0
 Petite list used in FoFCou.
 Keep R1 ints in memory in symmetry-blocked form, NReq=7698310.
 Requested convergence on RMS density matrix=1.00D-08 within 128 cycles.
 Requested convergence on MAX density matrix=1.00D-06.
 Requested convergence on             energy=1.00D-06.
 No special actions if energy rises.
 Integral accuracy reduced to 1.0D-05 until final iterations.
 Initial convergence to 1.0D-05 achieved.  Increase integral accuracy.
 SCF Done:  E(RM062X) =  -258.150878865     A.U. after   13 cycles
            NFock= 13  Conv=0.47D-08     -V/T= 2.0080
 Calling FoFJK, ICntrl=      2127 FMM=F ISym2X=1 I1Cent= 0 IOpClX= 0 NMat=1 NMatS=1 NMatT=0.
 ***** Axes restored to original set *****
 -------------------------------------------------------------------
 Center     Atomic                   Forces (Hartrees/Bohr)
 Number     Number              X              Y              Z
 -------------------------------------------------------------------
      1        6          -0.001973041   -0.000527337    0.000000000
      2        7          -0.000608269   -0.000434473    0.000000000
      3        7           0.001128338   -0.000978180    0.000000000
      4        7           0.001686734    0.000403527    0.000000000
      5        7          -0.000083882    0.001549692    0.000000000
      6        1          -0.000093303    0.000075556    0.000000000
      7        1          -0.000056578   -0.000088785    0.000000000
 -------------------------------------------------------------------
 Cartesian Forces:  Max     0.001973041 RMS     0.000768477
 -----------------------------------------------------------------------------------------------
                       Internal Coordinate Forces (Hartree/Bohr or radian)
  Cent   Atom   N1       Length/X         N2         Alpha/Y        N3         Beta/Z          J
 -----------------------------------------------------------------------------------------------
         X 
         X        1   0.000000(     1)
      1  C        1  -0.002123(     2)      2   0.000000(     9)
      2  N        1   0.000434(     3)      2   0.000000(    10)      3   0.001714(    16)     0
      3  N        1  -0.000260(     4)      2   0.000000(    11)      3  -0.003610(    17)     0
      4  N        1  -0.001436(     5)      2   0.000000(    12)      3   0.002136(    18)     0
      5  N        1   0.001523(     6)      2   0.000000(    13)      3  -0.000559(    19)     0
      6  H        3  -0.000088(     7)      4   0.000167(    14)      5   0.000000(    20)     0
      7  H        4   0.000067(     8)      5  -0.000155(    15)      6   0.000000(    21)     0
 -----------------------------------------------------------------------------------------------
 Internal  Forces:  Max     0.003610482 RMS     0.001196437

 GradGradGradGradGradGradGradGradGradGradGradGradGradGradGradGradGradGrad
 Berny optimization.
 Search for a local minimum.
 Step number   4 out of a maximum of   22
 All quantities printed in internal units (Hartrees-Bohrs-Radians)
 Update second derivatives using D2CorN and points    1    2    3    4
 DE= -2.31D-05 DEPred=-4.33D-05 R= 5.33D-01
 TightC=F SS=  1.41D+00  RLast= 1.17D-01 DXNew= 2.5227D-01 3.5042D-01
 Trust test= 5.33D-01 RLast= 1.17D-01 DXMaxT set to 2.52D-01
 The second derivative matrix:
                          rn1       rn2       rn3       rn4       rch
           rn1          0.65592
           rn2          0.02091   0.68021
           rn3          0.05181   0.06459   0.57426
           rn4          0.04501   0.01705   0.12860   0.64087
           rch          0.00509  -0.00275   0.00118   0.00190   0.37720
           rnh          0.00620  -0.00566  -0.00044   0.00151   0.00202
           an1          0.01950  -0.75113   0.04749  -0.07286   0.00429
           an2          0.73702  -0.28036  -0.69222   0.06646   0.01403
           an3         -0.04083   1.01130   0.01653  -0.59502  -0.01193
           an4          0.05397  -0.02764   0.65570  -0.10220  -0.00023
           ach          0.04449   0.00009   0.00066   0.05151   0.00009
           anh         -0.10195   0.05533   0.00092  -0.00034   0.00007
                          rnh       an1       an2       an3       an4
           rnh          0.48903
           an1          0.00532   4.54126
           an2          0.01872  -2.66897   6.02478
           an3         -0.01609  -0.03183  -3.19779   4.48196
           an4          0.00027  -0.12204  -0.07928  -1.15221   2.58161
           ach          0.00016  -0.10465   0.00009   0.00150   0.07353
           anh          0.00030   0.03431  -0.09472   0.00210  -0.00077
                          ach       anh
           ach          0.31994
           anh         -0.00003   0.31985
 ITU=  1 -1  1  0
     Eigenvalues ---    0.00261   0.13492   0.26522   0.33065   0.37709
     Eigenvalues ---    0.39965   0.48891   0.76304   1.20944   2.99367
     Eigenvalues ---    5.08864   9.63304
 RFO step:  Lambda=-5.00125257D-06 EMin= 2.60808627D-03
 Quartic linear search produced a step of -0.32085.
 Variable       Old X    -DE/DX   Delta X   Delta X   Delta X     New X
                                 (Linear)    (Quad)   (Total)
   rn1        2.25513   0.00043  -0.01522   0.01078  -0.00445   2.25068
   rn2        2.50436  -0.00026  -0.01412   0.00564  -0.00847   2.49589
   rn3        2.19750  -0.00144   0.00097  -0.00530  -0.00433   2.19317
   rn4        1.88121   0.00152   0.01861  -0.00670   0.01190   1.89311
   rch        2.03849  -0.00009   0.00021  -0.00031  -0.00010   2.03839
   rnh        1.90827   0.00007   0.00019  -0.00006   0.00013   1.90840
   an1        1.30813   0.00171   0.00657  -0.00458   0.00199   1.31012
   an2        2.42678  -0.00361   0.01350  -0.00895   0.00454   2.43133
   an3        3.50186   0.00214   0.01780  -0.00936   0.00845   3.51031
   an4        4.85080  -0.00056   0.00914  -0.00368   0.00546   4.85626
   ach        2.18245   0.00017  -0.00047  -0.00108  -0.00154   2.18091
   anh        2.09781  -0.00015   0.00032   0.00051   0.00083   2.09864
         Item               Value     Threshold  Converged?
 Maximum Force            0.003610     0.000450     NO 
 RMS     Force            0.001459     0.000300     NO 
 Maximum Displacement     0.011904     0.001800     NO 
 RMS     Displacement     0.005634     0.001200     NO 
 Predicted change in Energy=-1.615824D-05
 GradGradGradGradGradGradGradGradGradGradGradGradGradGradGradGradGradGrad

 ---------------------------------------------------------------------------------------------------
                            Z-MATRIX (ANGSTROMS AND DEGREES)
   CD    Cent   Atom    N1       Length/X        N2       Alpha/Y        N3        Beta/Z          J
 ---------------------------------------------------------------------------------------------------
      1         X 
      2         X        1   1.000000(     1)
      3      1  C        1   1.000000(     2)      2   90.000(     9)
      4      2  N        1   1.191010(     3)      2   90.000(    10)      3   75.064(    16)      0
      5      3  N        1   1.320769(     4)      2   90.000(    11)      3  139.305(    17)      0
      6      4  N        1   1.160577(     5)      2   90.000(    12)      3  201.126(    18)      0
      7      5  N        1   1.001791(     6)      2   90.000(    13)      3  278.243(    19)      0
      8      6  H        3   1.078669(     7)      4  124.957(    14)      5  180.000(    20)      0
      9      7  H        4   1.009883(     8)      5  120.243(    15)      6  180.000(    21)      0
 ---------------------------------------------------------------------------------------------------
                         Z-Matrix orientation:                         
 ---------------------------------------------------------------------
 Center     Atomic      Atomic             Coordinates (Angstroms)
 Number     Number       Type             X           Y           Z
 ---------------------------------------------------------------------
      1         -1           0        0.000000    0.000000    0.000000
      2         -1           0        0.000000    0.000000    1.000000
      3          6           0        1.000000    0.000000    0.000000
      4          7           0        0.306962   -1.150774    0.000000
      5          7           0       -1.001393   -0.861187    0.000000
      6          7           0       -1.082576    0.418292    0.000000
      7          7           0        0.143633    0.991441    0.000000
      8          1           0        2.076173    0.073344    0.000000
      9          1           0        0.615055   -2.112513    0.000000
 ---------------------------------------------------------------------
                    Distance matrix (angstroms):
                    1          2          3          4          5
     1  X    0.000000
     2  X    1.000000   0.000000
     3  C    1.000000   1.414214   0.000000
     4  N    1.191010   1.555155   1.343347   0.000000
     5  N    1.320769   1.656633   2.178811   1.340020   0.000000
     6  N    1.160577   1.531972   2.124168   2.095896   1.282052
     7  N    1.001791   1.415481   1.310084   2.148432   2.177916
     8  H    2.077468   2.305618   1.078669   2.151411   3.216327
     9  H    2.200228   2.416817   2.147299   1.009883   2.044192
                    6          7          8          9
     6  N    0.000000
     7  N    1.353547   0.000000
     8  H    3.177528   2.139535   0.000000
     9  H    3.047445   3.139549   2.629227   0.000000
 Stoichiometry    CH2N4
 Framework group  CS[SG(CH2N4)]
 Deg. of freedom    11
 Full point group                 CS      NOp   2
 Largest Abelian subgroup         CS      NOp   2
 Largest concise Abelian subgroup C1      NOp   1
                         Standard orientation:                         
 ---------------------------------------------------------------------
 Center     Atomic      Atomic             Coordinates (Angstroms)
 Number     Number       Type             X           Y           Z
 ---------------------------------------------------------------------
      1          6           0        1.065326    0.231140    0.000000
      2          7           0        0.000000    1.049468    0.000000
      3          7           0       -1.112326    0.302216    0.000000
      4          7           0       -0.720793   -0.918586    0.000000
      5          7           0        0.630024   -1.004511    0.000000
      6          1           0        2.093993    0.555747    0.000000
      7          1           0       -0.064285    2.057303    0.000000
 ---------------------------------------------------------------------
 Rotational constants (GHZ):     10.6318840     10.4464660      5.2691797
 Standard basis: 6-31G(d) (6D, 7F)
 There are    59 symmetry adapted cartesian basis functions of A'  symmetry.
 There are    20 symmetry adapted cartesian basis functions of A"  symmetry.
 There are    59 symmetry adapted basis functions of A'  symmetry.
 There are    20 symmetry adapted basis functions of A"  symmetry.
    79 basis functions,   148 primitive gaussians,    79 cartesian basis functions
    18 alpha electrons       18 beta electrons
       nuclear repulsion energy       167.5217034819 Hartrees.
 NAtoms=    7 NActive=    7 NUniq=    7 SFac= 1.00D+00 NAtFMM=   60 NAOKFM=F Big=F
 Integral buffers will be    131072 words long.
 Raffenetti 2 integral format.
 Two-electron integral symmetry is turned on.
 One-electron integrals computed using PRISM.
 NBasis=    79 RedAO= T EigKep=  3.71D-03  NBF=    59    20
 NBsUse=    79 1.00D-06 EigRej= -1.00D+00 NBFU=    59    20
 Initial guess from the checkpoint file:  "/tmp/rdj3/g09-23219/Gau-14568.chk"
 B after Tr=     0.000000    0.000000    0.000000
         Rot=    1.000000    0.000000    0.000000    0.000379 Ang=   0.04 deg.
 Initial guess orbital symmetries:
       Occupied  (A') (A') (A') (A') (A') (A') (A') (A') (A') (A')
                 (A') (A") (A') (A') (A") (A') (A") (A')
       Virtual   (A') (A') (A') (A') (A') (A') (A') (A') (A') (A')
                 (A') (A') (A') (A') (A') (A') (A') (A') (A') (A')
                 (A') (A') (A') (A') (A') (A') (A') (A') (A') (A')
                 (A') (A') (A') (A') (A') (A') (A') (A') (A') (A')
                 (A') (A') (A') (A') (A") (A") (A") (A") (A") (A")
                 (A") (A") (A") (A") (A") (A") (A") (A") (A") (A")
                 (A")
 Keep R1 ints in memory in symmetry-blocked form, NReq=7698310.
 Requested convergence on RMS density matrix=1.00D-08 within 128 cycles.
 Requested convergence on MAX density matrix=1.00D-06.
 Requested convergence on             energy=1.00D-06.
 No special actions if energy rises.
 SCF Done:  E(RM062X) =  -258.150888354     A.U. after    9 cycles
            NFock=  9  Conv=0.67D-08     -V/T= 2.0079
 Calling FoFJK, ICntrl=      2127 FMM=F ISym2X=1 I1Cent= 0 IOpClX= 0 NMat=1 NMatS=1 NMatT=0.
 ***** Axes restored to original set *****
 -------------------------------------------------------------------
 Center     Atomic                   Forces (Hartrees/Bohr)
 Number     Number              X              Y              Z
 -------------------------------------------------------------------
      1        6           0.000217560   -0.000440673    0.000000000
      2        7          -0.000093773    0.000552757    0.000000000
      3        7           0.000262012   -0.000159511    0.000000000
      4        7          -0.000336499    0.000488147    0.000000000
      5        7          -0.000107158   -0.000476965    0.000000000
      6        1           0.000023966   -0.000002719    0.000000000
      7        1           0.000033892    0.000038964    0.000000000
 -------------------------------------------------------------------
 Cartesian Forces:  Max     0.000552757 RMS     0.000243359
 -----------------------------------------------------------------------------------------------
                       Internal Coordinate Forces (Hartree/Bohr or radian)
  Cent   Atom   N1       Length/X         N2         Alpha/Y        N3         Beta/Z          J
 -----------------------------------------------------------------------------------------------
         X 
         X        1   0.000000(     1)
      1  C        1   0.000245(     2)      2   0.000000(     9)
      2  N        1  -0.000619(     3)      2   0.000000(    10)      3  -0.000242(    16)     0
      3  N        1  -0.000068(     4)      2   0.000000(    11)      3  -0.000778(    17)     0
      4  N        1   0.000490(     5)      2   0.000000(    12)      3   0.000733(    18)     0
      5  N        1  -0.000487(     6)      2   0.000000(    13)      3  -0.000071(    19)     0
      6  H        3   0.000024(     7)      4  -0.000009(    14)      5   0.000000(    20)     0
      7  H        4  -0.000027(     8)      5   0.000084(    15)      6   0.000000(    21)     0
 -----------------------------------------------------------------------------------------------
 Internal  Forces:  Max     0.000778043 RMS     0.000319195

 GradGradGradGradGradGradGradGradGradGradGradGradGradGradGradGradGradGrad
 Berny optimization.
 Search for a local minimum.
 Step number   5 out of a maximum of   22
 All quantities printed in internal units (Hartrees-Bohrs-Radians)
 Update second derivatives using D2CorN and points    1    2    3    4    5

 DE= -9.49D-06 DEPred=-1.62D-05 R= 5.87D-01
 TightC=F SS=  1.41D+00  RLast= 1.95D-02 DXNew= 4.2426D-01 5.8548D-02
 Trust test= 5.87D-01 RLast= 1.95D-02 DXMaxT set to 2.52D-01
 The second derivative matrix:
                          rn1       rn2       rn3       rn4       rch
           rn1          0.64988
           rn2          0.01391   0.67747
           rn3          0.05317   0.07379   0.58594
           rn4          0.05119   0.00904   0.11068   0.66487
           rch          0.00565  -0.00209   0.00207   0.00096   0.37739
           rnh          0.00654  -0.00619  -0.00035   0.00213   0.00218
           an1          0.01775  -0.75824   0.04142  -0.06182   0.00408
           an2          0.74413  -0.27145  -0.69114   0.06845   0.01511
           an3         -0.03567   1.00822   0.00430  -0.58832  -0.01368
           an4          0.05905  -0.02533   0.65044  -0.09769  -0.00058
           ach          0.04277  -0.00072   0.00199   0.05058   0.00018
           anh         -0.10053   0.05704   0.00076  -0.00135   0.00004
                          rnh       an1       an2       an3       an4
           rnh          0.48917
           an1          0.00541   4.54424
           an2          0.02108  -2.66593   6.02004
           an3         -0.01748  -0.02536  -3.20126   4.48309
           an4          0.00069  -0.11779  -0.08362  -1.15211   2.57994
           ach          0.00005  -0.10575   0.00056   0.00239   0.07404
           anh          0.00037   0.03479  -0.09638   0.00109  -0.00191
                          ach       anh
           ach          0.31976
           anh          0.00031   0.31952
 ITU=  1  1 -1  1  0
     Eigenvalues ---   -0.00650   0.15722   0.27113   0.33426   0.37735
     Eigenvalues ---    0.39972   0.48903   0.76587   1.20909   2.99395
     Eigenvalues ---    5.08822   9.63195
 RFO step:  Lambda=-6.49944102D-03 EMin=-6.49798964D-03
 I=     1 Eig=   -6.50D-03 Dot1= -5.83D-05
 I=     1 Stepn= -6.00D-01 RXN=   6.00D-01 EDone=F
 Mixed    1 eigenvectors in step.  Raw Step.Grad=  5.83D-05.
 RFO eigenvector is Hessian eigenvector with negative curvature.
 Taking step of  6.00D-01 in eigenvector direction(s).  Step.Grad=  9.60D-05.
 Quartic linear search produced a step of -0.15119.
 Maximum step size (   0.252) exceeded in Quadratic search.
    -- Step size scaled by   0.420
 Variable       Old X    -DE/DX   Delta X   Delta X   Delta X     New X
                                 (Linear)    (Quad)   (Total)
   rn1        2.25068  -0.00062   0.00067  -0.12685  -0.12618   2.12450
   rn2        2.49589  -0.00007   0.00128  -0.07441  -0.07313   2.42276
   rn3        2.19317   0.00049   0.00065   0.06768   0.06833   2.26150
   rn4        1.89311  -0.00049  -0.00180   0.09875   0.09695   1.99006
   rch        2.03839   0.00002   0.00001   0.00040   0.00041   2.03880
   rnh        1.90840  -0.00003  -0.00002  -0.00059  -0.00061   1.90779
   an1        1.31012  -0.00024  -0.00030   0.05040   0.05010   1.36022
   an2        2.43133  -0.00078  -0.00069   0.10182   0.10113   2.53246
   an3        3.51031   0.00073  -0.00128   0.11290   0.11162   3.62193
   an4        4.85626  -0.00007  -0.00083   0.04458   0.04376   4.90002
   ach        2.18091  -0.00001   0.00023   0.00596   0.00620   2.18710
   anh        2.09864   0.00008  -0.00013  -0.00125  -0.00137   2.09727
         Item               Value     Threshold  Converged?
 Maximum Force            0.000778     0.000450     NO 
 RMS     Force            0.000416     0.000300     NO 
 Maximum Displacement     0.126182     0.001800     NO 
 RMS     Displacement     0.072164     0.001200     NO 
 Predicted change in Energy=-2.597026D-04
 GradGradGradGradGradGradGradGradGradGradGradGradGradGradGradGradGradGrad

 ---------------------------------------------------------------------------------------------------
                            Z-MATRIX (ANGSTROMS AND DEGREES)
   CD    Cent   Atom    N1       Length/X        N2       Alpha/Y        N3        Beta/Z          J
 ---------------------------------------------------------------------------------------------------
      1         X 
      2         X        1   1.000000(     1)
      3      1  C        1   1.000000(     2)      2   90.000(     9)
      4      2  N        1   1.124238(     3)      2   90.000(    10)      3   77.935(    16)      0
      5      3  N        1   1.282070(     4)      2   90.000(    11)      3  145.099(    17)      0
      6      4  N        1   1.196736(     5)      2   90.000(    12)      3  207.521(    18)      0
      7      5  N        1   1.053094(     6)      2   90.000(    13)      3  280.750(    19)      0
      8      6  H        3   1.078887(     7)      4  125.312(    14)      5  180.000(    20)      0
      9      7  H        4   1.009557(     8)      5  120.164(    15)      6  180.000(    21)      0
 ---------------------------------------------------------------------------------------------------
                         Z-Matrix orientation:                         
 ---------------------------------------------------------------------
 Center     Atomic      Atomic             Coordinates (Angstroms)
 Number     Number       Type             X           Y           Z
 ---------------------------------------------------------------------
      1         -1           0        0.000000    0.000000    0.000000
      2         -1           0        0.000000    0.000000    1.000000
      3          6           0        1.000000    0.000000    0.000000
      4          7           0        0.234990   -1.099405    0.000000
      5          7           0       -1.051482   -0.733545    0.000000
      6          7           0       -1.061311    0.552987    0.000000
      7          7           0        0.196435    1.034611    0.000000
      8          1           0        2.078849    0.009037    0.000000
      9          1           0        0.484166   -2.077728    0.000000
 ---------------------------------------------------------------------
                    Distance matrix (angstroms):
                    1          2          3          4          5
     1  X    0.000000
     2  X    1.000000   0.000000
     3  C    1.000000   1.414214   0.000000
     4  N    1.124238   1.504630   1.339377   0.000000
     5  N    1.282070   1.625947   2.178685   1.337484   0.000000
     6  N    1.196736   1.559544   2.134198   2.100189   1.286570
     7  N    1.053094   1.452242   1.310014   2.134364   2.164180
     8  H    2.078869   2.306880   1.078887   2.151385   3.217204
     9  H    2.133394   2.356135   2.140803   1.009557   2.040844
                    6          7          8          9
     6  N    0.000000
     7  N    1.346807   0.000000
     8  H    3.186925   2.143661   0.000000
     9  H    3.051092   3.125611   2.626329   0.000000
 Stoichiometry    CH2N4
 Framework group  CS[SG(CH2N4)]
[...]
 Quadrupole moment (field-independent basis, Debye-Ang):
   XX=            -28.5470   YY=            -26.0173   ZZ=            -28.3475
   XY=              1.7881   XZ=              0.0000   YZ=              0.0000
 Traceless Quadrupole moment (field-independent basis, Debye-Ang):
   XX=             -0.9097   YY=              1.6200   ZZ=             -0.7102
   XY=              1.7881   XZ=              0.0000   YZ=              0.0000
 Octapole moment (field-independent basis, Debye-Ang**2):
  XXX=             11.8394  YYY=             22.5391  ZZZ=              0.0000  XYY=             -0.6111
  XXY=              4.5882  XXZ=              0.0000  XZZ=             -0.6208  YZZ=              0.5142
  YYZ=              0.0000  XYZ=              0.0000
 Hexadecapole moment (field-independent basis, Debye-Ang**3):
 XXXX=           -139.5776 YYYY=           -117.4861 ZZZZ=            -24.8490 XXXY=              6.6616
 XXXZ=              0.0000 YYYX=             -0.4900 YYYZ=              0.0000 ZZZX=              0.0000
 ZZZY=              0.0000 XXYY=            -52.6951 XXZZ=            -29.9290 YYZZ=            -28.3656
 XXYZ=              0.0000 YYXZ=              0.0000 ZZXY=             -0.0993
 N-N= 1.675362818311D+02 E-N=-9.367662802329D+02  KE= 2.561188927356D+02
 Symmetry A'   KE= 2.468360302853D+02
 Symmetry A"   KE= 9.282862450235D+00
  Exact polarizability:  36.739   0.909  36.223   0.000   0.000  15.465
 Approx polarizability:  51.441   0.364  54.226   0.000   0.000  20.694
 Calling FoFJK, ICntrl=    100127 FMM=F ISym2X=1 I1Cent= 0 IOpClX= 0 NMat=1 NMatS=1 NMatT=0.
 Full mass-weighted force constant matrix:
 Low frequencies ---   -0.0010   -0.0004    0.0008    8.9091   36.5347   41.2150
 Low frequencies ---  597.2278  703.6883  756.4159
 Diagonal vibrational polarizability:
        1.2260560       1.1277910       9.0427952
 Harmonic frequencies (cm**-1), IR intensities (KM/Mole), Raman scattering
 activities (A**4/AMU), depolarization ratios for plane and unpolarized
 incident light, reduced masses (AMU), force constants (mDyne/A),
 and normal coordinates:
                      1                      2                      3
                     A"                     A"                     A"
 Frequencies --    597.1952               703.6853               756.4146
 Red. masses --      1.6597                 2.1206                 8.6879
 Frc consts  --      0.3487                 0.6187                 2.9288
 IR Inten    --    101.8448                 7.6545                 7.9029
  Atom  AN      X      Y      Z        X      Y      Z        X      Y      Z
     1   6     0.00   0.00  -0.08     0.00   0.00   0.19     0.00   0.00  -0.09
     2   7     0.00   0.00   0.20     0.00   0.00  -0.11     0.00   0.00  -0.14
     3   7     0.00   0.00  -0.07     0.00   0.00   0.11     0.00   0.00   0.44
     4   7     0.00   0.00   0.00     0.00   0.00   0.04     0.00   0.00  -0.51
     5   7     0.00   0.00   0.02     0.00   0.00  -0.18     0.00   0.00   0.34
     6   1     0.00   0.00  -0.19     0.00   0.00   0.55     0.00   0.00  -0.10
     7   1     0.00   0.00  -0.95     0.00   0.00  -0.78     0.00   0.00  -0.63
                      4                      5                      6
                     A"                     A'                     A'
 Frequencies --    881.3585              1002.3971              1034.8416
 Red. masses --      1.3543                 4.3673                 5.5901
 Frc consts  --      0.6198                 2.5855                 3.5271
 IR Inten    --     16.4580                 2.8075                 2.0308
  Atom  AN      X      Y      Z        X      Y      Z        X      Y      Z
     1   6     0.00   0.00   0.17     0.16   0.11   0.00    -0.31  -0.04   0.00
     2   7     0.00   0.00  -0.03     0.08  -0.01   0.00     0.01   0.39   0.00
     3   7     0.00   0.00   0.00     0.13  -0.12   0.00     0.20  -0.07   0.00
     4   7     0.00   0.00  -0.02    -0.05  -0.17   0.00     0.16  -0.11   0.00
     5   7     0.00   0.00  -0.03    -0.29   0.26   0.00    -0.08  -0.16   0.00
     6   1     0.00   0.00  -0.98     0.39  -0.60   0.00    -0.14  -0.66   0.00
     7   1     0.00   0.00  -0.06    -0.48  -0.05   0.00    -0.11   0.41   0.00
                      7                      8                      9
                     A'                     A'                     A'
 Frequencies --   1107.0072              1119.5685              1172.3045
 Red. masses --      3.0087                 3.9470                 2.0381
 Frc consts  --      2.1724                 2.9149                 1.6503
 IR Inten    --     25.5311                26.5950                10.0639
  Atom  AN      X      Y      Z        X      Y      Z        X      Y      Z
     1   6    -0.05   0.00   0.00    -0.12   0.06   0.00     0.06  -0.10   0.00
     2   7    -0.13  -0.13   0.00     0.06  -0.14   0.00    -0.14  -0.04   0.00
     3   7     0.29   0.15   0.00    -0.11   0.03   0.00    -0.05   0.06   0.00
     4   7     0.04  -0.01   0.00     0.34   0.01   0.00     0.15   0.13   0.00
     5   7    -0.09  -0.05   0.00    -0.24   0.04   0.00     0.01   0.00   0.00
     6   1    -0.27   0.65   0.00    -0.17   0.18   0.00     0.27  -0.76   0.00
     7   1    -0.56  -0.17   0.00     0.84  -0.10   0.00    -0.51  -0.06   0.00
                     10                     11                     12
                     A'                     A'                     A'
 Frequencies --   1310.9788              1370.3510              1506.7494
 Red. masses --      2.5940                 9.4635                 3.4739
 Frc consts  --      2.6267                10.4705                 4.6467
 IR Inten    --      1.1031                21.3839                10.2713
  Atom  AN      X      Y      Z        X      Y      Z        X      Y      Z
     1   6     0.18   0.02   0.00     0.25   0.07   0.00    -0.18   0.27   0.00
     2   7     0.08   0.12   0.00    -0.17   0.12   0.00     0.22  -0.14   0.00
     3   7    -0.12  -0.07   0.00    -0.16   0.47   0.00    -0.07   0.11   0.00
     4   7     0.07   0.05   0.00     0.05  -0.54   0.00    -0.01  -0.03   0.00
     5   7    -0.13  -0.17   0.00     0.02  -0.12   0.00     0.07  -0.11   0.00
     6   1     0.01   0.64   0.00     0.35  -0.12   0.00     0.03  -0.47   0.00
     7   1    -0.67   0.09   0.00     0.40   0.20   0.00    -0.72  -0.22   0.00
                     13                     14                     15
                     A'                     A'                     A'
 Frequencies --   1563.8231              3340.1063              3681.4797
 Red. masses --      3.9770                 1.1020                 1.0846
 Frc consts  --      5.7303                 7.2434                 8.6605
 IR Inten    --     19.3816                 2.4052               118.0219
  Atom  AN      X      Y      Z        X      Y      Z        X      Y      Z
     1   6     0.12   0.32   0.00     0.09   0.03   0.00     0.00   0.00   0.00
     2   7    -0.17  -0.03   0.00     0.00   0.00   0.00    -0.01   0.08   0.00
     3   7     0.11  -0.10   0.00     0.00   0.00   0.00     0.00   0.00   0.00
     4   7    -0.07   0.12   0.00     0.00   0.00   0.00     0.00   0.00   0.00
     5   7    -0.06  -0.24   0.00     0.00   0.00   0.00     0.00   0.00   0.00
     6   1     0.38  -0.36   0.00    -0.95  -0.30   0.00    -0.02   0.00   0.00
     7   1     0.69   0.02   0.00     0.01   0.02   0.00     0.07  -0.99   0.00

 -------------------
 - Thermochemistry -
 -------------------
 Temperature   298.150 Kelvin.  Pressure   1.00000 Atm.
 Atom     1 has atomic number  6 and mass  12.00000
 Atom     2 has atomic number  7 and mass  14.00307
 Atom     3 has atomic number  7 and mass  14.00307
 Atom     4 has atomic number  7 and mass  14.00307
 Atom     5 has atomic number  7 and mass  14.00307
 Atom     6 has atomic number  1 and mass   1.00783
 Atom     7 has atomic number  1 and mass   1.00783
 Molecular mass:    70.02795 amu.
 Principal axes and moments of inertia in atomic units:
                           1         2         3
     Eigenvalues --   169.74518 172.69657 342.44175
           X            0.85741   0.51464   0.00000
           Y           -0.51464   0.85741   0.00000
           Z            0.00000   0.00000   1.00000
 This molecule is an asymmetric top.
 Rotational symmetry number  1.
 Rotational temperatures (Kelvin)      0.51026     0.50154     0.25293
 Rotational constants (GHZ):          10.63206    10.45036     5.27021
 Zero-point vibrational energy     126494.7 (Joules/Mol)
                                   30.23296 (Kcal/Mol)
 Warning -- explicit consideration of   1 degrees of freedom as
           vibrations may cause significant error
 Vibrational temperatures:    859.23  1012.44  1088.31  1268.08  1442.22
          (Kelvin)           1488.90  1592.73  1610.81  1686.68  1886.20
                             1971.63  2167.87  2249.99  4805.66  5296.82
 
 Zero-point correction=                           0.048179 (Hartree/Particle)
 Thermal correction to Energy=                    0.051597
 Thermal correction to Enthalpy=                  0.052541
 Thermal correction to Gibbs Free Energy=         0.022116
 Sum of electronic and zero-point Energies=           -258.102710
 Sum of electronic and thermal Energies=              -258.099292
 Sum of electronic and thermal Enthalpies=            -258.098348
 Sum of electronic and thermal Free Energies=         -258.128774
 
                     E (Thermal)             CV                S
                      KCal/Mol        Cal/Mol-Kelvin    Cal/Mol-Kelvin
 Total                   32.377             10.942             64.035
 Electronic               0.000              0.000              0.000
 Translational            0.889              2.981             38.656
 Rotational               0.889              2.981             23.822
 Vibrational             30.600              4.981              1.558
 Vibration     1          0.955              1.038              0.455
                       Q            Log10(Q)             Ln(Q)
 Total Bot       0.672244D-10        -10.172473        -23.422985
 Total V=0       0.973669D+12         11.988412         27.604338
 Vib (Bot)       0.813737D-22        -22.089516        -50.862990
 Vib (Bot)    1  0.250756D+00         -0.600748         -1.383274
 Vib (V=0)       0.117861D+01          0.071369          0.164333
 Vib (V=0)    1  0.105936D+01          0.025042          0.057661
 Electronic      0.100000D+01          0.000000          0.000000
 Translational   0.230336D+08          7.362362         16.952466
 Rotational      0.358658D+05          4.554680         10.487539
 ***** Axes restored to original set *****
 -------------------------------------------------------------------
 Center     Atomic                   Forces (Hartrees/Bohr)
 Number     Number              X              Y              Z
 -------------------------------------------------------------------
      1        6           0.000088223   -0.000157507    0.000000000
      2        7           0.000032292   -0.000061398    0.000000000
      3        7           0.000086022    0.000148867    0.000000000
      4        7          -0.000209814    0.000102154    0.000000000
      5        7           0.000002760   -0.000027581    0.000000000
      6        1          -0.000006791   -0.000008510    0.000000000
      7        1           0.000007308    0.000003976    0.000000000
 -------------------------------------------------------------------
 Cartesian Forces:  Max     0.000209814 RMS     0.000076339
 -----------------------------------------------------------------------------------------------
                       Internal Coordinate Forces (Hartree/Bohr or radian)
  Cent   Atom   N1       Length/X         N2         Alpha/Y        N3         Beta/Z          J
 -----------------------------------------------------------------------------------------------
         X 
         X        1   0.000000(     1)
      1  C        1   0.000087(     2)      2   0.000000(     9)
      2  N        1   0.000057(     3)      2   0.000000(    10)      3  -0.000045(    16)     0
      3  N        1  -0.000162(     4)      2   0.000000(    11)      3   0.000098(    17)     0
      4  N        1   0.000229(     5)      2   0.000000(    12)      3   0.000096(    18)     0
      5  N        1  -0.000027(     6)      2   0.000000(    13)      3   0.000009(    19)     0
      6  H        3  -0.000008(     7)      4  -0.000015(    14)      5   0.000000(    20)     0
      7  H        4  -0.000001(     8)      5   0.000016(    15)      6   0.000000(    21)     0
 -----------------------------------------------------------------------------------------------
 Internal  Forces:  Max     0.000229096 RMS     0.000072918

 GradGradGradGradGradGradGradGradGradGradGradGradGradGradGradGradGradGrad
 Berny optimization.
 Search for a local minimum.
 Step number   1 out of a maximum of    2
 All quantities printed in internal units (Hartrees-Bohrs-Radians)
 Second derivative matrix not updated -- analytic derivatives used.
 The second derivative matrix:
                          rn1       rn2       rn3       rn4       rch
           rn1          0.62341
           rn2         -0.04100   0.63044
           rn3          0.07503  -0.00397   0.59214
           rn4          0.10031   0.08070   0.00776   0.59552
           rch         -0.00291  -0.00134   0.00067  -0.00280   0.39071
           rnh          0.01181  -0.00664   0.00026  -0.00006   0.00033
           an1          0.10139  -0.40691  -0.23128   0.14942   0.01404
           an2          0.28965  -0.15864  -0.44694  -0.17616   0.00079
           an3          0.24532   0.55566   0.20649  -0.28240   0.00026
           an4         -0.14422   0.17215   0.33617  -0.16965  -0.01504
           ach          0.03702   0.01208  -0.01460   0.02940   0.00157
           anh         -0.05167   0.02100   0.02521  -0.02025  -0.00128
                          rnh       an1       an2       an3       an4
           rnh          0.48083
           an1         -0.01082   2.76118
           an2          0.01805  -1.18446   3.27463
           an3         -0.00406  -0.33092  -1.59637   2.50424
           an4          0.00037  -0.25773  -0.28505  -0.36851   1.60333
           ach          0.00067   0.00034  -0.02162  -0.00542   0.08461
           anh          0.00017  -0.03602  -0.01485   0.00769  -0.00446
                          ach       anh
           ach          0.21594
           anh          0.00030   0.21865
 ITU=  0
     Eigenvalues ---    0.00114   0.16388   0.21485   0.28152   0.39087
     Eigenvalues ---    0.48025   0.63950   0.73444   0.86048   2.02850
     Eigenvalues ---    3.21980   4.87579
 Angle between quadratic step and forces=  67.98 degrees.
 Linear search not attempted -- first point.
 Variable       Old X    -DE/DX   Delta X   Delta X   Delta X     New X
                                 (Linear)    (Quad)   (Total)
   rn1        2.35599   0.00006   0.00000  -0.04727  -0.04727   2.30871
   rn2        2.57221  -0.00016   0.00000  -0.03592  -0.03592   2.53630
   rn3        2.15957   0.00023   0.00000   0.01310   0.01310   2.17267
   rn4        1.78219  -0.00003   0.00000   0.04920   0.04920   1.83138
   rch        2.03843  -0.00001   0.00000  -0.00009  -0.00009   2.03834
   rnh        1.90838   0.00000   0.00000   0.00001   0.00001   1.90839
   an1        1.26493  -0.00004   0.00000   0.02003   0.02003   1.28496
   an2        2.34069   0.00010   0.00000   0.03993   0.03993   2.38062
   an3        3.40321   0.00010   0.00000   0.04868   0.04868   3.45189
   an4        4.80422   0.00001   0.00000   0.02357   0.02357   4.82779
   ach        2.18145  -0.00002   0.00000   0.00019   0.00019   2.18164
   anh        2.09848   0.00002   0.00000   0.00018   0.00018   2.09866
         Item               Value     Threshold  Converged?
 Maximum Force            0.000229     0.000450     YES
 RMS     Force            0.000093     0.000300     YES
 Maximum Displacement     0.049195     0.001800     NO 
 RMS     Displacement     0.030328     0.001200     NO 
 Predicted change in Energy=-6.356356D-06
 GradGradGradGradGradGradGradGradGradGradGradGradGradGradGradGradGradGrad

 1\1\GINC-N366\Freq\RM062X\6-31G(d)\C1H2N4\RDJ3\26-Nov-2013\1\\#N Geom=
 AllCheck Guess=TCheck SCRF=Check GenChk RM062X/6-31G(d) Freq\\1H-tetra
 zole CH2N4 casno=288948 state=1 config=1 method=58 basis=1\\0,1\X\X,1,
 1.\C,1,1.,2,90.\N,1,rn1,2,90.,3,an1,0\N,1,rn2,2,90.,3,an2,0\N,1,rn3,2,
 90.,3,an3,0\N,1,rn4,2,90.,3,an4,0\H,3,rch,4,ach,5,180.,0\H,4,rnh,5,anh
 ,6,180.,0\\rn1=1.24673535\rn2=1.36115687\rn3=1.14279542\rn4=0.9430936\
 rch=1.07869226\rnh=1.00987344\an1=72.47518922\an2=134.11166343\an3=194
 .98970176\an4=275.2617394\ach=124.9881355\anh=120.23394681\\Version=EM
 64L-G09RevD.01\State=1-A'\HF=-258.1508893\RMSD=5.576e-09\RMSF=7.634e-0
 5\ZeroPoint=0.0481793\Thermal=0.0515968\Dipole=1.6886132,-1.304466,0.\
 DipoleDeriv=0.2198626,0.0552219,0.,-0.0930517,0.4492153,0.,0.,0.,0.111
 2084,-0.2563635,0.2937691,0.,0.192521,-0.3904023,0.,0.,0.,-0.1745497,0
 .099882,-0.370111,0.,-0.329203,-0.166482,0.,0.,0.,-0.0940514,0.0508837
 ,0.1543271,0.,0.2134335,-0.0138479,0.,0.,0.,-0.1528954,-0.4065643,-0.1
 064921,0.,0.0281707,-0.3124438,0.,0.,0.,-0.2143884,0.0705774,0.0108126
 ,0.,0.0099224,0.1204855,0.,0.,0.,0.1651397,0.2217221,-0.0375276,0.,-0.
 0217928,0.3134751,0.,0.,0.,0.3595369\Polar=37.339891,-0.3933697,35.622
 1615,0.,0.,15.4651698\PG=CS [SG(C1H2N4)]\NImag=0\\1.00340052,0.0104758
 3,0.65413990,0.,0.,0.14560492,-0.17790646,-0.08648449,0.,0.62742705,-0
 .11561182,-0.29933581,0.,-0.11085910,1.04173395,0.,0.,-0.06421473,0.,0
 .,0.09836556,-0.09465275,-0.09164770,0.,-0.26504673,-0.02785318,0.,0.4
 9853074,0.00627553,-0.03030478,0.,0.00861340,-0.11008121,0.,0.06581851
 ,0.64481624,0.,0.,0.02155099,0.,0.,-0.07325757,0.,0.,0.12180605,-0.121
 12895,0.07772374,0.,-0.07887700,0.03294786,0.,-0.11759543,0.00542050,0
 .,0.54065612,-0.03357020,0.03435744,0.,0.12031549,-0.10511241,0.,0.059
 91538,-0.39833988,0.,-0.09665341,0.58833967,0.,0.,0.01974514,0.,0.,0.0
 2797827,0.,0.,-0.10142460,0.,0.,0.13010981,-0.25727883,0.14496596,0.,0
 .01613839,0.09658839,0.,-0.02340873,-0.12354351,0.,-0.20989357,-0.0549
 1695,0.,0.48818947,0.15788949,-0.29091959,0.,-0.03095438,-0.10700521,0
 .,-0.00614360,-0.10261600,0.,-0.02216495,-0.11977668,0.,-0.08530499,0.
 61214043,0.,0.,-0.08184562,0.,0.,0.02140542,0.,0.,0.03711336,0.,0.,-0.
 09388253,0.,0.,0.11439252,-0.36974610,-0.04345917,0.,-0.00244873,0.002
 00715,0.,0.00077057,0.00156420,0.,-0.00144643,0.00067343,0.,-0.0116933
 2,-0.00355014,0.,0.38508834,-0.03970292,-0.06178098,0.,-0.03232340,0.0
 0256899,0.,-0.00106706,-0.00692587,0.,0.00646798,-0.00298130,0.,0.0232
 2180,0.01187095,0.,0.04327794,0.05759360,0.,0.,-0.03144094,0.,0.,-0.00
 276739,0.,0.,0.00655569,0.,0.,0.00926589,0.,0.,-0.00505940,0.,0.,0.024
 30564,0.01731257,-0.01157416,0.,-0.11928652,0.12278070,0.,0.00140233,0
 .03585137,0.,-0.01171474,0.00423626,0.,-0.00205340,-0.00977143,0.,-0.0
 0052434,0.00012566,0.,0.11486409,0.01424409,-0.00615617,0.,0.13169248,
 -0.42276829,0.,0.00097765,0.00345152,0.,-0.00374172,0.00351316,0.,-0.0
 0101069,-0.00369390,0.,-0.00051342,-0.00034538,0.,-0.14164840,0.425999
 08,0.,0.,-0.00939978,0.,0.,-0.00750956,0.,0.,-0.01234393,0.,0.,0.00820
 801,0.,0.,0.00787625,0.,0.,-0.00085950,0.,0.,0.01402850\\-0.00008822,0
 .00015751,0.,-0.00003229,0.00006140,0.,-0.00008602,-0.00014887,0.,0.00
 020981,-0.00010215,0.,-0.00000276,0.00002758,0.,0.00000679,0.00000851,
 0.,-0.00000731,-0.00000398,0.\\\@


 Fatherhood is pretending the present you love most is soap-on-a-rope.
 -- Bill Cosby
 Job cpu time:       0 days  0 hours  1 minutes 24.2 seconds.
 File lengths (MBytes):  RWF=     10 Int=      0 D2E=      0 Chk=      2 Scr=      1
 Normal termination of Gaussian 09 at Tue Nov 26 11:28:55 2013.
