 Entering Gaussian System, Link 0=g09
 Initial command:
 /usr/local/gaussian/g09.d01.em64t.legacy.linda/g09/l1.exe "/tmp/rdj3/g09-18029/Gau-21182.inp" -scrdir="/tmp/rdj3/g09-18029/"
 Entering Link 1 = /usr/local/gaussian/g09.d01.em64t.legacy.linda/g09/l1.exe PID=     21183.
  
 Copyright (c) 1988,1990,1992,1993,1995,1998,2003,2009,2013,
            Gaussian, Inc.  All Rights Reserved.
  
 This is part of the Gaussian(R) 09 program.  It is based on
 the Gaussian(R) 03 system (copyright 2003, Gaussian, Inc.),
 the Gaussian(R) 98 system (copyright 1998, Gaussian, Inc.),
 the Gaussian(R) 94 system (copyright 1995, Gaussian, Inc.),
 the Gaussian 92(TM) system (copyright 1992, Gaussian, Inc.),
 the Gaussian 90(TM) system (copyright 1990, Gaussian, Inc.),
 the Gaussian 88(TM) system (copyright 1988, Gaussian, Inc.),
 the Gaussian 86(TM) system (copyright 1986, Carnegie Mellon
 University), and the Gaussian 82(TM) system (copyright 1983,
 Carnegie Mellon University). Gaussian is a federally registered
 trademark of Gaussian, Inc.
  
 This software contains proprietary and confidential information,
 including trade secrets, belonging to Gaussian, Inc.
  
 This software is provided under written license and may be
 used, copied, transmitted, or stored only in accord with that
 written license.
  
 The following legend is applicable only to US Government
 contracts under FAR:
  
                    RESTRICTED RIGHTS LEGEND
  
 Use, reproduction and disclosure by the US Government is
 subject to restrictions as set forth in subparagraphs (a)
 and (c) of the Commercial Computer Software - Restricted
 Rights clause in FAR 52.227-19.
  
 Gaussian, Inc.
 340 Quinnipiac St., Bldg. 40, Wallingford CT 06492
  
  
 ---------------------------------------------------------------
 Warning -- This program may not be used in any manner that
 competes with the business of Gaussian, Inc. or will provide
 assistance to any competitor of Gaussian, Inc.  The licensee
 of this program is prohibited from giving any competitor of
 Gaussian, Inc. access to this program.  By using this program,
 the user acknowledges that Gaussian, Inc. is engaged in the
 business of creating and licensing software in the field of
 computational chemistry and represents and warrants to the
 licensee that it is not a competitor of Gaussian, Inc. and that
 it will not use this program in any manner prohibited above.
 ---------------------------------------------------------------
  

 Cite this work as:
 Gaussian 09, Revision D.01,
 M. J. Frisch, G. W. Trucks, H. B. Schlegel, G. E. Scuseria, 
 M. A. Robb, J. R. Cheeseman, G. Scalmani, V. Barone, B. Mennucci, 
 G. A. Petersson, H. Nakatsuji, M. Caricato, X. Li, H. P. Hratchian, 
 A. F. Izmaylov, J. Bloino, G. Zheng, J. L. Sonnenberg, M. Hada, 
 M. Ehara, K. Toyota, R. Fukuda, J. Hasegawa, M. Ishida, T. Nakajima, 
 Y. Honda, O. Kitao, H. Nakai, T. Vreven, J. A. Montgomery, Jr., 
 J. E. Peralta, F. Ogliaro, M. Bearpark, J. J. Heyd, E. Brothers, 
 K. N. Kudin, V. N. Staroverov, T. Keith, R. Kobayashi, J. Normand, 
 K. Raghavachari, A. Rendell, J. C. Burant, S. S. Iyengar, J. Tomasi, 
 M. Cossi, N. Rega, J. M. Millam, M. Klene, J. E. Knox, J. B. Cross, 
 V. Bakken, C. Adamo, J. Jaramillo, R. Gomperts, R. E. Stratmann, 
 O. Yazyev, A. J. Austin, R. Cammi, C. Pomelli, J. W. Ochterski, 
 R. L. Martin, K. Morokuma, V. G. Zakrzewski, G. A. Voth, 
 P. Salvador, J. J. Dannenberg, S. Dapprich, A. D. Daniels, 
 O. Farkas, J. B. Foresman, J. V. Ortiz, J. Cioslowski, 
 and D. J. Fox, Gaussian, Inc., Wallingford CT, 2013.
 
 ******************************************
 Gaussian 09:  EM64L-G09RevD.01 24-Apr-2013
                16-Dec-2013 
 ******************************************
 %Nproc=8
 Will use up to    8 processors via shared memory.
 %mem=436000000
 ------------------------------------
 #QCISD/6-31G(2df,p) opt freq density
 ------------------------------------
 1/18=20,19=15,38=1/1,3;
 2/9=110,12=2,17=6,18=5,40=1/2;
 3/5=1,6=6,7=104,11=9,16=1,25=1,30=1,71=1/1,2,3;
 4//1;
 5/5=2,38=5/2;
 8/6=4,9=120000,10=2/1,4;
 9/5=8,15=1/13;
 11/28=-7,29=200,42=3/11;
 10/5=6/2;
 6/7=2,8=2,9=2,10=2,22=-1/1;
 7/12=7/1,2,3,16;
 1/18=20,19=15/3(2);
 2/9=110/2;
 99//99;
 2/9=110/2;
 3/5=1,6=6,7=104,11=9,16=1,25=1,30=1,71=1/1,2,3;
 4/5=5,16=3,69=1/1;
 5/5=2,38=5/2;
 8/6=4,9=120000,10=2/1,4;
 9/5=8,15=1/13;
 11/28=-7,29=200,42=3/11;
 10/5=6/2;
 7/12=7/1,2,3,16;
 1/18=20,19=15/3(-9);
 2/9=110/2;
 6/7=2,8=2,9=2,10=2,22=-1/1;
 99//99;
 ------------------------------------------------------------------
 1H-tetrazole CH2N4 casno=288948 state=1 config=1 method=5 basis=19
 ------------------------------------------------------------------
 Symbolic Z-matrix:
 Charge =  0 Multiplicity = 1
 X
 X                    1     1. 
 C                    1     1.       2     90. 
 N                    1    rn1      2     90.      3    an1      0
 N                    1    rn2      2     90.      3    an2      0
 N                    1    rn3      2     90.      3    an3      0
 N                    1    rn4      2     90.      3    an4      0
 H                    3    rch      4    ach      5     180.     0
 H                    4    rnh      5    anh      6     180.     0
       Variables:
  rn1                   1.2426                   
  rn2                   1.333                    
  rn3                   1.1146                   
  rn4                   0.9264                   
  rch                   1.0678                   
  rnh                   0.9941                   
  an1                  71.8427                   
  an2                 133.7028                   
  an3                 194.4597                   
  an4                 276.0768                   
  ach                 125.0248                   
  anh                 120.7626                   
 

 GradGradGradGradGradGradGradGradGradGradGradGradGradGradGradGradGradGrad
 Berny optimization.
 Initialization pass.
                           ----------------------------
                           !    Initial Parameters    !
                           ! (Angstroms and Degrees)  !
 --------------------------                            --------------------------
 ! Name  Definition              Value          Derivative Info.                !
 --------------------------------------------------------------------------------
 ! R1    R(1,2)                  1.3303         estimate D2E/DX2                !
 ! R2    R(1,5)                  1.2892         estimate D2E/DX2                !
 ! R3    R(1,6)                  1.0678         estimate D2E/DX2                !
 ! R4    R(2,3)                  1.3261         estimate D2E/DX2                !
 ! R5    R(2,7)                  0.9941         estimate D2E/DX2                !
 ! R6    R(3,4)                  1.252          estimate D2E/DX2                !
 ! R7    R(4,5)                  1.3414         estimate D2E/DX2                !
 ! A1    A(2,1,5)              108.177          estimate D2E/DX2                !
 ! A2    A(2,1,6)              125.0248         estimate D2E/DX2                !
 ! A3    A(5,1,6)              126.7982         estimate D2E/DX2                !
 ! A4    A(1,2,3)              108.008          estimate D2E/DX2                !
 ! A5    A(1,2,7)              131.2294         estimate D2E/DX2                !
 ! A6    A(3,2,7)              120.7626         estimate D2E/DX2                !
 ! A7    A(2,3,4)              106.684          estimate D2E/DX2                !
 ! A8    A(3,4,5)              111.3724         estimate D2E/DX2                !
 ! A9    A(1,5,4)              105.7586         estimate D2E/DX2                !
 ! D1    D(5,1,2,3)              0.0            estimate D2E/DX2                !
 ! D2    D(5,1,2,7)            180.0            estimate D2E/DX2                !
 ! D3    D(6,1,2,3)            180.0            estimate D2E/DX2                !
 ! D4    D(6,1,2,7)              0.0            estimate D2E/DX2                !
 ! D5    D(2,1,5,4)              0.0            estimate D2E/DX2                !
 ! D6    D(6,1,5,4)            180.0            estimate D2E/DX2                !
 ! D7    D(1,2,3,4)              0.0            estimate D2E/DX2                !
 ! D8    D(7,2,3,4)            180.0            estimate D2E/DX2                !
 ! D9    D(2,3,4,5)              0.0            estimate D2E/DX2                !
 ! D10   D(3,4,5,1)              0.0            estimate D2E/DX2                !
 --------------------------------------------------------------------------------
 Trust Radius=3.00D-01 FncErr=1.00D-07 GrdErr=1.00D-07
 Number of steps in this run=     36 maximum allowed number of steps=    100.
 GradGradGradGradGradGradGradGradGradGradGradGradGradGradGradGradGradGrad

                          Input orientation:                          
 ---------------------------------------------------------------------
 Center     Atomic      Atomic             Coordinates (Angstroms)
 Number     Number       Type             X           Y           Z
 ---------------------------------------------------------------------
      1          6           0        1.000000    0.000000    0.000000
      2          7           0        0.387228   -1.180724    0.000000
      3          7           0       -0.920993   -0.963670    0.000000
      4          7           0       -1.079293    0.278314    0.000000
      5          7           0        0.098070    0.921194    0.000000
      6          1           0        2.058429    0.141157    0.000000
      7          1           0        0.749017   -2.106652    0.000000
 ---------------------------------------------------------------------
                    Distance matrix (angstroms):
                    1          2          3          4          5
     1  C    0.000000
     2  N    1.330263   0.000000
     3  N    2.149157   1.326105   0.000000
     4  N    2.097837   2.068690   1.252032   0.000000
     5  N    1.289216   2.121715   2.142710   1.341447   0.000000
     6  H    1.067800   2.130794   3.177672   3.140719   2.109850
     7  H    2.121551   0.994100   2.023695   3.005127   3.097029
                    6          7
     6  H    0.000000
     7  H    2.601385   0.000000
 Stoichiometry    CH2N4
 Framework group  CS[SG(CH2N4)]
 Deg. of freedom    11
 Full point group                 CS      NOp   2
 Largest Abelian subgroup         CS      NOp   2
 Largest concise Abelian subgroup C1      NOp   1
                         Standard orientation:                         
 ---------------------------------------------------------------------
 Center     Atomic      Atomic             Coordinates (Angstroms)
 Number     Number       Type             X           Y           Z
 ---------------------------------------------------------------------
      1          6           0        1.052733    0.225621    0.000000
      2          7           0        0.000000    1.038857    0.000000
      3          7           0       -1.095416    0.291448    0.000000
      4          7           0       -0.716382   -0.901832    0.000000
      5          7           0        0.622191   -0.989579    0.000000
      6          1           0        2.072287    0.542964    0.000000
      7          1           0       -0.061439    2.031056    0.000000
 ---------------------------------------------------------------------
 Rotational constants (GHZ):     10.9201517     10.7345054      5.4132664
 Standard basis: 6-31G(2df,p) (6D, 7F)
 There are   113 symmetry adapted cartesian basis functions of A'  symmetry.
 There are    52 symmetry adapted cartesian basis functions of A"  symmetry.
 There are   103 symmetry adapted basis functions of A'  symmetry.
 There are    47 symmetry adapted basis functions of A"  symmetry.
   150 basis functions,   234 primitive gaussians,   165 cartesian basis functions
    18 alpha electrons       18 beta electrons
       nuclear repulsion energy       169.8308489506 Hartrees.
 NAtoms=    7 NActive=    7 NUniq=    7 SFac= 1.00D+00 NAtFMM=   60 NAOKFM=F Big=F
 Integral buffers will be    131072 words long.
 Raffenetti 1 integral format.
 Two-electron integral symmetry is turned on.
 One-electron integrals computed using PRISM.
 NBasis=   150 RedAO= T EigKep=  2.73D-04  NBF=   103    47
 NBsUse=   150 1.00D-06 EigRej= -1.00D+00 NBFU=   103    47
 ExpMin= 1.61D-01 ExpMax= 4.17D+03 ExpMxC= 6.27D+02 IAcc=1 IRadAn=         1 AccDes= 0.00D+00
 Harris functional with IExCor=  205 and IRadAn=       1 diagonalized for initial guess.
 HarFok:  IExCor=  205 AccDes= 0.00D+00 IRadAn=         1 IDoV= 1 UseB2=F ITyADJ=14
 ICtDFT=  3500011 ScaDFX=  1.000000  1.000000  1.000000  1.000000
 FoFCou: FMM=F IPFlag=           0 FMFlag=      100000 FMFlg1=           0
         NFxFlg=           0 DoJE=T BraDBF=F KetDBF=T FulRan=T
         wScrn=  0.000000 ICntrl=     500 IOpCl=  0 I1Cent=   200000004 NGrid=           0
         NMat0=    1 NMatS0=      1 NMatT0=    0 NMatD0=    1 NMtDS0=    0 NMtDT0=    0
 Petite list used in FoFCou.
 Initial guess orbital symmetries:
       Occupied  (A') (A') (A') (A') (A') (A') (A') (A') (A') (A')
                 (A') (A') (A") (A') (A") (A") (A') (A')
       Virtual   (A") (A") (A') (A') (A') (A') (A') (A') (A') (A')
                 (A") (A') (A') (A') (A') (A') (A") (A') (A") (A")
                 (A') (A') (A") (A") (A') (A') (A') (A") (A") (A')
                 (A') (A") (A") (A') (A') (A') (A') (A") (A") (A')
                 (A') (A') (A") (A') (A') (A") (A') (A') (A') (A")
                 (A') (A') (A') (A') (A') (A") (A') (A') (A") (A')
                 (A") (A') (A') (A") (A') (A") (A') (A") (A') (A')
                 (A') (A") (A') (A") (A') (A") (A') (A') (A') (A")
                 (A') (A') (A") (A') (A') (A") (A') (A') (A") (A")
                 (A") (A') (A') (A") (A") (A") (A') (A") (A") (A')
                 (A") (A') (A') (A") (A') (A") (A") (A') (A") (A')
                 (A") (A') (A') (A') (A') (A') (A') (A') (A") (A')
                 (A') (A') (A') (A') (A') (A') (A') (A') (A') (A')
                 (A') (A')
 The electronic state of the initial guess is 1-A'.
 Keep R1 ints in memory in symmetry-blocked form, NReq=97005431.
 Requested convergence on RMS density matrix=1.00D-08 within 128 cycles.
 Requested convergence on MAX density matrix=1.00D-06.
 Requested convergence on             energy=1.00D-06.
 No special actions if energy rises.
 SCF Done:  E(RHF) =  -256.781975392     A.U. after   14 cycles
            NFock= 14  Conv=0.89D-08     -V/T= 2.0006
 ExpMin= 1.61D-01 ExpMax= 4.17D+03 ExpMxC= 6.27D+02 IAcc=3 IRadAn=         5 AccDes= 0.00D+00
 HarFok:  IExCor=  205 AccDes= 0.00D+00 IRadAn=         5 IDoV=-2 UseB2=F ITyADJ=14
 ICtDFT= 12500011 ScaDFX=  1.000000  1.000000  1.000000  1.000000
 DSYEVD-2 returned Info=          57 IAlg= 4 N=    28 NDim=    28 NE2=    15569076 trying  DSYEV.
 DSYEVD-2 returned Info=          57 IAlg= 4 N=    28 NDim=    28 NE2=    15569076 trying  DSYEV.
 Range of M.O.s used for correlation:     6   150
 NBasis=   150 NAE=    18 NBE=    18 NFC=     5 NFV=     0
 NROrb=    145 NOA=    13 NOB=    13 NVA=   132 NVB=   132

 **** Warning!!: The largest alpha MO coefficient is  0.37963108D+02

 Semi-Direct transformation.
 ModeAB=           2 MOrb=            13 LenV=     435343924
 LASXX=      9493585 LTotXX=     9493585 LenRXX=     9493585
 LTotAB=     9713419 MaxLAS=    25815075 LenRXY=    25815075
 NonZer=    26640705 LenScr=    40734720 LnRSAI=           0
 LnScr1=           0 LExtra=           0 Total=     76043380
 MaxDsk=          -1 SrtSym=           F ITran=            4
 JobTyp=0 Pass  1:  I=   1 to  13.
 (rs|ai) integrals will be sorted in core.
 Spin components of T(2) and E(2):
     alpha-alpha T2 =       0.3931660715D-01 E2=     -0.1216265125D+00
     alpha-beta  T2 =       0.1992185361D+00 E2=     -0.6632187891D+00
     beta-beta   T2 =       0.3931660715D-01 E2=     -0.1216265125D+00
 ANorm=    0.1130421050D+01
 E2 =    -0.9064718141D+00 EUMP2 =    -0.25768844720572D+03
 Keep R2 and R3 ints in memory in symmetry-blocked form, NReq=98259593.
 Iterations=  50 Convergence= 0.100D-07
 Iteration Nr.   1
 **********************
 DD1Dir will call FoFMem   1 times, MxPair=       182
 NAB=    91 NAA=     0 NBB=     0.
 MP4(R+Q)=  0.27457048D-01
 E3=       -0.12662516D-02        EUMP3=      -0.25768971346D+03
 E4(DQ)=    0.47043581D-02        UMP4(DQ)=   -0.25768500910D+03
 E4(SDQ)=  -0.41156369D-02        UMP4(SDQ)=  -0.25769382909D+03
 DE(Corr)= -0.88028102     E(Corr)=     -257.66225641    
 NORM(A)=   0.11230344D+01
 Iteration Nr.   2
 **********************
 DD1Dir will call FoFMem   1 times, MxPair=       182
 NAB=    91 NAA=     0 NBB=     0.
 DE(Corr)= -0.91054290     E(CORR)=     -257.69251829     Delta=-3.03D-02
 NORM(A)=   0.11340414D+01
 Iteration Nr.   3
 **********************
 DD1Dir will call FoFMem   1 times, MxPair=       182
 NAB=    91 NAA=     0 NBB=     0.
 DE(Corr)= -0.90944446     E(CORR)=     -257.69141985     Delta= 1.10D-03
 NORM(A)=   0.11362880D+01
 Iteration Nr.   4
 **********************
 DD1Dir will call FoFMem   1 times, MxPair=       182
 NAB=    91 NAA=     0 NBB=     0.
 DE(Corr)= -0.91180730     E(CORR)=     -257.69378269     Delta=-2.36D-03
 NORM(A)=   0.11371047D+01
 Iteration Nr.   5
 **********************
 DD1Dir will call FoFMem   1 times, MxPair=       182
 NAB=    91 NAA=     0 NBB=     0.
 DE(Corr)= -0.91208523     E(CORR)=     -257.69406062     Delta=-2.78D-04
 NORM(A)=   0.11374490D+01
 Iteration Nr.   6
 **********************
 DD1Dir will call FoFMem   1 times, MxPair=       182
 NAB=    91 NAA=     0 NBB=     0.
 DE(Corr)= -0.91212858     E(CORR)=     -257.69410397     Delta=-4.34D-05
 NORM(A)=   0.11374985D+01
 Iteration Nr.   7
 **********************
 DD1Dir will call FoFMem   1 times, MxPair=       182
 NAB=    91 NAA=     0 NBB=     0.
 DE(Corr)= -0.91213680     E(CORR)=     -257.69411219     Delta=-8.22D-06
 NORM(A)=   0.11375113D+01
 Iteration Nr.   8
 **********************
 DD1Dir will call FoFMem   1 times, MxPair=       182
 NAB=    91 NAA=     0 NBB=     0.
 DE(Corr)= -0.91213199     E(CORR)=     -257.69410739     Delta= 4.81D-06
 NORM(A)=   0.11375184D+01
 Iteration Nr.   9
 **********************
 DD1Dir will call FoFMem   1 times, MxPair=       182
 NAB=    91 NAA=     0 NBB=     0.
 DE(Corr)= -0.91213348     E(CORR)=     -257.69410887     Delta=-1.48D-06
 NORM(A)=   0.11375199D+01
 Iteration Nr.  10
 **********************
 DD1Dir will call FoFMem   1 times, MxPair=       182
 NAB=    91 NAA=     0 NBB=     0.
 DE(Corr)= -0.91213379     E(CORR)=     -257.69410918     Delta=-3.14D-07
 NORM(A)=   0.11375216D+01
 Iteration Nr.  11
 **********************
 DD1Dir will call FoFMem   1 times, MxPair=       182
 NAB=    91 NAA=     0 NBB=     0.
 DE(Corr)= -0.91213496     E(CORR)=     -257.69411035     Delta=-1.17D-06
 NORM(A)=   0.11375226D+01
 Iteration Nr.  12
 **********************
 DD1Dir will call FoFMem   1 times, MxPair=       182
 NAB=    91 NAA=     0 NBB=     0.
 DE(Corr)= -0.91213509     E(CORR)=     -257.69411049     Delta=-1.37D-07
 NORM(A)=   0.11375231D+01
 Iteration Nr.  13
 **********************
 DD1Dir will call FoFMem   1 times, MxPair=       182
 NAB=    91 NAA=     0 NBB=     0.
 DE(Corr)= -0.91213539     E(CORR)=     -257.69411078     Delta=-2.96D-07
 NORM(A)=   0.11375234D+01
 Iteration Nr.  14
 **********************
 DD1Dir will call FoFMem   1 times, MxPair=       182
 NAB=    91 NAA=     0 NBB=     0.
 DE(Corr)= -0.91213542     E(CORR)=     -257.69411081     Delta=-3.10D-08
 NORM(A)=   0.11375236D+01
 Iteration Nr.  15
 **********************
 DD1Dir will call FoFMem   1 times, MxPair=       182
 NAB=    91 NAA=     0 NBB=     0.
 DE(Corr)= -0.91213546     E(CORR)=     -257.69411085     Delta=-3.84D-08
 NORM(A)=   0.11375236D+01
 Iteration Nr.  16
 **********************
 DD1Dir will call FoFMem   1 times, MxPair=       182
 NAB=    91 NAA=     0 NBB=     0.
 DE(Corr)= -0.91213547     E(CORR)=     -257.69411087     Delta=-1.49D-08
 NORM(A)=   0.11375237D+01
 Iteration Nr.  17
 **********************
 DD1Dir will call FoFMem   1 times, MxPair=       182
 NAB=    91 NAA=     0 NBB=     0.
 DE(Corr)= -0.91213547     E(CORR)=     -257.69411086     Delta= 4.42D-09
 NORM(A)=   0.11375237D+01
 Iteration Nr.  18
 **********************
 DD1Dir will call FoFMem   1 times, MxPair=       182
 NAB=    91 NAA=     0 NBB=     0.
 DE(Corr)= -0.91213548     E(CORR)=     -257.69411087     Delta=-5.34D-09
 NORM(A)=   0.11375237D+01
 Iteration Nr.  19
 **********************
 DD1Dir will call FoFMem   1 times, MxPair=       182
 NAB=    91 NAA=     0 NBB=     0.
 DE(Corr)= -0.91213547     E(CORR)=     -257.69411086     Delta= 2.98D-09
 NORM(A)=   0.11375237D+01
 Largest amplitude= 6.93D-02

 Z-AMPLITUDE ITERATIONS

 Iteration Nr.   1
 **********************
 DD1Dir will call FoFMem   1 times, MxPair=       182
 NAB=    91 NAA=     0 NBB=     0.
 DE(Z)  -0.88002081D+00          E(Z)=    -0.25766199620D+03
 NORM(A)=   0.11376373D+01
 Iteration Nr.   2
 **********************
 DD1Dir will call FoFMem   1 times, MxPair=       182
 NAB=    91 NAA=     0 NBB=     0.
 DE(Z)  -0.88001269D+00          E(Z)=    -0.25766198808D+03
 NORM(A)=   0.11375579D+01
 Iteration Nr.   3
 **********************
 DD1Dir will call FoFMem   1 times, MxPair=       182
 NAB=    91 NAA=     0 NBB=     0.
 DE(Z)  -0.88001854D+00          E(Z)=    -0.25766199393D+03
 NORM(A)=   0.11375515D+01
 Iteration Nr.   4
 **********************
 DD1Dir will call FoFMem   1 times, MxPair=       182
 NAB=    91 NAA=     0 NBB=     0.
 DE(Z)  -0.88001898D+00          E(Z)=    -0.25766199437D+03
 NORM(A)=   0.11387258D+01
 Iteration Nr.   5
 **********************
 DD1Dir will call FoFMem   1 times, MxPair=       182
 NAB=    91 NAA=     0 NBB=     0.
 DE(Z)  -0.87994269D+00          E(Z)=    -0.25766191808D+03
 NORM(A)=   0.11276962D+01
 Iteration Nr.   6
 **********************
 DD1Dir will call FoFMem   1 times, MxPair=       182
 NAB=    91 NAA=     0 NBB=     0.
 DE(Z)  -0.88067510D+00          E(Z)=    -0.25766265049D+03
 NORM(A)=   0.11276938D+01
 Iteration Nr.   7
 **********************
 DD1Dir will call FoFMem   1 times, MxPair=       182
 NAB=    91 NAA=     0 NBB=     0.
 DE(Z)  -0.88067534D+00          E(Z)=    -0.25766265073D+03
 NORM(A)=   0.11276919D+01
 Iteration Nr.   8
 **********************
 DD1Dir will call FoFMem   1 times, MxPair=       182
 NAB=    91 NAA=     0 NBB=     0.
 DE(Z)  -0.88067520D+00          E(Z)=    -0.25766265059D+03
 NORM(A)=   0.11276917D+01
 Iteration Nr.   9
 **********************
 DD1Dir will call FoFMem   1 times, MxPair=       182
 NAB=    91 NAA=     0 NBB=     0.
 DE(Z)  -0.88067519D+00          E(Z)=    -0.25766265059D+03
 NORM(A)=   0.11276916D+01
 Iteration Nr.  10
 **********************
 DD1Dir will call FoFMem   1 times, MxPair=       182
 NAB=    91 NAA=     0 NBB=     0.
 DE(Z)  -0.88067520D+00          E(Z)=    -0.25766265059D+03
 NORM(A)=   0.11276916D+01
 Iteration Nr.  11
 **********************
 DD1Dir will call FoFMem   1 times, MxPair=       182
 NAB=    91 NAA=     0 NBB=     0.
 DE(Z)  -0.88067520D+00          E(Z)=    -0.25766265059D+03
 NORM(A)=   0.11276915D+01
 Iteration Nr.  12
 **********************
 DD1Dir will call FoFMem   1 times, MxPair=       182
 NAB=    91 NAA=     0 NBB=     0.
 DE(Z)  -0.88067520D+00          E(Z)=    -0.25766265059D+03
 NORM(A)=   0.11276915D+01
 Iteration Nr.  13
 **********************
 DD1Dir will call FoFMem   1 times, MxPair=       182
 NAB=    91 NAA=     0 NBB=     0.
 DE(Z)  -0.88067520D+00          E(Z)=    -0.25766265059D+03
 NORM(A)=   0.11276915D+01
 Iteration Nr.  14
 **********************
 DD1Dir will call FoFMem   1 times, MxPair=       182
 NAB=    91 NAA=     0 NBB=     0.
 DE(Z)  -0.88067520D+00          E(Z)=    -0.25766265059D+03
 NORM(A)=   0.11276915D+01
 Discarding MO integrals.
          IDoAtm=1111111
          Differentiating once with respect to electric field.
                with respect to dipole field.
          Differentiating once with respect to nuclear coordinates.
 Keep R1 ints in memory in symmetry-blocked form, NReq=96904184.
          There are     1 degrees of freedom in the 1st order CPHF.  IDoFFX=0 NUNeed=     1.
 LinEq1:  Iter=  0 NonCon=     1 RMS=3.04D-03 Max=3.44D-02 NDo=     1
 AX will form     1 AO Fock derivatives at one time.
 LinEq1:  Iter=  1 NonCon=     1 RMS=8.19D-04 Max=1.28D-02 NDo=     1
 LinEq1:  Iter=  2 NonCon=     1 RMS=2.42D-04 Max=5.68D-03 NDo=     1
 LinEq1:  Iter=  3 NonCon=     1 RMS=8.39D-05 Max=2.15D-03 NDo=     1
 LinEq1:  Iter=  4 NonCon=     1 RMS=3.61D-05 Max=1.05D-03 NDo=     1
 LinEq1:  Iter=  5 NonCon=     1 RMS=1.23D-05 Max=1.58D-04 NDo=     1
 LinEq1:  Iter=  6 NonCon=     1 RMS=3.18D-06 Max=4.32D-05 NDo=     1
 LinEq1:  Iter=  7 NonCon=     1 RMS=1.79D-06 Max=5.07D-05 NDo=     1
 LinEq1:  Iter=  8 NonCon=     1 RMS=4.06D-07 Max=8.40D-06 NDo=     1
 LinEq1:  Iter=  9 NonCon=     1 RMS=1.60D-07 Max=3.76D-06 NDo=     1
 LinEq1:  Iter= 10 NonCon=     1 RMS=6.28D-08 Max=1.20D-06 NDo=     1
 LinEq1:  Iter= 11 NonCon=     1 RMS=1.61D-08 Max=1.91D-07 NDo=     1
 LinEq1:  Iter= 12 NonCon=     1 RMS=5.94D-09 Max=7.57D-08 NDo=     1
 LinEq1:  Iter= 13 NonCon=     1 RMS=1.91D-09 Max=2.71D-08 NDo=     1
 LinEq1:  Iter= 14 NonCon=     1 RMS=3.41D-10 Max=5.11D-09 NDo=     1
 LinEq1:  Iter= 15 NonCon=     1 RMS=6.17D-11 Max=1.08D-09 NDo=     1
 LinEq1:  Iter= 16 NonCon=     0 RMS=1.03D-11 Max=1.28D-10 NDo=     1
 Linear equations converged to 1.000D-10 1.000D-09 after    16 iterations.
 End of Minotr F.D. properties file   721 does not exist.
 End of Minotr F.D. properties file   722 does not exist.
 End of Minotr F.D. properties file   788 does not exist.

 **********************************************************************

            Population analysis using the QCI/CC density.

 **********************************************************************

 Orbital symmetries:
       Occupied  (A') (A') (A') (A') (A') (A') (A') (A') (A') (A')
                 (A') (A") (A') (A') (A') (A') (A") (A")
       Virtual   (A") (A') (A") (A') (A') (A') (A') (A') (A') (A")
                 (A') (A') (A') (A') (A') (A") (A') (A') (A") (A")
                 (A') (A') (A') (A") (A") (A') (A") (A') (A") (A')
                 (A') (A") (A") (A') (A') (A') (A') (A") (A") (A')
                 (A') (A") (A') (A") (A') (A') (A') (A') (A") (A')
                 (A') (A') (A') (A') (A') (A") (A') (A') (A") (A')
                 (A') (A") (A') (A") (A') (A") (A') (A") (A') (A')
                 (A") (A') (A') (A") (A') (A") (A') (A') (A") (A')
                 (A') (A') (A") (A') (A') (A") (A') (A') (A") (A")
                 (A") (A') (A') (A") (A") (A") (A') (A") (A") (A')
                 (A") (A') (A") (A') (A') (A") (A") (A') (A") (A')
                 (A") (A') (A') (A') (A') (A') (A') (A') (A") (A')
                 (A') (A') (A') (A') (A') (A') (A') (A') (A') (A')
                 (A') (A')
 The electronic state is 1-A'.
 Alpha  occ. eigenvalues --  -15.67694 -15.65533 -15.63717 -15.59501 -11.33098
 Alpha  occ. eigenvalues --   -1.51418  -1.26068  -1.20376  -0.90893  -0.89102
 Alpha  occ. eigenvalues --   -0.80413  -0.68588  -0.67869  -0.56876  -0.47117
 Alpha  occ. eigenvalues --   -0.46054  -0.45442  -0.42019
 Alpha virt. eigenvalues --    0.15452   0.20226   0.20368   0.25787   0.36214
 Alpha virt. eigenvalues --    0.39104   0.43047   0.47997   0.59677   0.65004
 Alpha virt. eigenvalues --    0.65543   0.67613   0.73907   0.76349   0.77254
 Alpha virt. eigenvalues --    0.80907   0.83483   0.84638   0.87322   0.91300
 Alpha virt. eigenvalues --    0.92457   0.95231   0.99232   1.00950   1.03523
 Alpha virt. eigenvalues --    1.06619   1.08040   1.09300   1.09898   1.12664
 Alpha virt. eigenvalues --    1.19974   1.31204   1.32394   1.32867   1.47573
 Alpha virt. eigenvalues --    1.49322   1.52102   1.60808   1.61988   1.68116
 Alpha virt. eigenvalues --    1.73541   1.74594   1.81414   1.87782   1.88154
 Alpha virt. eigenvalues --    1.90825   1.96013   1.98452   2.04964   2.07402
 Alpha virt. eigenvalues --    2.22390   2.24104   2.33958   2.42119   2.48980
 Alpha virt. eigenvalues --    2.52557   2.64913   2.77318   2.88788   3.11887
 Alpha virt. eigenvalues --    3.22888   3.23295   3.26087   3.32410   3.40432
 Alpha virt. eigenvalues --    3.43701   3.47204   3.54681   3.57858   3.64866
 Alpha virt. eigenvalues --    3.69379   3.71708   3.74253   3.77407   3.83343
 Alpha virt. eigenvalues --    3.84752   3.95631   3.98881   4.08073   4.09628
 Alpha virt. eigenvalues --    4.16194   4.22530   4.30911   4.31835   4.39859
 Alpha virt. eigenvalues --    4.41631   4.43043   4.45180   4.54007   4.56270
 Alpha virt. eigenvalues --    4.59856   4.62097   4.66045   4.72767   4.81441
 Alpha virt. eigenvalues --    4.86541   4.90444   4.92356   4.94673   4.95644
 Alpha virt. eigenvalues --    4.96289   4.99106   5.00266   5.02619   5.08173
 Alpha virt. eigenvalues --    5.22738   5.24599   5.28734   5.29738   5.39628
 Alpha virt. eigenvalues --    5.41521   5.46633   5.49462   5.62382   5.67998
 Alpha virt. eigenvalues --    5.79077   5.91001   5.96121   5.97781   6.04669
 Alpha virt. eigenvalues --    6.19464   6.25639   6.71644   6.86899   8.47285
 Alpha virt. eigenvalues --   10.82041  11.88248  11.90292  11.97226  12.09953
 Alpha virt. eigenvalues --   16.59474  19.75195
          Condensed to atoms (all electrons):
               1          2          3          4          5          6
     1  C    4.964091   0.374827  -0.098217  -0.119727   0.485030   0.386909
     2  N    0.374827   6.413837   0.294125  -0.112905  -0.046846  -0.029543
     3  N   -0.098217   0.294125   6.576046   0.425096  -0.133603   0.002440
     4  N   -0.119727  -0.112905   0.425096   6.484619   0.390563   0.003416
     5  N    0.485030  -0.046846  -0.133603   0.390563   6.515006  -0.018739
     6  H    0.386909  -0.029543   0.002440   0.003416  -0.018739   0.457698
     7  H   -0.025854   0.347704  -0.021039   0.004774   0.005448   0.000123
               7
     1  C   -0.025854
     2  N    0.347704
     3  N   -0.021039
     4  N    0.004774
     5  N    0.005448
     6  H    0.000123
     7  H    0.360745
 Mulliken charges:
               1
     1  C    0.032942
     2  N   -0.241198
     3  N   -0.044847
     4  N   -0.075836
     5  N   -0.196857
     6  H    0.197697
     7  H    0.328099
 Sum of Mulliken charges =   0.00000
 Mulliken charges with hydrogens summed into heavy atoms:
               1
     1  C    0.230639
     2  N    0.086901
     3  N   -0.044847
     4  N   -0.075836
     5  N   -0.196857
 Electronic spatial extent (au):  <R**2>=            243.9342
 Charge=              0.0000 electrons
 Dipole moment (field-independent basis, Debye):
    X=              2.4507    Y=              4.6802    Z=              0.0000  Tot=              5.2830
 Quadrupole moment (field-independent basis, Debye-Ang):
   XX=            -28.5584   YY=            -26.1481   ZZ=            -28.0841
   XY=              1.7938   XZ=              0.0000   YZ=              0.0000
 Traceless Quadrupole moment (field-independent basis, Debye-Ang):
   XX=             -0.9615   YY=              1.4488   ZZ=             -0.4872
   XY=              1.7938   XZ=              0.0000   YZ=              0.0000
 Octapole moment (field-independent basis, Debye-Ang**2):
  XXX=             11.4896  YYY=             21.5827  ZZZ=              0.0000  XYY=             -0.6200
  XXY=              4.4757  XXZ=              0.0000  XZZ=             -0.6207  YZZ=              0.5245
  YYZ=              0.0000  XYZ=              0.0000
 Hexadecapole moment (field-independent basis, Debye-Ang**3):
 XXXX=           -137.6926 YYYY=           -115.8281 ZZZZ=            -24.4074 XXXY=              6.3059
 XXXZ=              0.0000 YYYX=             -0.3482 YYYZ=              0.0000 ZZZX=              0.0000
 ZZZY=              0.0000 XXYY=            -51.6453 XXZZ=            -29.1135 YYZZ=            -27.5194
 XXYZ=              0.0000 YYXZ=              0.0000 ZZXY=             -0.0831
 N-N= 1.698308489506D+02 E-N=-9.422623805412D+02  KE= 2.577791593032D+02
 Symmetry A'   KE= 2.482461376150D+02
 Symmetry A"   KE= 9.533021688235D+00
 Calling FoFJK, ICntrl=  10002127 FMM=F ISym2X=1 I1Cent= 0 IOpClX= 0 NMat=1 NMatS=1 NMatT=0.
 ***** Axes restored to original set *****
 -------------------------------------------------------------------
 Center     Atomic                   Forces (Hartrees/Bohr)
 Number     Number              X              Y              Z
 -------------------------------------------------------------------
      1        6           0.018625895   -0.005621557    0.000000000
      2        7           0.011033731   -0.010003807    0.000000000
      3        7          -0.015888899   -0.039893481    0.000000000
      4        7          -0.024944599    0.030992658    0.000000000
      5        7           0.001862489    0.033348650    0.000000000
      6        1           0.006037937    0.000423790    0.000000000
      7        1           0.003273446   -0.009246254    0.000000000
 -------------------------------------------------------------------
 Cartesian Forces:  Max     0.039893481 RMS     0.015849765

 GradGradGradGradGradGradGradGradGradGradGradGradGradGradGradGradGradGrad
 Berny optimization.
 FormGI is forming the generalized inverse of G from B-inverse, IUseBI=4.
 Internal  Forces:  Max     0.041756613 RMS     0.012487747
 Search for a local minimum.
 Step number   1 out of a maximum of   36
 All quantities printed in internal units (Hartrees-Bohrs-Radians)
 Mixed Optimization -- RFO/linear search
 Second derivative matrix not updated -- first step.
 ITU=  0
     Eigenvalues ---    0.02505   0.02639   0.02674   0.02834   0.16000
     Eigenvalues ---    0.16000   0.22605   0.24688   0.37510   0.48741
     Eigenvalues ---    0.50870   0.56601   0.58498   0.66939   0.78934
 RFO step:  Lambda=-5.87044113D-03 EMin= 2.50488176D-02
 Linear search not attempted -- first point.
 Iteration  1 RMS(Cart)=  0.01887034 RMS(Int)=  0.00004713
 Iteration  2 RMS(Cart)=  0.00004319 RMS(Int)=  0.00001975
 Iteration  3 RMS(Cart)=  0.00000000 RMS(Int)=  0.00001975
 ClnCor:  largest displacement from symmetrization is 3.73D-11 for atom     1.
 Variable       Old X    -DE/DX   Delta X   Delta X   Delta X     New X
                                 (Linear)    (Quad)   (Total)
    R1        2.51383   0.01897   0.00000   0.02915   0.02912   2.54295
    R2        2.43626   0.02875   0.00000   0.03946   0.03945   2.47571
    R3        2.01785   0.00604   0.00000   0.01586   0.01586   2.03371
    R4        2.50598   0.02126   0.00000   0.03464   0.03463   2.54060
    R5        1.87858   0.00980   0.00000   0.01987   0.01987   1.89845
    R6        2.36600   0.04176   0.00000   0.05196   0.05198   2.41798
    R7        2.53497   0.02213   0.00000   0.04029   0.04032   2.57529
    A1        1.88804   0.00458   0.00000   0.01032   0.01029   1.89833
    A2        2.18209  -0.00267   0.00000  -0.00746  -0.00744   2.17465
    A3        2.21305  -0.00191   0.00000  -0.00286  -0.00284   2.21020
    A4        1.88509   0.00174   0.00000   0.00035   0.00030   1.88540
    A5        2.29039  -0.00058   0.00000   0.00162   0.00164   2.29202
    A6        2.10770  -0.00117   0.00000  -0.00196  -0.00194   2.10576
    A7        1.86199  -0.00209   0.00000  -0.00318  -0.00318   1.85881
    A8        1.94382  -0.00240   0.00000   0.00066   0.00071   1.94452
    A9        1.84584  -0.00184   0.00000  -0.00814  -0.00812   1.83772
    D1        0.00000   0.00000   0.00000   0.00000   0.00000   0.00000
    D2        3.14159   0.00000   0.00000   0.00000   0.00000   3.14159
    D3        3.14159   0.00000   0.00000   0.00000   0.00000   3.14159
    D4        0.00000   0.00000   0.00000   0.00000   0.00000   0.00000
    D5        0.00000   0.00000   0.00000   0.00000   0.00000   0.00000
    D6        3.14159   0.00000   0.00000   0.00000   0.00000   3.14159
    D7        0.00000   0.00000   0.00000   0.00000   0.00000   0.00000
    D8        3.14159   0.00000   0.00000   0.00000   0.00000   3.14159
    D9        0.00000   0.00000   0.00000   0.00000   0.00000   0.00000
   D10        0.00000   0.00000   0.00000   0.00000   0.00000   0.00000
         Item               Value     Threshold  Converged?
 Maximum Force            0.041757     0.000450     NO 
 RMS     Force            0.012488     0.000300     NO 
 Maximum Displacement     0.048434     0.001800     NO 
 RMS     Displacement     0.018862     0.001200     NO 
 Predicted change in Energy=-2.960665D-03
 GradGradGradGradGradGradGradGradGradGradGradGradGradGradGradGradGradGrad

                          Input orientation:                          
 ---------------------------------------------------------------------
 Center     Atomic      Atomic             Coordinates (Angstroms)
 Number     Number       Type             X           Y           Z
 ---------------------------------------------------------------------
      1          6           0        1.006851    0.004380    0.000000
      2          7           0        0.390988   -1.192092    0.000000
      3          7           0       -0.936106   -0.976889    0.000000
      4          7           0       -1.098487    0.292303    0.000000
      5          7           0        0.096830    0.946824    0.000000
      6          1           0        2.074171    0.142280    0.000000
      7          1           0        0.758209   -2.127188    0.000000
 ---------------------------------------------------------------------
                    Distance matrix (angstroms):
                    1          2          3          4          5
     1  C    0.000000
     2  N    1.345671   0.000000
     3  N    2.176688   1.344429   0.000000
     4  N    2.124935   2.102847   1.279538   0.000000
     5  N    1.310092   2.159049   2.183490   1.362784   0.000000
     6  H    1.076191   2.147941   3.211589   3.176203   2.134752
     7  H    2.146020   1.004617   2.047898   3.049796   3.144356
                    6          7
     6  H    0.000000
     7  H    2.623402   0.000000
 Stoichiometry    CH2N4
 Framework group  CS[SG(CH2N4)]
 Deg. of freedom    11
 Full point group                 CS      NOp   2
 Largest Abelian subgroup         CS      NOp   2
 Largest concise Abelian subgroup C1      NOp   1
                         Standard orientation:                         
 ---------------------------------------------------------------------
 Center     Atomic      Atomic             Coordinates (Angstroms)
 Number     Number       Type             X           Y           Z
 ---------------------------------------------------------------------
      1          6           0        1.063149    0.230454    0.000000
      2          7           0        0.000000    1.055405    0.000000
      3          7           0       -1.112415    0.300406    0.000000
      4          7           0       -0.724179   -0.918811    0.000000
      5          7           0        0.635688   -1.007940    0.000000
      6          1           0        2.089010    0.555717    0.000000
      7          1           0       -0.061567    2.058134    0.000000
 ---------------------------------------------------------------------
 Rotational constants (GHZ):     10.5959868     10.4044246      5.2496660
 Standard basis: 6-31G(2df,p) (6D, 7F)
 There are   113 symmetry adapted cartesian basis functions of A'  symmetry.
 There are    52 symmetry adapted cartesian basis functions of A"  symmetry.
 There are   103 symmetry adapted basis functions of A'  symmetry.
 There are    47 symmetry adapted basis functions of A"  symmetry.
   150 basis functions,   234 primitive gaussians,   165 cartesian basis functions
    18 alpha electrons       18 beta electrons
       nuclear repulsion energy       167.2451411180 Hartrees.
 NAtoms=    7 NActive=    7 NUniq=    7 SFac= 1.00D+00 NAtFMM=   60 NAOKFM=F Big=F
 Integral buffers will be    131072 words long.
 Raffenetti 1 integral format.
 Two-electron integral symmetry is turned on.
 One-electron integrals computed using PRISM.
 NBasis=   150 RedAO= T EigKep=  2.93D-04  NBF=   103    47
 NBsUse=   150 1.00D-06 EigRej= -1.00D+00 NBFU=   103    47
 Initial guess from the checkpoint file:  "/tmp/rdj3/g09-18029/Gau-21183.chk"
 B after Tr=     0.000000    0.000000    0.000000
         Rot=    1.000000    0.000000    0.000000   -0.000461 Ang=  -0.05 deg.
 Initial guess orbital symmetries:
       Occupied  (A') (A') (A') (A') (A') (A') (A') (A') (A') (A')
                 (A') (A") (A') (A') (A') (A') (A") (A")
       Virtual   (A') (A') (A') (A') (A') (A') (A') (A') (A') (A')
                 (A') (A') (A') (A') (A') (A') (A') (A') (A') (A')
                 (A') (A') (A') (A') (A') (A') (A') (A') (A') (A')
                 (A') (A') (A') (A') (A') (A') (A') (A') (A') (A')
                 (A') (A') (A') (A') (A') (A') (A') (A') (A') (A')
                 (A') (A') (A') (A') (A') (A') (A') (A') (A') (A')
                 (A') (A') (A') (A') (A') (A') (A') (A') (A') (A')
                 (A') (A') (A') (A') (A') (A') (A') (A') (A') (A')
                 (A') (A') (A') (A') (A') (A') (A') (A') (A") (A")
                 (A") (A") (A") (A") (A") (A") (A") (A") (A") (A")
                 (A") (A") (A") (A") (A") (A") (A") (A") (A") (A")
                 (A") (A") (A") (A") (A") (A") (A") (A") (A") (A")
                 (A") (A") (A") (A") (A") (A") (A") (A") (A") (A")
                 (A") (A")
 ExpMin= 1.61D-01 ExpMax= 4.17D+03 ExpMxC= 6.27D+02 IAcc=1 IRadAn=         1 AccDes= 0.00D+00
 Harris functional with IExCor=  205 and IRadAn=       1 diagonalized for initial guess.
 HarFok:  IExCor=  205 AccDes= 0.00D+00 IRadAn=         1 IDoV= 1 UseB2=F ITyADJ=14
 ICtDFT=  3500011 ScaDFX=  1.000000  1.000000  1.000000  1.000000
 FoFCou: FMM=F IPFlag=           0 FMFlag=      100000 FMFlg1=           0
         NFxFlg=           0 DoJE=T BraDBF=F KetDBF=T FulRan=T
         wScrn=  0.000000 ICntrl=     500 IOpCl=  0 I1Cent=   200000004 NGrid=           0
         NMat0=    1 NMatS0=      1 NMatT0=    0 NMatD0=    1 NMtDS0=    0 NMtDT0=    0
 Petite list used in FoFCou.
 Keep R1 ints in memory in symmetry-blocked form, NReq=97005431.
 Requested convergence on RMS density matrix=1.00D-08 within 128 cycles.
 Requested convergence on MAX density matrix=1.00D-06.
 Requested convergence on             energy=1.00D-06.
 No special actions if energy rises.
 SCF Done:  E(RHF) =  -256.778478259     A.U. after   12 cycles
            NFock= 12  Conv=0.54D-08     -V/T= 2.0020
 ExpMin= 1.61D-01 ExpMax= 4.17D+03 ExpMxC= 6.27D+02 IAcc=3 IRadAn=         5 AccDes= 0.00D+00
 HarFok:  IExCor=  205 AccDes= 0.00D+00 IRadAn=         5 IDoV=-2 UseB2=F ITyADJ=14
 ICtDFT= 12500011 ScaDFX=  1.000000  1.000000  1.000000  1.000000
 Range of M.O.s used for correlation:     6   150
 NBasis=   150 NAE=    18 NBE=    18 NFC=     5 NFV=     0
 NROrb=    145 NOA=    13 NOB=    13 NVA=   132 NVB=   132

 **** Warning!!: The largest alpha MO coefficient is  0.36927590D+02

 Semi-Direct transformation.
 ModeAB=           2 MOrb=            13 LenV=     435344139
 LASXX=      9493585 LTotXX=     9493585 LenRXX=     9493585
 LTotAB=     9713419 MaxLAS=    25815075 LenRXY=    25815075
 NonZer=    26640705 LenScr=    40734720 LnRSAI=           0
 LnScr1=           0 LExtra=           0 Total=     76043380
 MaxDsk=          -1 SrtSym=           F ITran=            4
 JobTyp=0 Pass  1:  I=   1 to  13.
 (rs|ai) integrals will be sorted in core.
 Spin components of T(2) and E(2):
     alpha-alpha T2 =       0.4054280422D-01 E2=     -0.1226197885D+00
     alpha-beta  T2 =       0.2057009381D+00 E2=     -0.6694402647D+00
     beta-beta   T2 =       0.4054280422D-01 E2=     -0.1226197885D+00
 ANorm=    0.1134366143D+01
 E2 =    -0.9146798417D+00 EUMP2 =    -0.25769315810097D+03
 Keep R2 and R3 ints in memory in symmetry-blocked form, NReq=98259593.
 Iterations=  50 Convergence= 0.100D-07
 Iteration Nr.   1
 **********************
 DD1Dir will call FoFMem   1 times, MxPair=       182
 NAB=    91 NAA=     0 NBB=     0.
 MP4(R+Q)=  0.28710901D-01
 E3=        0.10085645D-02        EUMP3=      -0.25769214954D+03
 E4(DQ)=    0.48077149D-02        UMP4(DQ)=   -0.25768734182D+03
 E4(SDQ)=  -0.46852300D-02        UMP4(SDQ)=  -0.25769683477D+03
 DE(Corr)= -0.88496038     E(Corr)=     -257.66343864    
 NORM(A)=   0.11258781D+01
 Iteration Nr.   2
 **********************
 DD1Dir will call FoFMem   1 times, MxPair=       182
 NAB=    91 NAA=     0 NBB=     0.
 DE(Corr)= -0.91716459     E(CORR)=     -257.69564285     Delta=-3.22D-02
 NORM(A)=   0.11376413D+01
 Iteration Nr.   3
 **********************
 DD1Dir will call FoFMem   1 times, MxPair=       182
 NAB=    91 NAA=     0 NBB=     0.
 DE(Corr)= -0.91577434     E(CORR)=     -257.69425260     Delta= 1.39D-03
 NORM(A)=   0.11400995D+01
 Iteration Nr.   4
 **********************
 DD1Dir will call FoFMem   1 times, MxPair=       182
 NAB=    91 NAA=     0 NBB=     0.
 DE(Corr)= -0.91833154     E(CORR)=     -257.69680980     Delta=-2.56D-03
 NORM(A)=   0.11410028D+01
 Iteration Nr.   5
 **********************
 DD1Dir will call FoFMem   1 times, MxPair=       182
 NAB=    91 NAA=     0 NBB=     0.
 DE(Corr)= -0.91864052     E(CORR)=     -257.69711878     Delta=-3.09D-04
 NORM(A)=   0.11413953D+01
 Iteration Nr.   6
 **********************
 DD1Dir will call FoFMem   1 times, MxPair=       182
 NAB=    91 NAA=     0 NBB=     0.
 DE(Corr)= -0.91868969     E(CORR)=     -257.69716795     Delta=-4.92D-05
 NORM(A)=   0.11414540D+01
 Iteration Nr.   7
 **********************
 DD1Dir will call FoFMem   1 times, MxPair=       182
 NAB=    91 NAA=     0 NBB=     0.
 DE(Corr)= -0.91869905     E(CORR)=     -257.69717730     Delta=-9.36D-06
 NORM(A)=   0.11414682D+01
 Iteration Nr.   8
 **********************
 DD1Dir will call FoFMem   1 times, MxPair=       182
 NAB=    91 NAA=     0 NBB=     0.
 DE(Corr)= -0.91869413     E(CORR)=     -257.69717239     Delta= 4.92D-06
 NORM(A)=   0.11414770D+01
 Iteration Nr.   9
 **********************
 DD1Dir will call FoFMem   1 times, MxPair=       182
 NAB=    91 NAA=     0 NBB=     0.
 DE(Corr)= -0.91869513     E(CORR)=     -257.69717339     Delta=-1.00D-06
 NORM(A)=   0.11414786D+01
 Iteration Nr.  10
 **********************
 DD1Dir will call FoFMem   1 times, MxPair=       182
 NAB=    91 NAA=     0 NBB=     0.
 DE(Corr)= -0.91869571     E(CORR)=     -257.69717397     Delta=-5.84D-07
 NORM(A)=   0.11414808D+01
 Iteration Nr.  11
 **********************
 DD1Dir will call FoFMem   1 times, MxPair=       182
 NAB=    91 NAA=     0 NBB=     0.
 DE(Corr)= -0.91869696     E(CORR)=     -257.69717521     Delta=-1.24D-06
 NORM(A)=   0.11414819D+01
 Iteration Nr.  12
 **********************
 DD1Dir will call FoFMem   1 times, MxPair=       182
 NAB=    91 NAA=     0 NBB=     0.
 DE(Corr)= -0.91869718     E(CORR)=     -257.69717544     Delta=-2.23D-07
 NORM(A)=   0.11414826D+01
 Iteration Nr.  13
 **********************
 DD1Dir will call FoFMem   1 times, MxPair=       182
 NAB=    91 NAA=     0 NBB=     0.
 DE(Corr)= -0.91869754     E(CORR)=     -257.69717580     Delta=-3.61D-07
 NORM(A)=   0.11414830D+01
 Iteration Nr.  14
 **********************
 DD1Dir will call FoFMem   1 times, MxPair=       182
 NAB=    91 NAA=     0 NBB=     0.
 DE(Corr)= -0.91869758     E(CORR)=     -257.69717584     Delta=-4.28D-08
 NORM(A)=   0.11414832D+01
 Iteration Nr.  15
 **********************
 DD1Dir will call FoFMem   1 times, MxPair=       182
 NAB=    91 NAA=     0 NBB=     0.
 DE(Corr)= -0.91869763     E(CORR)=     -257.69717589     Delta=-5.02D-08
 NORM(A)=   0.11414833D+01
 Iteration Nr.  16
 **********************
 DD1Dir will call FoFMem   1 times, MxPair=       182
 NAB=    91 NAA=     0 NBB=     0.
 DE(Corr)= -0.91869765     E(CORR)=     -257.69717591     Delta=-1.86D-08
 NORM(A)=   0.11414833D+01
 Iteration Nr.  17
 **********************
 DD1Dir will call FoFMem   1 times, MxPair=       182
 NAB=    91 NAA=     0 NBB=     0.
 DE(Corr)= -0.91869765     E(CORR)=     -257.69717590     Delta= 4.85D-09
 NORM(A)=   0.11414833D+01
 Iteration Nr.  18
 **********************
 DD1Dir will call FoFMem   1 times, MxPair=       182
 NAB=    91 NAA=     0 NBB=     0.
 DE(Corr)= -0.91869765     E(CORR)=     -257.69717591     Delta=-5.63D-09
 NORM(A)=   0.11414833D+01
 Iteration Nr.  19
 **********************
 DD1Dir will call FoFMem   1 times, MxPair=       182
 NAB=    91 NAA=     0 NBB=     0.
 DE(Corr)= -0.91869765     E(CORR)=     -257.69717591     Delta= 3.12D-09
 NORM(A)=   0.11414833D+01
 Largest amplitude= 7.24D-02

 Z-AMPLITUDE ITERATIONS

 Iteration Nr.   1
 **********************
 DD1Dir will call FoFMem   1 times, MxPair=       182
 NAB=    91 NAA=     0 NBB=     0.
 DE(Z)  -0.88508391D+00          E(Z)=    -0.25766356217D+03
 NORM(A)=   0.11414840D+01
 Iteration Nr.   2
 **********************
 DD1Dir will call FoFMem   1 times, MxPair=       182
 NAB=    91 NAA=     0 NBB=     0.
 DE(Z)  -0.88508385D+00          E(Z)=    -0.25766356211D+03
 NORM(A)=   0.11414834D+01
 Iteration Nr.   3
 **********************
 DD1Dir will call FoFMem   1 times, MxPair=       182
 NAB=    91 NAA=     0 NBB=     0.
 DE(Z)  -0.88508391D+00          E(Z)=    -0.25766356217D+03
 NORM(A)=   0.11414834D+01
 Iteration Nr.   4
 **********************
 DD1Dir will call FoFMem   1 times, MxPair=       182
 NAB=    91 NAA=     0 NBB=     0.
 DE(Z)  -0.88508391D+00          E(Z)=    -0.25766356217D+03
 NORM(A)=   0.11414834D+01
 Iteration Nr.   5
 **********************
 DD1Dir will call FoFMem   1 times, MxPair=       182
 NAB=    91 NAA=     0 NBB=     0.
 DE(Z)  -0.88508391D+00          E(Z)=    -0.25766356217D+03
 NORM(A)=   0.11311008D+01
 Iteration Nr.   6
 **********************
 DD1Dir will call FoFMem   1 times, MxPair=       182
 NAB=    91 NAA=     0 NBB=     0.
 DE(Z)  -0.88591037D+00          E(Z)=    -0.25766438863D+03
 NORM(A)=   0.11310479D+01
 Iteration Nr.   7
 **********************
 DD1Dir will call FoFMem   1 times, MxPair=       182
 NAB=    91 NAA=     0 NBB=     0.
 DE(Z)  -0.88591581D+00          E(Z)=    -0.25766439407D+03
 NORM(A)=   0.11310278D+01
 Iteration Nr.   8
 **********************
 DD1Dir will call FoFMem   1 times, MxPair=       182
 NAB=    91 NAA=     0 NBB=     0.
 DE(Z)  -0.88591021D+00          E(Z)=    -0.25766438847D+03
 NORM(A)=   0.11310124D+01
 Iteration Nr.   9
 **********************
 DD1Dir will call FoFMem   1 times, MxPair=       182
 NAB=    91 NAA=     0 NBB=     0.
 DE(Z)  -0.88591046D+00          E(Z)=    -0.25766438871D+03
 NORM(A)=   0.11310080D+01
 Iteration Nr.  10
 **********************
 DD1Dir will call FoFMem   1 times, MxPair=       182
 NAB=    91 NAA=     0 NBB=     0.
 DE(Z)  -0.88591087D+00          E(Z)=    -0.25766438913D+03
 NORM(A)=   0.11310071D+01
 Iteration Nr.  11
 **********************
 DD1Dir will call FoFMem   1 times, MxPair=       182
 NAB=    91 NAA=     0 NBB=     0.
 DE(Z)  -0.88591062D+00          E(Z)=    -0.25766438888D+03
 NORM(A)=   0.11310067D+01
 Iteration Nr.  12
 **********************
 DD1Dir will call FoFMem   1 times, MxPair=       182
 NAB=    91 NAA=     0 NBB=     0.
 DE(Z)  -0.88591062D+00          E(Z)=    -0.25766438888D+03
 NORM(A)=   0.11310065D+01
 Iteration Nr.  13
 **********************
 DD1Dir will call FoFMem   1 times, MxPair=       182
 NAB=    91 NAA=     0 NBB=     0.
 DE(Z)  -0.88591065D+00          E(Z)=    -0.25766438891D+03
 NORM(A)=   0.11310065D+01
 Iteration Nr.  14
 **********************
 DD1Dir will call FoFMem   1 times, MxPair=       182
 NAB=    91 NAA=     0 NBB=     0.
 DE(Z)  -0.88591063D+00          E(Z)=    -0.25766438889D+03
 NORM(A)=   0.11310064D+01
 Iteration Nr.  15
 **********************
 DD1Dir will call FoFMem   1 times, MxPair=       182
 NAB=    91 NAA=     0 NBB=     0.
 DE(Z)  -0.88591064D+00          E(Z)=    -0.25766438890D+03
 NORM(A)=   0.11310064D+01
 Iteration Nr.  16
 **********************
 DD1Dir will call FoFMem   1 times, MxPair=       182
 NAB=    91 NAA=     0 NBB=     0.
 DE(Z)  -0.88591064D+00          E(Z)=    -0.25766438890D+03
 NORM(A)=   0.11310064D+01
 Iteration Nr.  17
 **********************
 DD1Dir will call FoFMem   1 times, MxPair=       182
 NAB=    91 NAA=     0 NBB=     0.
 DE(Z)  -0.88591064D+00          E(Z)=    -0.25766438890D+03
 NORM(A)=   0.11310064D+01
 Iteration Nr.  18
 **********************
 DD1Dir will call FoFMem   1 times, MxPair=       182
 NAB=    91 NAA=     0 NBB=     0.
 DE(Z)  -0.88591064D+00          E(Z)=    -0.25766438890D+03
 NORM(A)=   0.11310064D+01
 Iteration Nr.  19
 **********************
 DD1Dir will call FoFMem   1 times, MxPair=       182
 NAB=    91 NAA=     0 NBB=     0.
 DE(Z)  -0.88591064D+00          E(Z)=    -0.25766438890D+03
 NORM(A)=   0.11310064D+01
 Iteration Nr.  20
 **********************
 DD1Dir will call FoFMem   1 times, MxPair=       182
 NAB=    91 NAA=     0 NBB=     0.
 DE(Z)  -0.88591064D+00          E(Z)=    -0.25766438890D+03
 NORM(A)=   0.11310064D+01
 Discarding MO integrals.
          IDoAtm=1111111
          Differentiating once with respect to electric field.
                with respect to dipole field.
          Differentiating once with respect to nuclear coordinates.
 Keep R1 ints in memory in symmetry-blocked form, NReq=96904184.
          There are     1 degrees of freedom in the 1st order CPHF.  IDoFFX=0 NUNeed=     1.
 LinEq1:  Iter=  0 NonCon=     1 RMS=3.13D-03 Max=3.38D-02 NDo=     1
 AX will form     1 AO Fock derivatives at one time.
 LinEq1:  Iter=  1 NonCon=     1 RMS=8.55D-04 Max=1.30D-02 NDo=     1
 LinEq1:  Iter=  2 NonCon=     1 RMS=2.53D-04 Max=6.04D-03 NDo=     1
 LinEq1:  Iter=  3 NonCon=     1 RMS=8.82D-05 Max=2.21D-03 NDo=     1
 LinEq1:  Iter=  4 NonCon=     1 RMS=3.89D-05 Max=1.13D-03 NDo=     1
 LinEq1:  Iter=  5 NonCon=     1 RMS=1.38D-05 Max=1.97D-04 NDo=     1
 LinEq1:  Iter=  6 NonCon=     1 RMS=3.71D-06 Max=4.37D-05 NDo=     1
 LinEq1:  Iter=  7 NonCon=     1 RMS=2.23D-06 Max=6.25D-05 NDo=     1
 LinEq1:  Iter=  8 NonCon=     1 RMS=4.94D-07 Max=8.71D-06 NDo=     1
 LinEq1:  Iter=  9 NonCon=     1 RMS=1.67D-07 Max=3.70D-06 NDo=     1
 LinEq1:  Iter= 10 NonCon=     1 RMS=7.44D-08 Max=1.38D-06 NDo=     1
 LinEq1:  Iter= 11 NonCon=     1 RMS=1.94D-08 Max=2.25D-07 NDo=     1
 LinEq1:  Iter= 12 NonCon=     1 RMS=6.96D-09 Max=8.13D-08 NDo=     1
 LinEq1:  Iter= 13 NonCon=     1 RMS=2.47D-09 Max=3.65D-08 NDo=     1
 LinEq1:  Iter= 14 NonCon=     1 RMS=4.68D-10 Max=6.80D-09 NDo=     1
 LinEq1:  Iter= 15 NonCon=     1 RMS=8.50D-11 Max=1.48D-09 NDo=     1
 LinEq1:  Iter= 16 NonCon=     0 RMS=1.46D-11 Max=1.77D-10 NDo=     1
 Linear equations converged to 1.000D-10 1.000D-09 after    16 iterations.
 End of Minotr F.D. properties file   721 does not exist.
 End of Minotr F.D. properties file   722 does not exist.
 End of Minotr F.D. properties file   788 does not exist.
 Calling FoFJK, ICntrl=  10002127 FMM=F ISym2X=1 I1Cent= 0 IOpClX= 0 NMat=1 NMatS=1 NMatT=0.
 ***** Axes restored to original set *****
 -------------------------------------------------------------------
 Center     Atomic                   Forces (Hartrees/Bohr)
 Number     Number              X              Y              Z
 -------------------------------------------------------------------
      1        6           0.000495893   -0.002127287    0.000000000
      2        7           0.002740580    0.003878295    0.000000000
      3        7          -0.002719149   -0.006510743    0.000000000
      4        7          -0.002736555    0.003703181    0.000000000
      5        7           0.002559356    0.000983401    0.000000000
      6        1          -0.000139365   -0.000098781    0.000000000
      7        1          -0.000200760    0.000171935    0.000000000
 -------------------------------------------------------------------
 Cartesian Forces:  Max     0.006510743 RMS     0.002245901

 GradGradGradGradGradGradGradGradGradGradGradGradGradGradGradGradGradGrad
 Berny optimization.
 Using GEDIIS/GDIIS optimizer.
 FormGI is forming the generalized inverse of G from B-inverse, IUseBI=4.
 Internal  Forces:  Max     0.004594285 RMS     0.001419764
 Search for a local minimum.
 Step number   2 out of a maximum of   36
 All quantities printed in internal units (Hartrees-Bohrs-Radians)
 Mixed Optimization -- RFO/linear search
 Update second derivatives using D2CorX and points    1    2
 DE= -3.07D-03 DEPred=-2.96D-03 R= 1.04D+00
 TightC=F SS=  1.41D+00  RLast= 9.40D-02 DXNew= 5.0454D-01 2.8190D-01
 Trust test= 1.04D+00 RLast= 9.40D-02 DXMaxT set to 3.00D-01
 ITU=  1  0
 Use linear search instead of GDIIS.
     Eigenvalues ---    0.02505   0.02640   0.02676   0.02835   0.15996
     Eigenvalues ---    0.16000   0.22727   0.24588   0.37589   0.48710
     Eigenvalues ---    0.49792   0.55422   0.59330   0.67824   0.75821
 RFO step:  Lambda=-9.00445031D-05 EMin= 2.50547168D-02
 Quartic linear search produced a step of  0.07690.
 Iteration  1 RMS(Cart)=  0.00330427 RMS(Int)=  0.00001034
 Iteration  2 RMS(Cart)=  0.00000937 RMS(Int)=  0.00000455
 Iteration  3 RMS(Cart)=  0.00000000 RMS(Int)=  0.00000455
 ClnCor:  largest displacement from symmetrization is 3.57D-12 for atom     1.
 Variable       Old X    -DE/DX   Delta X   Delta X   Delta X     New X
                                 (Linear)    (Quad)   (Total)
    R1        2.54295  -0.00186   0.00224  -0.00591  -0.00367   2.53928
    R2        2.47571   0.00017   0.00303  -0.00244   0.00059   2.47630
    R3        2.03371  -0.00015   0.00122  -0.00127  -0.00005   2.03365
    R4        2.54060   0.00237   0.00266   0.00224   0.00491   2.54551
    R5        1.89845  -0.00023   0.00153  -0.00161  -0.00008   1.89837
    R6        2.41798   0.00459   0.00400   0.00365   0.00765   2.42563
    R7        2.57529   0.00286   0.00310   0.00379   0.00689   2.58218
    A1        1.89833   0.00023   0.00079  -0.00331  -0.00252   1.89581
    A2        2.17465  -0.00020  -0.00057   0.00120   0.00063   2.17528
    A3        2.21020  -0.00003  -0.00022   0.00211   0.00189   2.21209
    A4        1.88540   0.00230   0.00002   0.00847   0.00850   1.89389
    A5        2.29202  -0.00103   0.00013  -0.00352  -0.00339   2.28863
    A6        2.10576  -0.00127  -0.00015  -0.00495  -0.00510   2.10066
    A7        1.85881  -0.00224  -0.00024  -0.00746  -0.00769   1.85112
    A8        1.94452  -0.00079   0.00005   0.00034   0.00040   1.94492
    A9        1.83772   0.00051  -0.00062   0.00195   0.00132   1.83903
    D1        0.00000   0.00000   0.00000   0.00000   0.00000   0.00000
    D2        3.14159   0.00000   0.00000   0.00000   0.00000   3.14159
    D3        3.14159   0.00000   0.00000   0.00000   0.00000   3.14159
    D4        0.00000   0.00000   0.00000   0.00000   0.00000   0.00000
    D5        0.00000   0.00000   0.00000   0.00000   0.00000   0.00000
    D6        3.14159   0.00000   0.00000   0.00000   0.00000   3.14159
    D7        0.00000   0.00000   0.00000   0.00000   0.00000   0.00000
    D8        3.14159   0.00000   0.00000   0.00000   0.00000   3.14159
    D9        0.00000   0.00000   0.00000   0.00000   0.00000   0.00000
   D10        0.00000   0.00000   0.00000   0.00000   0.00000   0.00000
         Item               Value     Threshold  Converged?
 Maximum Force            0.004594     0.000450     NO 
 RMS     Force            0.001420     0.000300     NO 
 Maximum Displacement     0.008371     0.001800     NO 
 RMS     Displacement     0.003304     0.001200     NO 
 Predicted change in Energy=-5.853052D-05
 GradGradGradGradGradGradGradGradGradGradGradGradGradGradGradGradGradGrad

                          Input orientation:                          
 ---------------------------------------------------------------------
 Center     Atomic      Atomic             Coordinates (Angstroms)
 Number     Number       Type             X           Y           Z
 ---------------------------------------------------------------------
      1          6           0        1.008787    0.004275    0.000000
      2          7           0        0.390848   -1.188939    0.000000
      3          7           0       -0.940082   -0.981319    0.000000
      4          7           0       -1.100842    0.292161    0.000000
      5          7           0        0.098511    0.946905    0.000000
      6          1           0        2.076331    0.140197    0.000000
      7          1           0        0.758904   -2.123661    0.000000
 ---------------------------------------------------------------------
                    Distance matrix (angstroms):
                    1          2          3          4          5
     1  C    0.000000
     2  N    1.343729   0.000000
     3  N    2.183915   1.347027   0.000000
     4  N    2.129182   2.102093   1.283586   0.000000
     5  N    1.310403   2.155757   2.190142   1.366432   0.000000
     6  H    1.076162   2.146498   3.218159   3.180805   2.136013
     7  H    2.142557   1.004575   2.047315   3.048746   3.140779
                    6          7
     6  H    0.000000
     7  H    2.619288   0.000000
 Stoichiometry    CH2N4
 Framework group  CS[SG(CH2N4)]
 Deg. of freedom    11
 Full point group                 CS      NOp   2
 Largest Abelian subgroup         CS      NOp   2
 Largest concise Abelian subgroup C1      NOp   1
                         Standard orientation:                         
 ---------------------------------------------------------------------
 Center     Atomic      Atomic             Coordinates (Angstroms)
 Number     Number       Type             X           Y           Z
 ---------------------------------------------------------------------
      1          6           0        1.065047    0.233179    0.000000
      2          7           0        0.000000    1.052497    0.000000
      3          7           0       -1.117819    0.300858    0.000000
      4          7           0       -0.724234   -0.920896    0.000000
      5          7           0        0.639532   -1.006213    0.000000
      6          1           0        2.089721    0.562067    0.000000
      7          1           0       -0.062352    2.055135    0.000000
 ---------------------------------------------------------------------
 Rotational constants (GHZ):     10.5863450     10.3661556      5.2375467
 Standard basis: 6-31G(2df,p) (6D, 7F)
 There are   113 symmetry adapted cartesian basis functions of A'  symmetry.
 There are    52 symmetry adapted cartesian basis functions of A"  symmetry.
 There are   103 symmetry adapted basis functions of A'  symmetry.
 There are    47 symmetry adapted basis functions of A"  symmetry.
   150 basis functions,   234 primitive gaussians,   165 cartesian basis functions
    18 alpha electrons       18 beta electrons
       nuclear repulsion energy       167.0464385251 Hartrees.
 NAtoms=    7 NActive=    7 NUniq=    7 SFac= 1.00D+00 NAtFMM=   60 NAOKFM=F Big=F
 Integral buffers will be    131072 words long.
 Raffenetti 1 integral format.
 Two-electron integral symmetry is turned on.
 One-electron integrals computed using PRISM.
 NBasis=   150 RedAO= T EigKep=  2.95D-04  NBF=   103    47
 NBsUse=   150 1.00D-06 EigRej= -1.00D+00 NBFU=   103    47
 Initial guess from the checkpoint file:  "/tmp/rdj3/g09-18029/Gau-21183.chk"
 B after Tr=     0.000000    0.000000    0.000000
         Rot=    1.000000    0.000000    0.000000   -0.000781 Ang=  -0.09 deg.
 Initial guess orbital symmetries:
       Occupied  (A') (A') (A') (A') (A') (A') (A') (A') (A') (A')
                 (A') (A") (A') (A') (A') (A') (A") (A")
       Virtual   (A') (A') (A') (A') (A') (A') (A') (A') (A') (A')
                 (A') (A') (A') (A') (A') (A') (A') (A') (A') (A')
                 (A') (A') (A') (A') (A') (A') (A') (A') (A') (A')
                 (A') (A') (A') (A') (A') (A') (A') (A') (A') (A')
                 (A') (A') (A') (A') (A') (A') (A') (A') (A') (A')
                 (A') (A') (A') (A') (A') (A') (A') (A') (A') (A')
                 (A') (A') (A') (A') (A') (A') (A') (A') (A') (A')
                 (A') (A') (A') (A') (A') (A') (A') (A') (A') (A')
                 (A') (A') (A') (A') (A') (A') (A') (A') (A") (A")
                 (A") (A") (A") (A") (A") (A") (A") (A") (A") (A")
                 (A") (A") (A") (A") (A") (A") (A") (A") (A") (A")
                 (A") (A") (A") (A") (A") (A") (A") (A") (A") (A")
                 (A") (A") (A") (A") (A") (A") (A") (A") (A") (A")
                 (A") (A")
 Keep R1 ints in memory in symmetry-blocked form, NReq=97005431.
 Requested convergence on RMS density matrix=1.00D-08 within 128 cycles.
 Requested convergence on MAX density matrix=1.00D-06.
 Requested convergence on             energy=1.00D-06.
 No special actions if energy rises.
 SCF Done:  E(RHF) =  -256.777903145     A.U. after   11 cycles
            NFock= 11  Conv=0.35D-08     -V/T= 2.0021
 ExpMin= 1.61D-01 ExpMax= 4.17D+03 ExpMxC= 6.27D+02 IAcc=3 IRadAn=         5 AccDes= 0.00D+00
 HarFok:  IExCor=  205 AccDes= 0.00D+00 IRadAn=         5 IDoV=-2 UseB2=F ITyADJ=14
 ICtDFT= 12500011 ScaDFX=  1.000000  1.000000  1.000000  1.000000
 DSYEVD-2 returned Info=          57 IAlg= 4 N=    28 NDim=    28 NE2=    15569076 trying  DSYEV.
 Range of M.O.s used for correlation:     6   150
 NBasis=   150 NAE=    18 NBE=    18 NFC=     5 NFV=     0
 NROrb=    145 NOA=    13 NOB=    13 NVA=   132 NVB=   132

 **** Warning!!: The largest alpha MO coefficient is  0.36840733D+02

 Semi-Direct transformation.
 ModeAB=           2 MOrb=            13 LenV=     435344201
 LASXX=      9493585 LTotXX=     9493585 LenRXX=     9493585
 LTotAB=     9713419 MaxLAS=    25815075 LenRXY=    25815075
 NonZer=    26633165 LenScr=    40708096 LnRSAI=           0
 LnScr1=           0 LExtra=           0 Total=     76016756
 MaxDsk=          -1 SrtSym=           F ITran=            4
 JobTyp=0 Pass  1:  I=   1 to  13.
 (rs|ai) integrals will be sorted in core.
 Spin components of T(2) and E(2):
     alpha-alpha T2 =       0.4066449860D-01 E2=     -0.1227270537D+00
     alpha-beta  T2 =       0.2063049391D+00 E2=     -0.6700458288D+00
     beta-beta   T2 =       0.4066449860D-01 E2=     -0.1227270537D+00
 ANorm=    0.1134739590D+01
 E2 =    -0.9154999363D+00 EUMP2 =    -0.25769340308096D+03
 Keep R2 and R3 ints in memory in symmetry-blocked form, NReq=98259593.
 Iterations=  50 Convergence= 0.100D-07
 Iteration Nr.   1
 **********************
 DD1Dir will call FoFMem   1 times, MxPair=       182
 NAB=    91 NAA=     0 NBB=     0.
 MP4(R+Q)=  0.28845187D-01
 E3=        0.12556723D-02        EUMP3=      -0.25769214741D+03
 E4(DQ)=    0.48296788D-02        UMP4(DQ)=   -0.25768731773D+03
 E4(SDQ)=  -0.47244008D-02        UMP4(SDQ)=  -0.25769687181D+03
 DE(Corr)= -0.88539908     E(Corr)=     -257.66330222    
 NORM(A)=   0.11261215D+01
 Iteration Nr.   2
 **********************
 DD1Dir will call FoFMem   1 times, MxPair=       182
 NAB=    91 NAA=     0 NBB=     0.
 DE(Corr)= -0.91780054     E(CORR)=     -257.69570369     Delta=-3.24D-02
 NORM(A)=   0.11379573D+01
 Iteration Nr.   3
 **********************
 DD1Dir will call FoFMem   1 times, MxPair=       182
 NAB=    91 NAA=     0 NBB=     0.
 DE(Corr)= -0.91637889     E(CORR)=     -257.69428203     Delta= 1.42D-03
 NORM(A)=   0.11404328D+01
 Iteration Nr.   4
 **********************
 DD1Dir will call FoFMem   1 times, MxPair=       182
 NAB=    91 NAA=     0 NBB=     0.
 DE(Corr)= -0.91895280     E(CORR)=     -257.69685595     Delta=-2.57D-03
 NORM(A)=   0.11413434D+01
 Iteration Nr.   5
 **********************
 DD1Dir will call FoFMem   1 times, MxPair=       182
 NAB=    91 NAA=     0 NBB=     0.
 DE(Corr)= -0.91926453     E(CORR)=     -257.69716767     Delta=-3.12D-04
 NORM(A)=   0.11417409D+01
 Iteration Nr.   6
 **********************
 DD1Dir will call FoFMem   1 times, MxPair=       182
 NAB=    91 NAA=     0 NBB=     0.
 DE(Corr)= -0.91931436     E(CORR)=     -257.69721751     Delta=-4.98D-05
 NORM(A)=   0.11418013D+01
 Iteration Nr.   7
 **********************
 DD1Dir will call FoFMem   1 times, MxPair=       182
 NAB=    91 NAA=     0 NBB=     0.
 DE(Corr)= -0.91932384     E(CORR)=     -257.69722699     Delta=-9.48D-06
 NORM(A)=   0.11418156D+01
 Iteration Nr.   8
 **********************
 DD1Dir will call FoFMem   1 times, MxPair=       182
 NAB=    91 NAA=     0 NBB=     0.
 DE(Corr)= -0.91931901     E(CORR)=     -257.69722216     Delta= 4.83D-06
 NORM(A)=   0.11418248D+01
 Iteration Nr.   9
 **********************
 DD1Dir will call FoFMem   1 times, MxPair=       182
 NAB=    91 NAA=     0 NBB=     0.
 DE(Corr)= -0.91931983     E(CORR)=     -257.69722298     Delta=-8.21D-07
 NORM(A)=   0.11418263D+01
 Iteration Nr.  10
 **********************
 DD1Dir will call FoFMem   1 times, MxPair=       182
 NAB=    91 NAA=     0 NBB=     0.
 DE(Corr)= -0.91932052     E(CORR)=     -257.69722366     Delta=-6.84D-07
 NORM(A)=   0.11418286D+01
 Iteration Nr.  11
 **********************
 DD1Dir will call FoFMem   1 times, MxPair=       182
 NAB=    91 NAA=     0 NBB=     0.
 DE(Corr)= -0.91932174     E(CORR)=     -257.69722489     Delta=-1.23D-06
 NORM(A)=   0.11418297D+01
 Iteration Nr.  12
 **********************
 DD1Dir will call FoFMem   1 times, MxPair=       182
 NAB=    91 NAA=     0 NBB=     0.
 DE(Corr)= -0.91932200     E(CORR)=     -257.69722514     Delta=-2.54D-07
 NORM(A)=   0.11418305D+01
 Iteration Nr.  13
 **********************
 DD1Dir will call FoFMem   1 times, MxPair=       182
 NAB=    91 NAA=     0 NBB=     0.
 DE(Corr)= -0.91932236     E(CORR)=     -257.69722551     Delta=-3.66D-07
 NORM(A)=   0.11418309D+01
 Iteration Nr.  14
 **********************
 DD1Dir will call FoFMem   1 times, MxPair=       182
 NAB=    91 NAA=     0 NBB=     0.
 DE(Corr)= -0.91932241     E(CORR)=     -257.69722555     Delta=-4.70D-08
 NORM(A)=   0.11418311D+01
 Iteration Nr.  15
 **********************
 DD1Dir will call FoFMem   1 times, MxPair=       182
 NAB=    91 NAA=     0 NBB=     0.
 DE(Corr)= -0.91932246     E(CORR)=     -257.69722561     Delta=-5.21D-08
 NORM(A)=   0.11418312D+01
 Iteration Nr.  16
 **********************
 DD1Dir will call FoFMem   1 times, MxPair=       182
 NAB=    91 NAA=     0 NBB=     0.
 DE(Corr)= -0.91932248     E(CORR)=     -257.69722563     Delta=-1.90D-08
 NORM(A)=   0.11418312D+01
 Iteration Nr.  17
 **********************
 DD1Dir will call FoFMem   1 times, MxPair=       182
 NAB=    91 NAA=     0 NBB=     0.
 DE(Corr)= -0.91932248     E(CORR)=     -257.69722562     Delta= 4.66D-09
 NORM(A)=   0.11418312D+01
 Iteration Nr.  18
 **********************
 DD1Dir will call FoFMem   1 times, MxPair=       182
 NAB=    91 NAA=     0 NBB=     0.
 DE(Corr)= -0.91932248     E(CORR)=     -257.69722563     Delta=-5.59D-09
 NORM(A)=   0.11418312D+01
 Iteration Nr.  19
 **********************
 DD1Dir will call FoFMem   1 times, MxPair=       182
 NAB=    91 NAA=     0 NBB=     0.
 DE(Corr)= -0.91932248     E(CORR)=     -257.69722562     Delta= 3.52D-09
 NORM(A)=   0.11418312D+01
 Iteration Nr.  20
 **********************
 DD1Dir will call FoFMem   1 times, MxPair=       182
 NAB=    91 NAA=     0 NBB=     0.
 DE(Corr)= -0.91932248     E(CORR)=     -257.69722562     Delta=-9.51D-10
 NORM(A)=   0.11418312D+01
 Largest amplitude= 7.25D-02

 Z-AMPLITUDE ITERATIONS

 Iteration Nr.   1
 **********************
 DD1Dir will call FoFMem   1 times, MxPair=       182
 NAB=    91 NAA=     0 NBB=     0.
 DE(Z)  -0.88555831D+00          E(Z)=    -0.25766346146D+03
 NORM(A)=   0.11418497D+01
 Iteration Nr.   2
 **********************
 DD1Dir will call FoFMem   1 times, MxPair=       182
 NAB=    91 NAA=     0 NBB=     0.
 DE(Z)  -0.88555673D+00          E(Z)=    -0.25766345988D+03
 NORM(A)=   0.11418205D+01
 Iteration Nr.   3
 **********************
 DD1Dir will call FoFMem   1 times, MxPair=       182
 NAB=    91 NAA=     0 NBB=     0.
 DE(Z)  -0.88555917D+00          E(Z)=    -0.25766346231D+03
 NORM(A)=   0.11418375D+01
 Iteration Nr.   4
 **********************
 DD1Dir will call FoFMem   1 times, MxPair=       182
 NAB=    91 NAA=     0 NBB=     0.
 DE(Z)  -0.88555782D+00          E(Z)=    -0.25766346096D+03
 NORM(A)=   0.11418199D+01
 Iteration Nr.   5
 **********************
 DD1Dir will call FoFMem   1 times, MxPair=       182
 NAB=    91 NAA=     0 NBB=     0.
 DE(Z)  -0.88555920D+00          E(Z)=    -0.25766346235D+03
 NORM(A)=   0.11313003D+01
 Iteration Nr.   6
 **********************
 DD1Dir will call FoFMem   1 times, MxPair=       182
 NAB=    91 NAA=     0 NBB=     0.
 DE(Z)  -0.88640515D+00          E(Z)=    -0.25766430829D+03
 NORM(A)=   0.11312940D+01
 Iteration Nr.   7
 **********************
 DD1Dir will call FoFMem   1 times, MxPair=       182
 NAB=    91 NAA=     0 NBB=     0.
 DE(Z)  -0.88640536D+00          E(Z)=    -0.25766430851D+03
 NORM(A)=   0.11312928D+01
 Iteration Nr.   8
 **********************
 DD1Dir will call FoFMem   1 times, MxPair=       182
 NAB=    91 NAA=     0 NBB=     0.
 DE(Z)  -0.88640560D+00          E(Z)=    -0.25766430875D+03
 NORM(A)=   0.11312926D+01
 Iteration Nr.   9
 **********************
 DD1Dir will call FoFMem   1 times, MxPair=       182
 NAB=    91 NAA=     0 NBB=     0.
 DE(Z)  -0.88640546D+00          E(Z)=    -0.25766430860D+03
 NORM(A)=   0.11312925D+01
 Iteration Nr.  10
 **********************
 DD1Dir will call FoFMem   1 times, MxPair=       182
 NAB=    91 NAA=     0 NBB=     0.
 DE(Z)  -0.88640551D+00          E(Z)=    -0.25766430865D+03
 NORM(A)=   0.11312923D+01
 Iteration Nr.  11
 **********************
 DD1Dir will call FoFMem   1 times, MxPair=       182
 NAB=    91 NAA=     0 NBB=     0.
 DE(Z)  -0.88640552D+00          E(Z)=    -0.25766430867D+03
 NORM(A)=   0.11312923D+01
 Iteration Nr.  12
 **********************
 DD1Dir will call FoFMem   1 times, MxPair=       182
 NAB=    91 NAA=     0 NBB=     0.
 DE(Z)  -0.88640551D+00          E(Z)=    -0.25766430865D+03
 NORM(A)=   0.11312923D+01
 Iteration Nr.  13
 **********************
 DD1Dir will call FoFMem   1 times, MxPair=       182
 NAB=    91 NAA=     0 NBB=     0.
 DE(Z)  -0.88640552D+00          E(Z)=    -0.25766430866D+03
 NORM(A)=   0.11312923D+01
 Iteration Nr.  14
 **********************
 DD1Dir will call FoFMem   1 times, MxPair=       182
 NAB=    91 NAA=     0 NBB=     0.
 DE(Z)  -0.88640551D+00          E(Z)=    -0.25766430866D+03
 NORM(A)=   0.11312923D+01
 Discarding MO integrals.
          IDoAtm=1111111
          Differentiating once with respect to electric field.
                with respect to dipole field.
          Differentiating once with respect to nuclear coordinates.
 Keep R1 ints in memory in symmetry-blocked form, NReq=96904184.
          There are     1 degrees of freedom in the 1st order CPHF.  IDoFFX=0 NUNeed=     1.
 LinEq1:  Iter=  0 NonCon=     1 RMS=3.14D-03 Max=3.37D-02 NDo=     1
 AX will form     1 AO Fock derivatives at one time.
 LinEq1:  Iter=  1 NonCon=     1 RMS=8.57D-04 Max=1.31D-02 NDo=     1
 LinEq1:  Iter=  2 NonCon=     1 RMS=2.55D-04 Max=6.13D-03 NDo=     1
 LinEq1:  Iter=  3 NonCon=     1 RMS=8.83D-05 Max=2.18D-03 NDo=     1
 LinEq1:  Iter=  4 NonCon=     1 RMS=3.83D-05 Max=1.10D-03 NDo=     1
 LinEq1:  Iter=  5 NonCon=     1 RMS=1.38D-05 Max=1.96D-04 NDo=     1
 LinEq1:  Iter=  6 NonCon=     1 RMS=3.82D-06 Max=4.59D-05 NDo=     1
 LinEq1:  Iter=  7 NonCon=     1 RMS=2.30D-06 Max=6.39D-05 NDo=     1
 LinEq1:  Iter=  8 NonCon=     1 RMS=5.08D-07 Max=8.78D-06 NDo=     1
 LinEq1:  Iter=  9 NonCon=     1 RMS=1.77D-07 Max=4.05D-06 NDo=     1
 LinEq1:  Iter= 10 NonCon=     1 RMS=7.63D-08 Max=1.33D-06 NDo=     1
 LinEq1:  Iter= 11 NonCon=     1 RMS=2.02D-08 Max=2.32D-07 NDo=     1
 LinEq1:  Iter= 12 NonCon=     1 RMS=7.69D-09 Max=9.08D-08 NDo=     1
 LinEq1:  Iter= 13 NonCon=     1 RMS=2.61D-09 Max=3.98D-08 NDo=     1
 LinEq1:  Iter= 14 NonCon=     1 RMS=4.85D-10 Max=6.97D-09 NDo=     1
 LinEq1:  Iter= 15 NonCon=     1 RMS=8.78D-11 Max=1.49D-09 NDo=     1
 LinEq1:  Iter= 16 NonCon=     0 RMS=1.51D-11 Max=1.82D-10 NDo=     1
 Linear equations converged to 1.000D-10 1.000D-09 after    16 iterations.
 End of Minotr F.D. properties file   721 does not exist.
 End of Minotr F.D. properties file   722 does not exist.
 End of Minotr F.D. properties file   788 does not exist.
 Calling FoFJK, ICntrl=  10002127 FMM=F ISym2X=1 I1Cent= 0 IOpClX= 0 NMat=1 NMatS=1 NMatT=0.
 ***** Axes restored to original set *****
 -------------------------------------------------------------------
 Center     Atomic                   Forces (Hartrees/Bohr)
 Number     Number              X              Y              Z
 -------------------------------------------------------------------
      1        6          -0.001769458   -0.001360908    0.000000000
      2        7           0.001195145   -0.000505739    0.000000000
      3        7           0.001428962   -0.000002529    0.000000000
      4        7          -0.000416496    0.001553676    0.000000000
      5        7          -0.000306840    0.000338259    0.000000000
      6        1          -0.000162947   -0.000053568    0.000000000
      7        1           0.000031633    0.000030809    0.000000000
 -------------------------------------------------------------------
 Cartesian Forces:  Max     0.001769458 RMS     0.000741185

 GradGradGradGradGradGradGradGradGradGradGradGradGradGradGradGradGradGrad
 Berny optimization.
 Using GEDIIS/GDIIS optimizer.
 FormGI is forming the generalized inverse of G from B-inverse, IUseBI=4.
 Internal  Forces:  Max     0.001239388 RMS     0.000597135
 Search for a local minimum.
 Step number   3 out of a maximum of   36
 All quantities printed in internal units (Hartrees-Bohrs-Radians)
 Mixed Optimization -- En-DIIS/RFO-DIIS
 Update second derivatives using D2CorX and points    1    2    3
 DE= -4.97D-05 DEPred=-5.85D-05 R= 8.49D-01
 TightC=F SS=  1.41D+00  RLast= 1.80D-02 DXNew= 5.0454D-01 5.4089D-02
 Trust test= 8.49D-01 RLast= 1.80D-02 DXMaxT set to 3.00D-01
 ITU=  1  1  0
 Use linear search instead of GDIIS.
     Eigenvalues ---    0.02505   0.02638   0.02675   0.02835   0.15968
     Eigenvalues ---    0.16004   0.24207   0.31323   0.37600   0.40718
     Eigenvalues ---    0.49072   0.53957   0.63810   0.68306   0.71338
 RFO step:  Lambda=-1.96591052D-05 EMin= 2.50540337D-02
 Quartic linear search produced a step of -0.14377.
 Iteration  1 RMS(Cart)=  0.00168368 RMS(Int)=  0.00000184
 Iteration  2 RMS(Cart)=  0.00000145 RMS(Int)=  0.00000108
 Iteration  3 RMS(Cart)=  0.00000000 RMS(Int)=  0.00000108
 ClnCor:  largest displacement from symmetrization is 1.29D-12 for atom     1.
 Variable       Old X    -DE/DX   Delta X   Delta X   Delta X     New X
                                 (Linear)    (Quad)   (Total)
    R1        2.53928  -0.00124   0.00053  -0.00306  -0.00253   2.53675
    R2        2.47630   0.00051  -0.00008   0.00071   0.00063   2.47693
    R3        2.03365  -0.00017   0.00001  -0.00042  -0.00041   2.03324
    R4        2.54551  -0.00034  -0.00071   0.00099   0.00029   2.54580
    R5        1.89837  -0.00002   0.00001  -0.00007  -0.00005   1.89832
    R6        2.42563   0.00109  -0.00110   0.00355   0.00245   2.42807
    R7        2.58218  -0.00073  -0.00099   0.00103   0.00004   2.58222
    A1        1.89581   0.00115   0.00036   0.00316   0.00352   1.89933
    A2        2.17528  -0.00061  -0.00009  -0.00194  -0.00203   2.17325
    A3        2.21209  -0.00054  -0.00027  -0.00122  -0.00149   2.21060
    A4        1.89389  -0.00105  -0.00122  -0.00191  -0.00313   1.89076
    A5        2.28863   0.00049   0.00049   0.00100   0.00149   2.29012
    A6        2.10066   0.00056   0.00073   0.00091   0.00165   2.10231
    A7        1.85112   0.00104   0.00111   0.00177   0.00287   1.85399
[...]
 Red. masses --      1.6779                 2.1172                 8.3141
 Frc consts  --      0.3239                 0.6064                 2.7384
 IR Inten    --     87.5637                 6.5402                 8.6651
  Atom  AN      X      Y      Z        X      Y      Z        X      Y      Z
     1   6     0.00   0.00  -0.08     0.00   0.00   0.19     0.00   0.00  -0.09
     2   7     0.00   0.00   0.20     0.00   0.00  -0.11     0.00   0.00  -0.13
     3   7     0.00   0.00  -0.08     0.00   0.00   0.10     0.00   0.00   0.43
     4   7     0.00   0.00   0.00     0.00   0.00   0.04     0.00   0.00  -0.50
     5   7     0.00   0.00   0.02     0.00   0.00  -0.18     0.00   0.00   0.33
     6   1     0.00   0.00  -0.20     0.00   0.00   0.54     0.00   0.00  -0.10
     7   1     0.00   0.00  -0.95     0.00   0.00  -0.79     0.00   0.00  -0.65
                      4                      5                      6
                     A"                     A'                     A'
 Frequencies --    901.0407               985.5493              1024.6188
 Red. masses --      1.3504                 5.1015                 6.5211
 Frc consts  --      0.6460                 2.9194                 4.0336
 IR Inten    --     12.5714                 2.8108                 1.1511
  Atom  AN      X      Y      Z        X      Y      Z        X      Y      Z
     1   6     0.00   0.00   0.17     0.10   0.12   0.00    -0.37  -0.07   0.00
     2   7     0.00   0.00  -0.03     0.09   0.02   0.00     0.01   0.42   0.00
     3   7     0.00   0.00   0.00     0.16  -0.14   0.00     0.14  -0.05   0.00
     4   7     0.00   0.00  -0.02     0.05  -0.18   0.00     0.22  -0.07   0.00
     5   7     0.00   0.00  -0.03    -0.38   0.24   0.00    -0.04  -0.23   0.00
     6   1     0.00   0.00  -0.98     0.33  -0.62   0.00    -0.24  -0.53   0.00
     7   1     0.00   0.00  -0.05    -0.43  -0.01   0.00     0.12   0.44   0.00
                      7                      8                      9
                     A'                     A'                     A'
 Frequencies --   1078.3666              1093.7668              1170.9723
 Red. masses --      5.4321                 3.0099                 1.8748
 Frc consts  --      3.7218                 2.1215                 1.5146
 IR Inten    --     17.4650                29.0914                14.2614
  Atom  AN      X      Y      Z        X      Y      Z        X      Y      Z
     1   6    -0.13   0.01   0.00    -0.01  -0.03   0.00     0.09  -0.10   0.00
     2   7    -0.10  -0.27   0.00    -0.14  -0.01   0.00    -0.13  -0.01   0.00
     3   7     0.09   0.19   0.00     0.32   0.09   0.00    -0.07   0.03   0.00
     4   7     0.37   0.08   0.00    -0.14  -0.02   0.00     0.11   0.12   0.00
     5   7    -0.23  -0.04   0.00     0.05  -0.05   0.00     0.02   0.00   0.00
     6   1    -0.35   0.63   0.00    -0.11   0.27   0.00     0.30  -0.75   0.00
     7   1     0.25  -0.26   0.00    -0.87  -0.05   0.00    -0.52  -0.03   0.00
                     10                     11                     12
                     A'                     A'                     A'
 Frequencies --   1297.1174              1350.0768              1495.3443
 Red. masses --      2.4647                 9.9496                 3.0108
 Frc consts  --      2.4433                10.6850                 3.9665
 IR Inten    --      0.6152                17.0699                13.2029
  Atom  AN      X      Y      Z        X      Y      Z        X      Y      Z
     1   6     0.19   0.04   0.00     0.22   0.08   0.00    -0.18   0.21   0.00
     2   7     0.06   0.11   0.00    -0.16   0.10   0.00     0.22  -0.12   0.00
     3   7    -0.11  -0.05   0.00    -0.16   0.50   0.00    -0.08   0.09   0.00
     4   7     0.05   0.04   0.00     0.05  -0.56   0.00     0.00  -0.02   0.00
     5   7    -0.12  -0.19   0.00     0.03  -0.10   0.00     0.07  -0.08   0.00
     6   1     0.00   0.71   0.00     0.35  -0.22   0.00     0.00  -0.43   0.00
     7   1    -0.61   0.08   0.00     0.32   0.16   0.00    -0.78  -0.21   0.00
                     13                     14                     15
                     A'                     A'                     A'
 Frequencies --   1545.8969              3337.4772              3738.1025
 Red. masses --      3.6092                 1.1016                 1.0838
 Frc consts  --      5.0818                 7.2293                 8.9230
 IR Inten    --     19.3293                 1.6897               114.3948
  Atom  AN      X      Y      Z        X      Y      Z        X      Y      Z
     1   6     0.08   0.33   0.00     0.09   0.03   0.00     0.00   0.00   0.00
     2   7    -0.14  -0.05   0.00     0.00   0.00   0.00    -0.01   0.08   0.00
     3   7     0.09  -0.07   0.00     0.00   0.00   0.00     0.00   0.00   0.00
     4   7    -0.06   0.09   0.00     0.00   0.00   0.00     0.00   0.00   0.00
     5   7    -0.04  -0.22   0.00     0.00   0.00   0.00     0.00   0.00   0.00
     6   1     0.38  -0.46   0.00    -0.95  -0.30   0.00    -0.02   0.00   0.00
     7   1     0.66   0.00   0.00     0.01   0.02   0.00     0.06  -0.99   0.00

 -------------------
 - Thermochemistry -
 -------------------
 Temperature   298.150 Kelvin.  Pressure   1.00000 Atm.
 Atom     1 has atomic number  6 and mass  12.00000
 Atom     2 has atomic number  7 and mass  14.00307
 Atom     3 has atomic number  7 and mass  14.00307
 Atom     4 has atomic number  7 and mass  14.00307
 Atom     5 has atomic number  7 and mass  14.00307
 Atom     6 has atomic number  1 and mass   1.00783
 Atom     7 has atomic number  1 and mass   1.00783
 Molecular mass:    70.02795 amu.
 Principal axes and moments of inertia in atomic units:
                           1         2         3
     Eigenvalues --   170.60636 173.89922 344.50558
           X            0.83829   0.54522   0.00000
           Y           -0.54522   0.83829   0.00000
           Z            0.00000   0.00000   1.00000
 This molecule is an asymmetric top.
 Rotational symmetry number  1.
 Rotational temperatures (Kelvin)      0.50768     0.49807     0.25141
 Rotational constants (GHZ):          10.57839    10.37809     5.23864
 Zero-point vibrational energy     125821.2 (Joules/Mol)
                                   30.07199 (Kcal/Mol)
 Warning -- explicit consideration of   1 degrees of freedom as
           vibrations may cause significant error
 Vibrational temperatures:    823.58  1003.16  1075.74  1296.40  1417.98
          (Kelvin)           1474.20  1551.53  1573.68  1684.77  1866.26
                             1942.46  2151.46  2224.20  4801.88  5378.29
 
 Zero-point correction=                           0.047923 (Hartree/Particle)
 Thermal correction to Energy=                    0.051367
 Thermal correction to Enthalpy=                  0.052311
 Thermal correction to Gibbs Free Energy=         0.021840
 Sum of electronic and zero-point Energies=           -257.649312
 Sum of electronic and thermal Energies=              -257.645868
 Sum of electronic and thermal Enthalpies=            -257.644924
 Sum of electronic and thermal Free Energies=         -257.675395
 
                     E (Thermal)             CV                S
                      KCal/Mol        Cal/Mol-Kelvin    Cal/Mol-Kelvin
 Total                   32.233             11.094             64.132
 Electronic               0.000              0.000              0.000
 Translational            0.889              2.981             38.656
 Rotational               0.889              2.981             23.840
 Vibrational             30.456              5.133              1.636
 Vibration     1          0.929              1.091              0.500
                       Q            Log10(Q)             Ln(Q)
 Total Bot       0.900118D-10        -10.045700        -23.131080
 Total V=0       0.993557D+12         11.997193         27.624557
 Vib (Bot)       0.107981D-21        -21.966654        -50.580089
 Vib (Bot)    1  0.268226D+00         -0.571499         -1.315925
 Vib (V=0)       0.119190D+01          0.076240          0.175548
 Vib (V=0)    1  0.106740D+01          0.028328          0.065228
 Electronic      0.100000D+01          0.000000          0.000000
 Translational   0.230336D+08          7.362362         16.952466
 Rotational      0.361902D+05          4.558591         10.496544
 ***** Axes restored to original set *****
 -------------------------------------------------------------------
 Center     Atomic                   Forces (Hartrees/Bohr)
 Number     Number              X              Y              Z
 -------------------------------------------------------------------
      1        6           0.000212004   -0.000127174    0.000000000
      2        7           0.000013735    0.000115604    0.000000000
      3        7           0.000049877    0.000130605    0.000000000
      4        7          -0.000076107    0.000145200    0.000000000
      5        7          -0.000243474   -0.000286010    0.000000000
      6        1           0.000024730    0.000016584    0.000000000
      7        1           0.000019233    0.000005191    0.000000000
 -------------------------------------------------------------------
 Cartesian Forces:  Max     0.000286010 RMS     0.000112007
 FormGI is forming the generalized inverse of G from B-inverse, IUseBI=4.

 GradGradGradGradGradGradGradGradGradGradGradGradGradGradGradGradGradGrad
 Berny optimization.
 Internal  Forces:  Max     0.000237128 RMS     0.000089906
 Search for a local minimum.
 Step number   1 out of a maximum of    2
 All quantities printed in internal units (Hartrees-Bohrs-Radians)
 Second derivative matrix not updated -- analytic derivatives used.
 ITU=  0
     Eigenvalues ---    0.00794   0.02729   0.07306   0.07993   0.10471
     Eigenvalues ---    0.10929   0.20706   0.26416   0.35939   0.38925
     Eigenvalues ---    0.45471   0.48615   0.49919   0.59806   0.65188
 Angle between quadratic step and forces=  30.34 degrees.
 Linear search not attempted -- first point.
 Iteration  1 RMS(Cart)=  0.00021489 RMS(Int)=  0.00000004
 Iteration  2 RMS(Cart)=  0.00000004 RMS(Int)=  0.00000002
 ClnCor:  largest displacement from symmetrization is 2.48D-14 for atom     4.
 Variable       Old X    -DE/DX   Delta X   Delta X   Delta X     New X
                                 (Linear)    (Quad)   (Total)
    R1        2.53672  -0.00014   0.00000  -0.00021  -0.00021   2.53651
    R2        2.47649   0.00009   0.00000   0.00025   0.00025   2.47674
    R3        2.03333   0.00003   0.00000   0.00003   0.00003   2.03336
    R4        2.54521   0.00008   0.00000   0.00000   0.00000   2.54521
    R5        1.89821   0.00000   0.00000   0.00001   0.00001   1.89822
    R6        2.42750  -0.00006   0.00000   0.00007   0.00007   2.42758
    R7        2.58144  -0.00014   0.00000  -0.00068  -0.00068   2.58075
    A1        1.89925  -0.00016   0.00000  -0.00053  -0.00053   1.89872
    A2        2.17373   0.00010   0.00000   0.00050   0.00050   2.17424
    A3        2.21020   0.00007   0.00000   0.00003   0.00003   2.21023
    A4        1.89137   0.00001   0.00000   0.00017   0.00017   1.89154
    A5        2.29001  -0.00002   0.00000  -0.00014  -0.00014   2.28987
    A6        2.10181   0.00001   0.00000  -0.00004  -0.00004   2.10177
    A7        1.85278   0.00012   0.00000   0.00008   0.00008   1.85286
    A8        1.94390  -0.00020   0.00000  -0.00032  -0.00032   1.94358
    A9        1.83748   0.00024   0.00000   0.00060   0.00060   1.83808
    D1        0.00000   0.00000   0.00000   0.00000   0.00000   0.00000
    D2        3.14159   0.00000   0.00000   0.00000   0.00000   3.14159
    D3        3.14159   0.00000   0.00000   0.00000   0.00000   3.14159
    D4        0.00000   0.00000   0.00000   0.00000   0.00000   0.00000
    D5        0.00000   0.00000   0.00000   0.00000   0.00000   0.00000
    D6        3.14159   0.00000   0.00000   0.00000   0.00000   3.14159
    D7        0.00000   0.00000   0.00000   0.00000   0.00000   0.00000
    D8        3.14159   0.00000   0.00000   0.00000   0.00000   3.14159
    D9        0.00000   0.00000   0.00000   0.00000   0.00000   0.00000
   D10        0.00000   0.00000   0.00000   0.00000   0.00000   0.00000
         Item               Value     Threshold  Converged?
 Maximum Force            0.000237     0.000450     YES
 RMS     Force            0.000090     0.000300     YES
 Maximum Displacement     0.000680     0.001800     YES
 RMS     Displacement     0.000215     0.001200     YES
 Predicted change in Energy=-2.532096D-07
 Optimization completed.
    -- Stationary point found.
                           ----------------------------
                           !   Optimized Parameters   !
                           ! (Angstroms and Degrees)  !
 --------------------------                            --------------------------
 ! Name  Definition              Value          Derivative Info.                !
 --------------------------------------------------------------------------------
 ! R1    R(1,2)                  1.3424         -DE/DX =   -0.0001              !
 ! R2    R(1,5)                  1.3105         -DE/DX =    0.0001              !
 ! R3    R(1,6)                  1.076          -DE/DX =    0.0                 !
 ! R4    R(2,3)                  1.3469         -DE/DX =    0.0001              !
 ! R5    R(2,7)                  1.0045         -DE/DX =    0.0                 !
 ! R6    R(3,4)                  1.2846         -DE/DX =   -0.0001              !
 ! R7    R(4,5)                  1.366          -DE/DX =   -0.0001              !
 ! A1    A(2,1,5)              108.8192         -DE/DX =   -0.0002              !
 ! A2    A(2,1,6)              124.5457         -DE/DX =    0.0001              !
 ! A3    A(5,1,6)              126.6351         -DE/DX =    0.0001              !
 ! A4    A(1,2,3)              108.3672         -DE/DX =    0.0                 !
 ! A5    A(1,2,7)              131.2077         -DE/DX =    0.0                 !
 ! A6    A(3,2,7)              120.4251         -DE/DX =    0.0                 !
 ! A7    A(2,3,4)              106.1563         -DE/DX =    0.0001              !
 ! A8    A(3,4,5)              111.3773         -DE/DX =   -0.0002              !
 ! A9    A(1,5,4)              105.2799         -DE/DX =    0.0002              !
 ! D1    D(5,1,2,3)              0.0            -DE/DX =    0.0                 !
 ! D2    D(5,1,2,7)            180.0            -DE/DX =    0.0                 !
 ! D3    D(6,1,2,3)            180.0            -DE/DX =    0.0                 !
 ! D4    D(6,1,2,7)              0.0            -DE/DX =    0.0                 !
 ! D5    D(2,1,5,4)              0.0            -DE/DX =    0.0                 !
 ! D6    D(6,1,5,4)            180.0            -DE/DX =    0.0                 !
 ! D7    D(1,2,3,4)              0.0            -DE/DX =    0.0                 !
 ! D8    D(7,2,3,4)            180.0            -DE/DX =    0.0                 !
 ! D9    D(2,3,4,5)              0.0            -DE/DX =    0.0                 !
 ! D10   D(3,4,5,1)              0.0            -DE/DX =    0.0                 !
 --------------------------------------------------------------------------------
 GradGradGradGradGradGradGradGradGradGradGradGradGradGradGradGradGradGrad

 1\1\GINC-N963\Freq\RQCISD-FC\6-31G(2df,p)\C1H2N4\RDJ3\17-Dec-2013\0\\#
 N Geom=AllCheck Guess=TCheck SCRF=Check GenChk RQCISD(FC)/6-31G(2df,p)
  Freq\\1H-tetrazole CH2N4 casno=288948 state=1 config=1 method=5 basis
 =19\\0,1\C,1.0071368388,0.0034294344,0.\N,0.3917727478,-1.1895919522,0
 .\N,-0.9388149894,-0.9808092752,0.\N,-1.1006767429,0.2935319989,0.\N,0
 .098497804,0.9477784315,0.\H,2.0744988674,0.1394204939,0.\H,0.76004226
 23,-2.1241404854,0.\\Version=EM64L-G09RevD.01\State=1-A'\HF=-256.77789
 39\MP2=-257.6934451\MP3=-257.6921606\MP4D=-257.7161845\MP4DQ=-257.6873
 343\MP4SDQ=-257.6968844\QCISD=-257.6972349\RMSD=1.511e-09\RMSF=1.120e-
 04\ZeroPoint=0.0479228\Thermal=0.0513671\Dipole=1.6606107,-1.2661471,0
 .\DipoleDeriv=0.2360855,0.0953358,0.,-0.0895271,0.4581092,0.,0.,0.,0.1
 313589,-0.2933772,0.2474493,0.,0.2098782,-0.3838508,0.,0.,0.,-0.148399
 ,0.1470382,-0.3466636,0.,-0.2952821,-0.198506,0.,0.,0.,-0.1023071,0.07
 92491,0.139652,0.,0.2010489,-0.0064763,0.,0.,0.,-0.1462167,-0.4436014,
 -0.1059498,0.,-0.0070967,-0.2932565,0.,0.,0.,-0.2222926,0.0651117,0.01
 00271,0.,0.0077181,0.1171799,0.,0.,0.,0.1513822,0.2092248,-0.0402113,0
 .,-0.0267876,0.3066477,0.,0.,0.,0.336451\Quadrupole=0.7058926,-0.22526
 59,-0.4806267,-1.5967349,0.,0.\QuadrupoleDeriv=2.4512076,-1.5791408,-0
 .8720668,0.7616098,0.,0.,0.206856,-0.1836681,-0.0231879,1.3094904,0.,0
 .,0.,0.,0.,0.,-0.0666094,0.0286998,0.6250995,-0.504331,-0.1207685,-0.5
 99812,0.,0.,0.5609755,-0.8461882,0.2852127,0.3885166,0.,0.,0.,0.,0.,0.
 ,-0.5010914,0.7190755,-1.3146797,1.107399,0.2072807,-1.1877372,0.,0.,0
 .4170745,-0.6862504,0.2691758,-0.4255406,0.,0.,0.,0.,0.,0.,0.534465,0.
 5820185,-1.0623436,0.7902529,0.2720908,0.6181585,0.,0.,-0.65755,0.9135
 303,-0.2559803,-0.9848843,0.,0.,0.,0.,0.,0.,0.6806215,-0.3404811,0.099
 8117,-0.2621389,0.1623273,0.2627553,0.,0.,-0.4422005,0.569224,-0.12702
 35,0.0661328,0.,0.,0.,0.,0.,0.,-0.370655,-0.9994635,0.7334053,-0.30306
 24,-0.4303429,0.1026861,0.,0.,-0.1058787,0.2109696,-0.1050909,0.818385
 4,0.,0.,0.,0.,0.,0.,0.7875775,0.1051913,0.6815701,-0.3561684,-0.325401
 7,-1.2236304,0.,0.,0.8647738,-1.6658052,0.8010314,0.4897183,0.,0.,0.,0
 .,0.,0.,0.5960314,-1.3614083\PG=CS [SG(C1H2N4)]\NImag=0\\0.98723861,0.
 01255873,0.64532948,0.,0.,0.14872400,-0.17245469,-0.08640000,0.,0.6108
 7443,-0.11189301,-0.29250675,0.,-0.11348333,1.03439332,0.,0.,-0.063305
 55,0.,0.,0.09098248,-0.09419572,-0.08627996,0.,-0.24959640,-0.03384135
 ,0.,0.48168896,0.00091812,-0.03294926,0.,0.01187079,-0.10284532,0.,0.0
 6057709,0.61789920,0.,0.,0.02056725,0.,0.,-0.06913508,0.,0.,0.11771675
 ,-0.12068495,0.07398411,0.,-0.07596681,0.03150310,0.,-0.11857699,0.002
 45175,0.,0.51291767,-0.02826739,0.03485536,0.,0.11043552,-0.10541729,0
 .,0.06812218,-0.38049884,0.,-0.10378111,0.56466622,0.,0.,0.01861705,0.
 ,0.,0.02764165,0.,0.,-0.09958229,0.,0.,0.12709360,-0.24702214,0.141189
 18,0.,0.01306144,0.09358986,0.,-0.02218509,-0.11334591,0.,-0.18370770,
 -0.05144399,0.,0.45231162,0.15002890,-0.28526776,0.,-0.02748683,-0.102
 08520,0.,-0.00668132,-0.09796895,0.,-0.00707127,-0.11379548,0.,-0.0926
 8862,0.59110892,0.,0.,-0.08119468,0.,0.,0.02157949,0.,0.,0.03663616,0.
 ,0.,-0.09130330,0.,0.,0.11124692,-0.36970351,-0.04265792,0.,-0.0026402
 6,0.00361456,0.,0.00083201,0.00164277,0.,-0.00161616,0.00091168,0.,-0.
 01087041,-0.00638371,0.,0.38443802,-0.03962355,-0.06377148,0.,-0.03330
 456,0.00293627,0.,-0.00133512,-0.00686682,0.,0.00650866,-0.00333724,0.
 ,0.02419869,0.01181333,0.,0.04334874,0.05934726,0.,0.,-0.03371022,0.,0
 .,-0.00197875,0.,0.,0.00636543,0.,0.,0.00953986,0.,0.,-0.00450562,0.,0
 .,0.02521114,0.01683789,-0.01240133,0.,-0.12326381,0.13051365,0.,0.002
 02745,0.03586761,0.,-0.01235827,0.00403952,0.,-0.00161010,-0.00971949,
 0.,-0.00044887,0.00021045,0.,0.11881687,0.01629882,-0.00576107,0.,0.13
 838777,-0.43442102,0.,-0.00058753,0.00320520,0.,-0.00354883,0.00354324
 ,0.,-0.00156404,-0.00378039,0.,-0.00047504,-0.00011779,0.,-0.14850705,
 0.43733013,0.,0.,-0.00970116,0.,0.,-0.00579424,0.,0.,-0.01256064,0.,0.
 ,0.00800200,0.,0.,0.00753092,0.,0.,-0.00091976,0.,0.,0.01344808\\-0.00
 021200,0.00012717,0.,-0.00001374,-0.00011560,0.,-0.00004988,-0.0001306
 0,0.,0.00007611,-0.00014520,0.,0.00024347,0.00028601,0.,-0.00002473,-0
 .00001658,0.,-0.00001923,-0.00000519,0.\\\@


 THE SOLUTION TO A PROBLEM CHANGES THE PROBLEM.

                                 -- JOHN PEERS
           PAUL DICKSON'S "THE OFFICIAL RULES"
 Job cpu time:       3 days  2 hours 42 minutes 57.6 seconds.
 File lengths (MBytes):  RWF=   7980 Int=      0 D2E=      0 Chk=     42 Scr=      1
 Normal termination of Gaussian 09 at Tue Dec 17 03:20:28 2013.
