 Entering Gaussian System, Link 0=g09
 Initial command:
 /usr/local/gaussian/g09.d01.em64t.legacy.linda/g09/l1.exe "/tmp/rdj3/g09-31683/Gau-17367.inp" -scrdir="/tmp/rdj3/g09-31683/"
 Entering Link 1 = /usr/local/gaussian/g09.d01.em64t.legacy.linda/g09/l1.exe PID=     17368.
  
 Copyright (c) 1988,1990,1992,1993,1995,1998,2003,2009,2013,
            Gaussian, Inc.  All Rights Reserved.
  
 This is part of the Gaussian(R) 09 program.  It is based on
 the Gaussian(R) 03 system (copyright 2003, Gaussian, Inc.),
 the Gaussian(R) 98 system (copyright 1998, Gaussian, Inc.),
 the Gaussian(R) 94 system (copyright 1995, Gaussian, Inc.),
 the Gaussian 92(TM) system (copyright 1992, Gaussian, Inc.),
 the Gaussian 90(TM) system (copyright 1990, Gaussian, Inc.),
 the Gaussian 88(TM) system (copyright 1988, Gaussian, Inc.),
 the Gaussian 86(TM) system (copyright 1986, Carnegie Mellon
 University), and the Gaussian 82(TM) system (copyright 1983,
 Carnegie Mellon University). Gaussian is a federally registered
 trademark of Gaussian, Inc.
  
 This software contains proprietary and confidential information,
 including trade secrets, belonging to Gaussian, Inc.
  
 This software is provided under written license and may be
 used, copied, transmitted, or stored only in accord with that
 written license.
  
 The following legend is applicable only to US Government
 contracts under FAR:
  
                    RESTRICTED RIGHTS LEGEND
  
 Use, reproduction and disclosure by the US Government is
 subject to restrictions as set forth in subparagraphs (a)
 and (c) of the Commercial Computer Software - Restricted
 Rights clause in FAR 52.227-19.
  
 Gaussian, Inc.
 340 Quinnipiac St., Bldg. 40, Wallingford CT 06492
  
  
 ---------------------------------------------------------------
 Warning -- This program may not be used in any manner that
 competes with the business of Gaussian, Inc. or will provide
 assistance to any competitor of Gaussian, Inc.  The licensee
 of this program is prohibited from giving any competitor of
 Gaussian, Inc. access to this program.  By using this program,
 the user acknowledges that Gaussian, Inc. is engaged in the
 business of creating and licensing software in the field of
 computational chemistry and represents and warrants to the
 licensee that it is not a competitor of Gaussian, Inc. and that
 it will not use this program in any manner prohibited above.
 ---------------------------------------------------------------
  

 Cite this work as:
 Gaussian 09, Revision D.01,
 M. J. Frisch, G. W. Trucks, H. B. Schlegel, G. E. Scuseria, 
 M. A. Robb, J. R. Cheeseman, G. Scalmani, V. Barone, B. Mennucci, 
 G. A. Petersson, H. Nakatsuji, M. Caricato, X. Li, H. P. Hratchian, 
 A. F. Izmaylov, J. Bloino, G. Zheng, J. L. Sonnenberg, M. Hada, 
 M. Ehara, K. Toyota, R. Fukuda, J. Hasegawa, M. Ishida, T. Nakajima, 
 Y. Honda, O. Kitao, H. Nakai, T. Vreven, J. A. Montgomery, Jr., 
 J. E. Peralta, F. Ogliaro, M. Bearpark, J. J. Heyd, E. Brothers, 
 K. N. Kudin, V. N. Staroverov, T. Keith, R. Kobayashi, J. Normand, 
 K. Raghavachari, A. Rendell, J. C. Burant, S. S. Iyengar, J. Tomasi, 
 M. Cossi, N. Rega, J. M. Millam, M. Klene, J. E. Knox, J. B. Cross, 
 V. Bakken, C. Adamo, J. Jaramillo, R. Gomperts, R. E. Stratmann, 
 O. Yazyev, A. J. Austin, R. Cammi, C. Pomelli, J. W. Ochterski, 
 R. L. Martin, K. Morokuma, V. G. Zakrzewski, G. A. Voth, 
 P. Salvador, J. J. Dannenberg, S. Dapprich, A. D. Daniels, 
 O. Farkas, J. B. Foresman, J. V. Ortiz, J. Cioslowski, 
 and D. J. Fox, Gaussian, Inc., Wallingford CT, 2013.
 
 ******************************************
 Gaussian 09:  EM64L-G09RevD.01 24-Apr-2013
                25-Nov-2013 
 ******************************************
 %Nproc=8
 Will use up to    8 processors via shared memory.
 %mem=436000000
 ---------------------------------
 #PBEPBE/cc-pVTZ opt=z-matrix freq
 ---------------------------------
 1/10=7,14=-1,18=40,26=3,38=1/1,3;
 2/12=2,17=6,18=5,29=3,40=1/2;
 3/5=16,6=1,11=2,16=1,25=1,30=1,71=1,74=1009/1,2,3;
 4//1;
 5/5=2,38=5/2;
 6/7=2,8=2,9=2,10=2,28=1/1;
 7/29=1/1,2,3,16;
 1/10=7,14=-1,18=40,26=3/3(2);
 2/29=3/2;
 99//99;
 2/29=3/2;
 3/5=16,6=1,11=2,16=1,25=1,30=1,71=1,74=1009/1,2,3;
 4/5=5,16=3,69=1/1;
 5/5=2,38=5/2;
 7//1,2,3,16;
 1/14=-1,18=40,26=3/3(-5);
 2/29=3/2;
 6/7=2,8=2,9=2,10=2,19=2,28=1/1;
 99/9=1/99;
 Leave Link    1 at Mon Nov 25 17:34:43 2013, MaxMem=   436000000 cpu:         0.4
 (Enter /usr/local/gaussian/g09.d01.em64t.legacy.linda/g09/l101.exe)
 ------------------------------------------------------------------
 1H-tetrazole CH2N4 casno=288948 state=1 config=1 method=61 basis=6
 ------------------------------------------------------------------
 Symbolic Z-matrix:
 Charge =  0 Multiplicity = 1
 X
 X                    1     1. 
 C                    1     1.       2     90. 
 N                    1    rn1      2     90.      3    an1      0
 N                    1    rn2      2     90.      3    an2      0
 N                    1    rn3      2     90.      3    an3      0
 N                    1    rn4      2     90.      3    an4      0
 H                    3    rch      4    ach      5     180.     0
 H                    4    rnh      5    anh      6     180.     0
       Variables:
  rn1                   1.2426                   
  rn2                   1.333                    
  rn3                   1.1146                   
  rn4                   0.9264                   
  rch                   1.0678                   
  rnh                   0.9941                   
  an1                  71.8427                   
  an2                 133.7028                   
  an3                 194.4597                   
  an4                 276.0768                   
  ach                 125.0248                   
  anh                 120.7626                   
 
 NAtoms=      7 NQM=        7 NQMF=       0 NMMI=      0 NMMIF=      0
                NMic=       0 NMicF=      0.
                    Isotopes and Nuclear Properties:
 (Nuclear quadrupole moments (NQMom) in fm**2, nuclear magnetic moments (NMagM)
  in nuclear magnetons)

  Atom         1           2           3           4           5           6           7
 IAtWgt=          12          14          14          14          14           1           1
 AtmWgt=  12.0000000  14.0030740  14.0030740  14.0030740  14.0030740   1.0078250   1.0078250
 NucSpn=           0           2           2           2           2           1           1
 AtZEff=   0.0000000   0.0000000   0.0000000   0.0000000   0.0000000   0.0000000   0.0000000
 NQMom=    0.0000000   2.0440000   2.0440000   2.0440000   2.0440000   0.0000000   0.0000000
 NMagM=    0.0000000   0.4037610   0.4037610   0.4037610   0.4037610   2.7928460   2.7928460
 AtZNuc=   6.0000000   7.0000000   7.0000000   7.0000000   7.0000000   1.0000000   1.0000000
 Leave Link  101 at Mon Nov 25 17:34:43 2013, MaxMem=   436000000 cpu:         0.7
 (Enter /usr/local/gaussian/g09.d01.em64t.legacy.linda/g09/l103.exe)

 GradGradGradGradGradGradGradGradGradGradGradGradGradGradGradGradGradGrad
 Berny optimization.
 Initialization pass.
                       ----------------------------
                       !    Initial Parameters    !
                       ! (Angstroms and Degrees)  !
 ----------------------                            ----------------------
 !      Name          Value   Derivative information (Atomic Units)     !
 ------------------------------------------------------------------------
 !       rn1         1.2426   estimate D2E/DX2                          !
 !       rn2         1.333    estimate D2E/DX2                          !
 !       rn3         1.1146   estimate D2E/DX2                          !
 !       rn4         0.9264   estimate D2E/DX2                          !
 !       rch         1.0678   estimate D2E/DX2                          !
 !       rnh         0.9941   estimate D2E/DX2                          !
 !       an1        71.8427   estimate D2E/DX2                          !
 !       an2       133.7028   estimate D2E/DX2                          !
 !       an3       194.4597   estimate D2E/DX2                          !
 !       an4       276.0768   estimate D2E/DX2                          !
 !       ach       125.0248   estimate D2E/DX2                          !
 !       anh       120.7626   estimate D2E/DX2                          !
 ------------------------------------------------------------------------
 Trust Radius=3.00D-01 FncErr=1.00D-07 GrdErr=1.00D-06
 Number of steps in this run=     22 maximum allowed number of steps=    100.
 GradGradGradGradGradGradGradGradGradGradGradGradGradGradGradGradGradGrad

 Leave Link  103 at Mon Nov 25 17:34:43 2013, MaxMem=   436000000 cpu:         0.1
 (Enter /usr/local/gaussian/g09.d01.em64t.legacy.linda/g09/l202.exe)
 ---------------------------------------------------------------------------------------------------
                            Z-MATRIX (ANGSTROMS AND DEGREES)
   CD    Cent   Atom    N1       Length/X        N2       Alpha/Y        N3        Beta/Z          J
 ---------------------------------------------------------------------------------------------------
      1         X 
      2         X        1   1.000000(     1)
      3      1  C        1   1.000000(     2)      2   90.000(     9)
      4      2  N        1   1.242600(     3)      2   90.000(    10)      3   71.843(    16)      0
      5      3  N        1   1.333000(     4)      2   90.000(    11)      3  133.703(    17)      0
      6      4  N        1   1.114600(     5)      2   90.000(    12)      3  194.460(    18)      0
      7      5  N        1   0.926400(     6)      2   90.000(    13)      3  276.077(    19)      0
      8      6  H        3   1.067800(     7)      4  125.025(    14)      5  180.000(    20)      0
      9      7  H        4   0.994100(     8)      5  120.763(    15)      6  180.000(    21)      0
 ---------------------------------------------------------------------------------------------------
                         Z-Matrix orientation:                         
 ---------------------------------------------------------------------
 Center     Atomic      Atomic             Coordinates (Angstroms)
 Number     Number       Type             X           Y           Z
 ---------------------------------------------------------------------
      1         -1           0        0.000000    0.000000    0.000000
      2         -1           0        0.000000    0.000000    1.000000
      3          6           0        1.000000    0.000000    0.000000
      4          7           0        0.387228   -1.180724    0.000000
      5          7           0       -0.920993   -0.963670    0.000000
      6          7           0       -1.079293    0.278314    0.000000
      7          7           0        0.098070    0.921194    0.000000
      8          1           0        2.058429    0.141157    0.000000
      9          1           0        0.749017   -2.106652    0.000000
 ---------------------------------------------------------------------
                    Distance matrix (angstroms):
                    1          2          3          4          5
     1  X    0.000000
     2  X    1.000000   0.000000
     3  C    1.000000   1.414214   0.000000
     4  N    1.242600   1.595009   1.330263   0.000000
     5  N    1.333000   1.666400   2.149157   1.326105   0.000000
     6  N    1.114600   1.497442   2.097837   2.068690   1.252032
     7  N    0.926400   1.363164   1.289216   2.121715   2.142710
     8  H    2.063263   2.292827   1.067800   2.130794   3.177672
     9  H    2.235847   2.449288   2.121551   0.994100   2.023695
                    6          7          8          9
     6  N    0.000000
     7  N    1.341447   0.000000
     8  H    3.140719   2.109850   0.000000
     9  H    3.005127   3.097029   2.601385   0.000000
 Stoichiometry    CH2N4
 Framework group  CS[SG(CH2N4)]
 Deg. of freedom    11
 Full point group                 CS      NOp   2
 Largest Abelian subgroup         CS      NOp   2
 Largest concise Abelian subgroup C1      NOp   1
                         Standard orientation:                         
 ---------------------------------------------------------------------
 Center     Atomic      Atomic             Coordinates (Angstroms)
 Number     Number       Type             X           Y           Z
 ---------------------------------------------------------------------
      1          6           0        1.052733    0.225621    0.000000
      2          7           0        0.000000    1.038857    0.000000
      3          7           0       -1.095416    0.291448    0.000000
      4          7           0       -0.716382   -0.901832    0.000000
      5          7           0        0.622191   -0.989579    0.000000
      6          1           0        2.072287    0.542964    0.000000
      7          1           0       -0.061439    2.031056    0.000000
 ---------------------------------------------------------------------
 Rotational constants (GHZ):     10.9201517     10.7345054      5.4132664
 Leave Link  202 at Mon Nov 25 17:34:43 2013, MaxMem=   436000000 cpu:         0.0
 (Enter /usr/local/gaussian/g09.d01.em64t.legacy.linda/g09/l301.exe)
 Standard basis: CC-pVTZ (5D, 7F)
 Ernie: Thresh=  0.10000D-02 Tol=  0.10000D-05 Strict=F.
 Ernie:  15 primitive shells out of 146 were deleted.
 There are   142 symmetry adapted cartesian basis functions of A'  symmetry.
 There are    63 symmetry adapted cartesian basis functions of A"  symmetry.
 There are   120 symmetry adapted basis functions of A'  symmetry.
 There are    58 symmetry adapted basis functions of A"  symmetry.
   178 basis functions,   294 primitive gaussians,   205 cartesian basis functions
    18 alpha electrons       18 beta electrons
       nuclear repulsion energy       169.8308489506 Hartrees.
 IExCor= 1009 DFT=T Ex=PBE Corr=PBE ExCW=0 ScaHFX=  0.000000
 ScaDFX=  1.000000  1.000000  1.000000  1.000000 ScalE2=  1.000000  1.000000
 IRadAn=      0 IRanWt=     -1 IRanGd=            0 ICorTp=0 IEmpDi=  4
 NAtoms=    7 NActive=    7 NUniq=    7 SFac= 1.00D+00 NAtFMM=   60 NAOKFM=F Big=F
 Integral buffers will be    131072 words long.
 Raffenetti 2 integral format.
 Two-electron integral symmetry is turned on.
 Leave Link  301 at Mon Nov 25 17:34:43 2013, MaxMem=   436000000 cpu:         0.4
 (Enter /usr/local/gaussian/g09.d01.em64t.legacy.linda/g09/l302.exe)
 NPDir=0 NMtPBC=     1 NCelOv=     1 NCel=       1 NClECP=     1 NCelD=      1
         NCelK=      1 NCelE2=     1 NClLst=     1 CellRange=     0.0.
 One-electron integrals computed using PRISM.
 NBasis=   178 RedAO= T EigKep=  9.93D-04  NBF=   120    58
 NBsUse=   178 1.00D-06 EigRej= -1.00D+00 NBFU=   120    58
 Precomputing XC quadrature grid using
 IXCGrd= 4 IRadAn=           0 IRanWt=          -1 IRanGd=           0 AccXCQ= 0.00D+00.
 Generated NRdTot=       0 NPtTot=           0 NUsed=           0 NTot=          32
 NSgBfM=   205   205   205   205   205 MxSgAt=     7 MxSgA2=     7.
 Leave Link  302 at Mon Nov 25 17:34:44 2013, MaxMem=   436000000 cpu:         1.7
 (Enter /usr/local/gaussian/g09.d01.em64t.legacy.linda/g09/l303.exe)
 DipDrv:  MaxL=1.
 Leave Link  303 at Mon Nov 25 17:34:44 2013, MaxMem=   436000000 cpu:         0.3
 (Enter /usr/local/gaussian/g09.d01.em64t.legacy.linda/g09/l401.exe)
 ExpMin= 1.03D-01 ExpMax= 1.14D+04 ExpMxC= 3.89D+02 IAcc=1 IRadAn=         1 AccDes= 0.00D+00
 Harris functional with IExCor= 1009 and IRadAn=       1 diagonalized for initial guess.
 HarFok:  IExCor= 1009 AccDes= 0.00D+00 IRadAn=         1 IDoV= 1 UseB2=F ITyADJ=14
 ICtDFT=  3500011 ScaDFX=  1.000000  1.000000  1.000000  1.000000
 FoFCou: FMM=F IPFlag=           0 FMFlag=      100000 FMFlg1=           0
         NFxFlg=           0 DoJE=T BraDBF=F KetDBF=T FulRan=T
         wScrn=  0.000000 ICntrl=     500 IOpCl=  0 I1Cent=   200000004 NGrid=           0
         NMat0=    1 NMatS0=      1 NMatT0=    0 NMatD0=    1 NMtDS0=    0 NMtDT0=    0
 Petite list used in FoFCou.
 Harris En= -258.067321913663    
 JPrj=0 DoOrth=F DoCkMO=F.
 Initial guess orbital symmetries:
       Occupied  (A') (A') (A') (A') (A') (A') (A') (A') (A') (A')
                 (A') (A') (A") (A') (A") (A') (A") (A')
       Virtual   (A") (A") (A') (A') (A') (A') (A') (A') (A") (A')
                 (A') (A') (A') (A') (A') (A") (A') (A") (A') (A')
                 (A") (A') (A") (A') (A") (A') (A') (A") (A') (A')
                 (A") (A') (A') (A") (A') (A') (A") (A') (A') (A')
                 (A") (A") (A') (A") (A') (A') (A') (A") (A') (A')
                 (A') (A') (A') (A") (A") (A') (A") (A') (A') (A')
                 (A") (A') (A') (A') (A') (A') (A") (A") (A') (A")
                 (A') (A") (A") (A') (A') (A") (A") (A') (A') (A')
                 (A") (A') (A') (A") (A') (A') (A") (A') (A") (A")
                 (A") (A') (A') (A") (A') (A') (A') (A") (A") (A')
                 (A') (A') (A") (A') (A") (A') (A') (A') (A') (A')
                 (A') (A") (A') (A') (A") (A') (A") (A') (A") (A")
                 (A') (A') (A") (A") (A') (A") (A") (A') (A') (A')
                 (A") (A') (A") (A") (A') (A") (A') (A') (A') (A')
                 (A") (A') (A") (A') (A") (A') (A') (A') (A") (A')
                 (A') (A') (A') (A') (A') (A') (A') (A') (A') (A')
 The electronic state of the initial guess is 1-A'.
 Leave Link  401 at Mon Nov 25 17:34:44 2013, MaxMem=   436000000 cpu:         2.1
 (Enter /usr/local/gaussian/g09.d01.em64t.legacy.linda/g09/l502.exe)
 Closed shell SCF:
 Using DIIS extrapolation, IDIIS=  1040.
 Integral symmetry usage will be decided dynamically.
 Keep J ints in memory in symmetry-blocked form, NReq=191556701.
 IVT=      147815 IEndB=      147815 NGot=   436000000 MDV=   371349824
 LenX=   371349824 LenY=   371307358
 Requested convergence on RMS density matrix=1.00D-08 within 128 cycles.
 Requested convergence on MAX density matrix=1.00D-06.
 Requested convergence on             energy=1.00D-06.
 No special actions if energy rises.
 FoFCou: FMM=F IPFlag=           0 FMFlag=           0 FMFlg1=           0
         NFxFlg=           0 DoJE=F BraDBF=F KetDBF=F FulRan=T
         wScrn=  0.000000 ICntrl=     600 IOpCl=  0 I1Cent=           0 NGrid=           0
         NMat0=    1 NMatS0=  15931 NMatT0=    0 NMatD0=    1 NMtDS0=    0 NMtDT0=    0
 Petite list used in FoFCou.
 Integral accuracy reduced to 1.0D-05 until final iterations.

 Cycle   1  Pass 0  IDiag  1:
 E= -258.021506491195    
 DIIS: error= 1.35D-02 at cycle   1 NSaved=   1.
 NSaved= 1 IEnMin= 1 EnMin= -258.021506491195     IErMin= 1 ErrMin= 1.35D-02
 ErrMax= 1.35D-02  0.00D+00 EMaxC= 1.00D-01 BMatC= 5.28D-02 BMatP= 5.28D-02
 IDIUse=3 WtCom= 8.65D-01 WtEn= 1.35D-01
 Coeff-Com:  0.100D+01
 Coeff-En:   0.100D+01
 Coeff:      0.100D+01
 Gap=     0.162 Goal=   None    Shift=    0.000
 GapD=    0.162 DampG=1.000 DampE=0.500 DampFc=0.5000 IDamp=-1.
 Damping current iteration by 5.00D-01
 RMSDP=3.08D-03 MaxDP=6.38D-02              OVMax= 1.91D-01

 Cycle   2  Pass 0  IDiag  1:
 E= -258.022605884852     Delta-E=       -0.001099393657 Rises=F Damp=T
 DIIS: error= 1.00D-02 at cycle   2 NSaved=   2.
 NSaved= 2 IEnMin= 2 EnMin= -258.022605884852     IErMin= 2 ErrMin= 1.00D-02
 ErrMax= 1.00D-02  0.00D+00 EMaxC= 1.00D-01 BMatC= 1.95D-02 BMatP= 5.28D-02
 IDIUse=3 WtCom= 9.00D-01 WtEn= 1.00D-01
 Coeff-Com:  0.301D+00 0.699D+00
 Coeff-En:   0.489D+00 0.511D+00
 Coeff:      0.320D+00 0.680D+00
 Gap=     0.208 Goal=   None    Shift=    0.000
 RMSDP=1.05D-03 MaxDP=4.13D-02 DE=-1.10D-03 OVMax= 1.75D-01

 Cycle   3  Pass 0  IDiag  1:
 E= -258.046318543640     Delta-E=       -0.023712658788 Rises=F Damp=F
 DIIS: error= 1.30D-02 at cycle   3 NSaved=   3.
 NSaved= 3 IEnMin= 3 EnMin= -258.046318543640     IErMin= 2 ErrMin= 1.00D-02
 ErrMax= 1.30D-02  0.00D+00 EMaxC= 1.00D-01 BMatC= 2.23D-02 BMatP= 1.95D-02
 IDIUse=2 WtCom= 0.00D+00 WtEn= 1.00D+00
 Coeff-En:   0.000D+00 0.251D+00 0.749D+00
 Coeff:      0.000D+00 0.251D+00 0.749D+00
 Gap=     0.179 Goal=   None    Shift=    0.000
 RMSDP=1.20D-03 MaxDP=3.00D-02 DE=-2.37D-02 OVMax= 1.27D-01

 Cycle   4  Pass 0  IDiag  1:
 E= -258.019203790847     Delta-E=        0.027114752793 Rises=F Damp=F
 DIIS: error= 2.00D-02 at cycle   4 NSaved=   4.
 NSaved= 4 IEnMin= 3 EnMin= -258.046318543640     IErMin= 2 ErrMin= 1.00D-02
 ErrMax= 2.00D-02  0.00D+00 EMaxC= 1.00D-01 BMatC= 5.34D-02 BMatP= 1.95D-02
 IDIUse=2 WtCom= 0.00D+00 WtEn= 1.00D+00
 Coeff-En:   0.000D+00 0.000D+00 0.650D+00 0.350D+00
 Coeff:      0.000D+00 0.000D+00 0.650D+00 0.350D+00
 Gap=     0.185 Goal=   None    Shift=    0.000
 RMSDP=6.55D-04 MaxDP=1.64D-02 DE= 2.71D-02 OVMax= 6.77D-02

 Cycle   5  Pass 0  IDiag  1:
 E= -258.063578318527     Delta-E=       -0.044374527680 Rises=F Damp=F
 DIIS: error= 3.03D-03 at cycle   5 NSaved=   5.
 NSaved= 5 IEnMin= 5 EnMin= -258.063578318527     IErMin= 5 ErrMin= 3.03D-03
 ErrMax= 3.03D-03  0.00D+00 EMaxC= 1.00D-01 BMatC= 1.79D-03 BMatP= 1.95D-02
 IDIUse=3 WtCom= 9.70D-01 WtEn= 3.03D-02
 Coeff-Com:  0.329D-01-0.299D-01 0.358D+00 0.187D+00 0.452D+00
 Coeff-En:   0.000D+00 0.000D+00 0.936D-01 0.000D+00 0.906D+00
 Coeff:      0.319D-01-0.290D-01 0.350D+00 0.181D+00 0.466D+00
 Gap=     0.191 Goal=   None    Shift=    0.000
 RMSDP=1.71D-04 MaxDP=4.21D-03 DE=-4.44D-02 OVMax= 1.41D-02

 Cycle   6  Pass 0  IDiag  1:
 E= -258.065026662313     Delta-E=       -0.001448343787 Rises=F Damp=F
 DIIS: error= 6.12D-04 at cycle   6 NSaved=   6.
 NSaved= 6 IEnMin= 6 EnMin= -258.065026662313     IErMin= 6 ErrMin= 6.12D-04
 ErrMax= 6.12D-04  0.00D+00 EMaxC= 1.00D-01 BMatC= 6.80D-05 BMatP= 1.79D-03
 IDIUse=3 WtCom= 9.94D-01 WtEn= 6.12D-03
 Coeff-Com:  0.909D-02-0.215D-01 0.138D+00 0.596D-01 0.296D+00 0.519D+00
 Coeff-En:   0.000D+00 0.000D+00 0.000D+00 0.000D+00 0.000D+00 0.100D+01
 Coeff:      0.904D-02-0.214D-01 0.137D+00 0.592D-01 0.294D+00 0.522D+00
 Gap=     0.190 Goal=   None    Shift=    0.000
 RMSDP=3.38D-05 MaxDP=7.01D-04 DE=-1.45D-03 OVMax= 3.04D-03

 Cycle   7  Pass 0  IDiag  1:
 E= -258.065078356022     Delta-E=       -0.000051693709 Rises=F Damp=F
 DIIS: error= 1.62D-04 at cycle   7 NSaved=   7.
 NSaved= 7 IEnMin= 7 EnMin= -258.065078356022     IErMin= 7 ErrMin= 1.62D-04
 ErrMax= 1.62D-04  0.00D+00 EMaxC= 1.00D-01 BMatC= 4.27D-06 BMatP= 6.80D-05
 IDIUse=3 WtCom= 9.98D-01 WtEn= 1.62D-03
 Coeff-Com:  0.203D-02-0.579D-02 0.454D-01 0.146D-01 0.124D+00 0.289D+00
 Coeff-Com:  0.530D+00
 Coeff-En:   0.000D+00 0.000D+00 0.000D+00 0.000D+00 0.000D+00 0.000D+00
 Coeff-En:   0.100D+01
 Coeff:      0.202D-02-0.578D-02 0.454D-01 0.146D-01 0.124D+00 0.289D+00
 Coeff:      0.531D+00
 Gap=     0.190 Goal=   None    Shift=    0.000
 RMSDP=9.91D-06 MaxDP=3.14D-04 DE=-5.17D-05 OVMax= 1.13D-03

 Initial convergence to 1.0D-05 achieved.  Increase integral accuracy.
 Cycle   8  Pass 1  IDiag  1:
 E= -258.065095074601     Delta-E=       -0.000016718579 Rises=F Damp=F
 DIIS: error= 1.06D-04 at cycle   1 NSaved=   1.
 NSaved= 1 IEnMin= 1 EnMin= -258.065095074601     IErMin= 1 ErrMin= 1.06D-04
 ErrMax= 1.06D-04  0.00D+00 EMaxC= 1.00D-01 BMatC= 1.87D-06 BMatP= 1.87D-06
 IDIUse=3 WtCom= 9.99D-01 WtEn= 1.06D-03
 Coeff-Com:  0.100D+01
 Coeff-En:   0.100D+01
 Coeff:      0.100D+01
 Gap=     0.190 Goal=   None    Shift=    0.000
 RMSDP=9.91D-06 MaxDP=3.14D-04 DE=-1.67D-05 OVMax= 1.70D-03

 Cycle   9  Pass 1  IDiag  1:
 E= -258.065087464291     Delta-E=        0.000007610311 Rises=F Damp=F
 DIIS: error= 2.85D-04 at cycle   2 NSaved=   2.
 NSaved= 2 IEnMin= 1 EnMin= -258.065095074601     IErMin= 1 ErrMin= 1.06D-04
 ErrMax= 2.85D-04  0.00D+00 EMaxC= 1.00D-01 BMatC= 1.07D-05 BMatP= 1.87D-06
 IDIUse=3 WtCom= 3.72D-01 WtEn= 6.28D-01
 Coeff-Com:  0.708D+00 0.292D+00
 Coeff-En:   0.795D+00 0.205D+00
 Coeff:      0.763D+00 0.237D+00
 Gap=     0.190 Goal=   None    Shift=    0.000
 RMSDP=8.55D-06 MaxDP=2.32D-04 DE= 7.61D-06 OVMax= 1.04D-03

 Cycle  10  Pass 1  IDiag  1:
 E= -258.065096381597     Delta-E=       -0.000008917306 Rises=F Damp=F
 DIIS: error= 4.69D-05 at cycle   3 NSaved=   3.
 NSaved= 3 IEnMin= 3 EnMin= -258.065096381597     IErMin= 3 ErrMin= 4.69D-05
 ErrMax= 4.69D-05  0.00D+00 EMaxC= 1.00D-01 BMatC= 3.34D-07 BMatP= 1.87D-06
 IDIUse=1 WtCom= 1.00D+00 WtEn= 0.00D+00
 Coeff-Com:  0.349D+00 0.409D-01 0.610D+00
 Coeff:      0.349D+00 0.409D-01 0.610D+00
 Gap=     0.190 Goal=   None    Shift=    0.000
 RMSDP=1.79D-06 MaxDP=4.69D-05 DE=-8.92D-06 OVMax= 1.92D-04

 Cycle  11  Pass 1  IDiag  1:
 E= -258.065096645523     Delta-E=       -0.000000263926 Rises=F Damp=F
 DIIS: error= 9.02D-06 at cycle   4 NSaved=   4.
 NSaved= 4 IEnMin= 4 EnMin= -258.065096645523     IErMin= 4 ErrMin= 9.02D-06
 ErrMax= 9.02D-06  0.00D+00 EMaxC= 1.00D-01 BMatC= 1.19D-08 BMatP= 3.34D-07
 IDIUse=1 WtCom= 1.00D+00 WtEn= 0.00D+00
 Coeff-Com:  0.115D+00-0.171D-01 0.379D+00 0.523D+00
 Coeff:      0.115D+00-0.171D-01 0.379D+00 0.523D+00
 Gap=     0.190 Goal=   None    Shift=    0.000
 RMSDP=5.56D-07 MaxDP=1.92D-05 DE=-2.64D-07 OVMax= 5.41D-05

 Cycle  12  Pass 1  IDiag  1:
 E= -258.065096651542     Delta-E=       -0.000000006019 Rises=F Damp=F
 DIIS: error= 5.80D-06 at cycle   5 NSaved=   5.
 NSaved= 5 IEnMin= 5 EnMin= -258.065096651542     IErMin= 5 ErrMin= 5.80D-06
 ErrMax= 5.80D-06  0.00D+00 EMaxC= 1.00D-01 BMatC= 4.98D-09 BMatP= 1.19D-08
 IDIUse=1 WtCom= 1.00D+00 WtEn= 0.00D+00
 Coeff-Com:  0.104D-01-0.230D-01 0.160D+00 0.415D+00 0.437D+00
 Coeff:      0.104D-01-0.230D-01 0.160D+00 0.415D+00 0.437D+00
 Gap=     0.190 Goal=   None    Shift=    0.000
 RMSDP=2.50D-07 MaxDP=7.46D-06 DE=-6.02D-09 OVMax= 2.56D-05

 Cycle  13  Pass 1  IDiag  1:
 E= -258.065096655239     Delta-E=       -0.000000003697 Rises=F Damp=F
 DIIS: error= 1.62D-06 at cycle   6 NSaved=   6.
 NSaved= 6 IEnMin= 6 EnMin= -258.065096655239     IErMin= 6 ErrMin= 1.62D-06
 ErrMax= 1.62D-06  0.00D+00 EMaxC= 1.00D-01 BMatC= 3.82D-10 BMatP= 4.98D-09
 IDIUse=1 WtCom= 1.00D+00 WtEn= 0.00D+00
 Coeff-Com:  0.951D-03-0.148D-01 0.898D-01 0.262D+00 0.307D+00 0.355D+00
 Coeff:      0.951D-03-0.148D-01 0.898D-01 0.262D+00 0.307D+00 0.355D+00
 Gap=     0.190 Goal=   None    Shift=    0.000
 RMSDP=8.08D-08 MaxDP=1.75D-06 DE=-3.70D-09 OVMax= 8.08D-06

 Cycle  14  Pass 1  IDiag  1:
 E= -258.065096655550     Delta-E=       -0.000000000311 Rises=F Damp=F
 DIIS: error= 3.23D-07 at cycle   7 NSaved=   7.
 NSaved= 7 IEnMin= 7 EnMin= -258.065096655550     IErMin= 7 ErrMin= 3.23D-07
 ErrMax= 3.23D-07  0.00D+00 EMaxC= 1.00D-01 BMatC= 2.33D-11 BMatP= 3.82D-10
 IDIUse=1 WtCom= 1.00D+00 WtEn= 0.00D+00
 Coeff-Com: -0.977D-03-0.629D-02 0.353D-01 0.112D+00 0.138D+00 0.234D+00
 Coeff-Com:  0.488D+00
 Coeff:     -0.977D-03-0.629D-02 0.353D-01 0.112D+00 0.138D+00 0.234D+00
 Coeff:      0.488D+00
 Gap=     0.190 Goal=   None    Shift=    0.000
 RMSDP=2.34D-08 MaxDP=6.07D-07 DE=-3.11D-10 OVMax= 1.60D-06

 Cycle  15  Pass 1  IDiag  1:
 E= -258.065096655571     Delta-E=       -0.000000000021 Rises=F Damp=F
 DIIS: error= 9.11D-08 at cycle   8 NSaved=   8.
 NSaved= 8 IEnMin= 8 EnMin= -258.065096655571     IErMin= 8 ErrMin= 9.11D-08
 ErrMax= 9.11D-08  0.00D+00 EMaxC= 1.00D-01 BMatC= 1.47D-12 BMatP= 2.33D-11
 IDIUse=1 WtCom= 1.00D+00 WtEn= 0.00D+00
 Coeff-Com: -0.701D-03-0.348D-02 0.192D-01 0.621D-01 0.771D-01 0.138D+00
 Coeff-Com:  0.321D+00 0.387D+00
 Coeff:     -0.701D-03-0.348D-02 0.192D-01 0.621D-01 0.771D-01 0.138D+00
 Coeff:      0.321D+00 0.387D+00
 Gap=     0.190 Goal=   None    Shift=    0.000
 RMSDP=3.88D-09 MaxDP=1.45D-07 DE=-2.07D-11 OVMax= 4.67D-07

 SCF Done:  E(RPBE-PBE) =  -258.065096656     A.U. after   15 cycles
            NFock= 15  Conv=0.39D-08     -V/T= 2.0045
 KE= 2.569119194120D+02 PE=-9.424843692780D+02 EE= 2.576765042599D+02
 Leave Link  502 at Mon Nov 25 17:34:52 2013, MaxMem=   436000000 cpu:        53.8
 (Enter /usr/local/gaussian/g09.d01.em64t.legacy.linda/g09/l601.exe)
 Copying SCF densities to generalized density rwf, IOpCl= 0 IROHF=0.

 **********************************************************************

            Population analysis using the SCF density.

 **********************************************************************

 Orbital symmetries:
       Occupied  (A') (A') (A') (A') (A') (A') (A') (A') (A') (A')
                 (A') (A") (A') (A') (A") (A") (A') (A')
       Virtual   (A") (A") (A') (A') (A') (A') (A') (A') (A") (A')
                 (A') (A') (A') (A') (A') (A") (A') (A") (A') (A')
                 (A') (A") (A") (A') (A") (A') (A') (A") (A') (A')
                 (A") (A') (A") (A') (A') (A') (A") (A') (A') (A')
                 (A") (A") (A') (A') (A") (A') (A') (A") (A') (A')
                 (A') (A') (A") (A') (A") (A') (A") (A') (A') (A')
                 (A") (A') (A') (A') (A') (A') (A") (A") (A') (A")
                 (A') (A") (A") (A') (A") (A') (A") (A') (A') (A')
                 (A") (A') (A') (A") (A') (A') (A") (A') (A") (A")
                 (A") (A') (A') (A") (A') (A') (A') (A") (A") (A')
                 (A') (A') (A") (A') (A") (A') (A') (A') (A') (A')
                 (A') (A") (A') (A') (A") (A') (A") (A') (A") (A")
                 (A') (A") (A') (A") (A') (A") (A") (A') (A') (A')
                 (A") (A') (A") (A") (A') (A") (A') (A') (A') (A")
                 (A') (A') (A") (A') (A") (A') (A') (A') (A") (A')
                 (A') (A') (A') (A') (A') (A') (A') (A') (A') (A')
 The electronic state is 1-A'.
 Alpha  occ. eigenvalues --  -14.09633 -14.05659 -14.03939 -14.01272  -9.96767
 Alpha  occ. eigenvalues --   -1.08168  -0.88100  -0.83202  -0.62936  -0.61817
 Alpha  occ. eigenvalues --   -0.55382  -0.46616  -0.45789  -0.33663  -0.30593
 Alpha  occ. eigenvalues --   -0.28847  -0.25788  -0.24187
 Alpha virt. eigenvalues --   -0.05214  -0.01962  -0.00292   0.04335   0.12132
 Alpha virt. eigenvalues --    0.13607   0.14362   0.22267   0.24348   0.25954
 Alpha virt. eigenvalues --    0.33204   0.33360   0.36270   0.38363   0.38997
 Alpha virt. eigenvalues --    0.39965   0.42298   0.42618   0.46554   0.47754
 Alpha virt. eigenvalues --    0.51315   0.51531   0.53116   0.55699   0.56719
 Alpha virt. eigenvalues --    0.63693   0.64655   0.71154   0.72200   0.75474
 Alpha virt. eigenvalues --    0.75997   0.78264   0.86340   0.86938   0.90528
 Alpha virt. eigenvalues --    0.92380   0.96702   0.97468   1.11363   1.16784
 Alpha virt. eigenvalues --    1.18226   1.21852   1.26006   1.31608   1.32305
 Alpha virt. eigenvalues --    1.35158   1.37641   1.41859   1.44147   1.50325
 Alpha virt. eigenvalues --    1.53324   1.57753   1.59629   1.60265   1.66831
 Alpha virt. eigenvalues --    1.70185   1.83502   1.84265   1.85523   1.91676
 Alpha virt. eigenvalues --    1.98992   2.02925   2.19760   2.29835   2.37289
 Alpha virt. eigenvalues --    2.48424   2.56570   2.60332   2.65628   2.67112
 Alpha virt. eigenvalues --    2.74328   2.74610   2.77696   2.81125   2.86093
 Alpha virt. eigenvalues --    2.86461   2.96098   2.97366   3.01426   3.03185
 Alpha virt. eigenvalues --    3.04582   3.12665   3.17734   3.20861   3.25344
 Alpha virt. eigenvalues --    3.27702   3.28864   3.34002   3.37562   3.41963
 Alpha virt. eigenvalues --    3.45549   3.46388   3.49786   3.50737   3.53055
 Alpha virt. eigenvalues --    3.58907   3.66440   3.67146   3.70643   3.74510
 Alpha virt. eigenvalues --    3.81824   3.84113   3.84222   3.87832   3.88212
 Alpha virt. eigenvalues --    3.90981   3.95635   4.06288   4.10380   4.22386
 Alpha virt. eigenvalues --    4.25976   4.28656   4.35123   4.37835   4.41205
 Alpha virt. eigenvalues --    4.41983   4.47638   4.52333   4.55186   4.57651
 Alpha virt. eigenvalues --    4.59782   4.66316   4.66979   4.69767   4.75506
 Alpha virt. eigenvalues --    4.75826   4.77464   4.80120   4.84614   4.86790
 Alpha virt. eigenvalues --    4.87530   4.95058   5.06883   5.10937   5.17073
 Alpha virt. eigenvalues --    5.18205   5.18930   5.24015   5.30242   5.40329
 Alpha virt. eigenvalues --    5.40860   5.44597   5.59026   5.63396   5.71221
 Alpha virt. eigenvalues --    5.75357   5.80539   5.84708   5.85248   6.00461
 Alpha virt. eigenvalues --    6.07372   6.20319   6.59132   6.80228   6.91878
 Alpha virt. eigenvalues --    7.83718  10.71456  12.02705  13.09854  13.75173
          Condensed to atoms (all electrons):
               1          2          3          4          5          6
     1  C    4.804382   0.481675  -0.105315  -0.117079   0.598881   0.412550
     2  N    0.481675   6.003281   0.330137  -0.108415  -0.090387  -0.032658
     3  N   -0.105315   0.330137   6.528318   0.453470  -0.117604   0.004328
     4  N   -0.117079  -0.108415   0.453470   6.448818   0.384837   0.003029
     5  N    0.598881  -0.090387  -0.117604   0.384837   6.362655  -0.019469
     6  H    0.412550  -0.032658   0.004328   0.003029  -0.019469   0.507740
     7  H   -0.028463   0.385085  -0.023450   0.008157   0.009147  -0.001515
               7
     1  C   -0.028463
     2  N    0.385085
     3  N   -0.023450
     4  N    0.008157
     5  N    0.009147
     6  H   -0.001515
     7  H    0.490919
 Mulliken charges:
               1
     1  C   -0.046632
     2  N    0.031281
     3  N   -0.069885
     4  N   -0.072818
     5  N   -0.128061
     6  H    0.125994
     7  H    0.160121
 Sum of Mulliken charges =   0.00000
 Mulliken charges with hydrogens summed into heavy atoms:
               1
     1  C    0.079362
     2  N    0.191402
     3  N   -0.069885
     4  N   -0.072818
     5  N   -0.128061
 Electronic spatial extent (au):  <R**2>=            244.3861
 Charge=              0.0000 electrons
 Dipole moment (field-independent basis, Debye):
    X=              2.3261    Y=              4.5662    Z=              0.0000  Tot=              5.1245
 Quadrupole moment (field-independent basis, Debye-Ang):
   XX=            -28.9761   YY=            -26.4177   ZZ=            -28.0045
   XY=              1.6893   XZ=              0.0000   YZ=              0.0000
 Traceless Quadrupole moment (field-independent basis, Debye-Ang):
   XX=             -1.1766   YY=              1.3817   ZZ=             -0.2050
   XY=              1.6893   XZ=              0.0000   YZ=              0.0000
 Octapole moment (field-independent basis, Debye-Ang**2):
  XXX=             10.8792  YYY=             21.0937  ZZZ=              0.0000  XYY=             -0.7042
  XXY=              4.2250  XXZ=              0.0000  XZZ=             -0.8151  YZZ=              0.5624
  YYZ=              0.0000  XYZ=              0.0000
 Hexadecapole moment (field-independent basis, Debye-Ang**3):
 XXXX=           -141.5546 YYYY=           -119.8531 ZZZZ=            -25.2709 XXXY=              6.2207
 XXXZ=              0.0000 YYYX=             -0.4825 YYYZ=              0.0000 ZZZX=              0.0000
 ZZZY=              0.0000 XXYY=            -52.8893 XXZZ=            -29.9202 YYZZ=            -28.0802
 XXYZ=              0.0000 YYXZ=              0.0000 ZZXY=             -0.1245
 N-N= 1.698308489506D+02 E-N=-9.424843676724D+02  KE= 2.569119194120D+02
 Symmetry A'   KE= 2.472752575640D+02
 Symmetry A"   KE= 9.636661848045D+00
 No NMR shielding tensors so no spin-rotation constants.
 Leave Link  601 at Mon Nov 25 17:34:52 2013, MaxMem=   436000000 cpu:         1.8
 (Enter /usr/local/gaussian/g09.d01.em64t.legacy.linda/g09/l701.exe)
 Compute integral first derivatives.
 ... and contract with generalized density number  0.
 Leave Link  701 at Mon Nov 25 17:34:52 2013, MaxMem=   436000000 cpu:         1.8
 (Enter /usr/local/gaussian/g09.d01.em64t.legacy.linda/g09/l702.exe)
 L702 exits ... SP integral derivatives will be done elsewhere.
 Leave Link  702 at Mon Nov 25 17:34:52 2013, MaxMem=   436000000 cpu:         0.1
 (Enter /usr/local/gaussian/g09.d01.em64t.legacy.linda/g09/l703.exe)
 Compute integral first derivatives, UseDBF=F ICtDFT=           0.
 Integral derivatives from FoFJK, PRISM(SPDF).
 Calling FoFJK, ICntrl=      2527 FMM=F ISym2X=1 I1Cent= 0 IOpClX= 0 NMat=1 NMatS=1 NMatT=0.
 FoFJK:  IHMeth= 1 ICntrl=    2527 DoSepK=F KAlg= 0 I1Cent=   0 FoldK=F
 IRaf=         0 NMat=   1 IRICut=       1 DoRegI=T DoRafI=F ISym2E= 1.
 FoFCou: FMM=F IPFlag=           0 FMFlag=      100000 FMFlg1=         800
         NFxFlg=           0 DoJE=F BraDBF=F KetDBF=F FulRan=T
         wScrn=  0.000000 ICntrl=    2527 IOpCl=  0 I1Cent=           0 NGrid=           0
         NMat0=    1 NMatS0=      1 NMatT0=    0 NMatD0=    1 NMtDS0=    0 NMtDT0=    0
 Petite list used in FoFCou.
 Leave Link  703 at Mon Nov 25 17:34:58 2013, MaxMem=   436000000 cpu:        48.5
 (Enter /usr/local/gaussian/g09.d01.em64t.legacy.linda/g09/l716.exe)
 Dipole        = 9.15138648D-01 1.79646796D+00 1.26524909D-32
 ***** Axes restored to original set *****
 -------------------------------------------------------------------
 Center     Atomic                   Forces (Hartrees/Bohr)
 Number     Number              X              Y              Z
 -------------------------------------------------------------------
      1        6           0.025509336   -0.006030884    0.000000000
      2        7           0.010293469   -0.008752037    0.000000000
      3        7          -0.022719548   -0.049125954    0.000000000
      4        7          -0.030344823    0.039189134    0.000000000
      5        7          -0.001318279    0.040639444    0.000000000
      6        1           0.011716536    0.001364155    0.000000000
      7        1           0.006863309   -0.017283858    0.000000000
 -------------------------------------------------------------------
 Cartesian Forces:  Max     0.049125954 RMS     0.019992930
 -----------------------------------------------------------------------------------------------
                       Internal Coordinate Forces (Hartree/Bohr or radian)
  Cent   Atom   N1       Length/X         N2         Alpha/Y        N3         Beta/Z          J
 -----------------------------------------------------------------------------------------------
         X 
         X        1   0.000000(     1)
      1  C        1   0.037366(     2)      2   0.000000(     9)
      2  N        1   0.029905(     3)      2   0.000000(    10)      3  -0.019053(    16)     0
      3  N        1   0.051276(     4)      2   0.000000(    11)      3  -0.044235(    17)     0
      4  N        1   0.039169(     5)      2   0.000000(    12)      3   0.063969(    18)     0
      5  N        1   0.040272(     6)      2   0.000000(    13)      3  -0.009826(    19)     0
      6  H        3   0.011794(     7)      4  -0.000397(    14)      5   0.000000(    20)     0
      7  H        4   0.018596(     8)      5   0.000192(    15)      6   0.000000(    21)     0
 -----------------------------------------------------------------------------------------------
 Internal  Forces:  Max     0.063969440 RMS     0.026787755
 Force constants in Cartesian coordinates: 
                1             2             3             4             5 
      1  0.105205D+01
      2 -0.646119D-01  0.104049D+01
      3  0.000000D+00  0.000000D+00  0.194544D+00
      4 -0.280194D+00 -0.176039D+00  0.000000D+00  0.101741D+01
      5 -0.150825D+00 -0.509438D+00  0.000000D+00 -0.272076D-01  0.109828D+01
      6  0.000000D+00  0.000000D+00 -0.107133D+00  0.000000D+00  0.000000D+00
      7 -0.576538D-02  0.299212D-02  0.000000D+00 -0.597238D+00  0.343359D-01
      8 -0.347489D-01  0.180340D-01  0.000000D+00  0.832617D-01 -0.153968D+00
      9  0.000000D+00  0.000000D+00  0.901327D-02  0.000000D+00  0.000000D+00
     10 -0.138620D-01 -0.135721D-01  0.000000D+00  0.684604D-02  0.412622D-01
     11  0.253867D-01  0.248558D-01  0.000000D+00  0.872578D-03  0.525917D-02
     12  0.000000D+00  0.000000D+00  0.334526D-03  0.000000D+00  0.000000D+00
     13 -0.409698D+00  0.299688D+00  0.000000D+00  0.258890D-01 -0.134359D-01
     14  0.248008D+00 -0.447517D+00  0.000000D+00  0.253476D-01 -0.131549D-01
     15  0.000000D+00  0.000000D+00 -0.487885D-01  0.000000D+00  0.000000D+00
     16 -0.370541D+00 -0.339213D-01  0.000000D+00  0.370098D-02 -0.192074D-02
     17 -0.341529D-01 -0.120744D+00  0.000000D+00 -0.277509D-01  0.144022D-01
     18  0.000000D+00  0.000000D+00 -0.763460D-01  0.000000D+00  0.000000D+00
     19  0.280100D-01 -0.145366D-01  0.000000D+00 -0.176415D+00  0.117791D+00
     20  0.109444D-01 -0.567992D-02  0.000000D+00  0.121515D+00 -0.441384D+00
     21  0.000000D+00  0.000000D+00  0.283759D-01  0.000000D+00  0.000000D+00
                6             7             8             9            10 
      6  0.203276D+00
      7  0.000000D+00  0.705746D+00
      8  0.000000D+00 -0.130737D+00  0.942136D+00
      9 -0.489441D-01  0.000000D+00  0.000000D+00  0.501769D-01
     10  0.000000D+00 -0.127739D+00  0.484692D-01  0.000000D+00  0.596756D+00
     11  0.000000D+00  0.127675D+00 -0.813779D+00  0.000000D+00  0.805094D-01
     12  0.357783D-02  0.000000D+00  0.000000D+00 -0.334173D-01  0.000000D+00
     13  0.000000D+00  0.198157D-01  0.252566D-02  0.000000D+00 -0.462001D+00
     14  0.000000D+00 -0.362903D-01 -0.462547D-02  0.000000D+00 -0.156669D+00
     15  0.755838D-02  0.000000D+00  0.000000D+00  0.115249D-01  0.000000D+00
     16  0.000000D+00  0.000000D+00  0.000000D+00  0.000000D+00  0.000000D+00
     17  0.000000D+00  0.000000D+00  0.000000D+00  0.000000D+00  0.000000D+00
     18  0.257218D-01  0.000000D+00  0.000000D+00  0.663842D-02  0.000000D+00
     19  0.000000D+00  0.518145D-02  0.312295D-01  0.000000D+00  0.000000D+00
     20  0.000000D+00  0.202456D-02  0.122023D-01  0.000000D+00  0.000000D+00
     21 -0.840561D-01  0.000000D+00  0.000000D+00  0.500793D-02  0.000000D+00
               11            12            13            14            15 
     11  0.994476D+00
     12  0.000000D+00  0.468287D-01
     13 -0.234443D+00  0.000000D+00  0.829068D+00
     14 -0.210811D+00  0.000000D+00 -0.773865D-01  0.653539D+00
     15  0.000000D+00 -0.315440D-01  0.000000D+00  0.000000D+00  0.483742D-01
     16  0.000000D+00  0.000000D+00 -0.307428D-02 -0.300999D-02  0.000000D+00
     17  0.000000D+00  0.000000D+00  0.230518D-01  0.225697D-01  0.000000D+00
     18  0.000000D+00  0.800918D-02  0.000000D+00  0.000000D+00  0.488095D-02
     19  0.000000D+00  0.000000D+00  0.000000D+00  0.000000D+00  0.000000D+00
     20  0.000000D+00  0.000000D+00  0.000000D+00  0.000000D+00  0.000000D+00
     21  0.000000D+00  0.621095D-02  0.000000D+00  0.000000D+00  0.799404D-02
               16            17            18            19            20 
     16  0.369914D+00
     17  0.388521D-01  0.837724D-01
     18  0.000000D+00  0.000000D+00  0.422935D-01
     19  0.000000D+00  0.000000D+00  0.000000D+00  0.143223D+00
     20  0.000000D+00  0.000000D+00  0.000000D+00 -0.134484D+00  0.434861D+00
     21  0.000000D+00  0.000000D+00 -0.111979D-01  0.000000D+00  0.000000D+00
               21 
     21  0.476652D-01
 Force constants in internal coordinates: 
                1             2             3             4             5 
      1  0.000000D+00
      2  0.000000D+00  0.714021D+00
      3  0.000000D+00  0.239904D-01  0.651862D+00
      4  0.000000D+00  0.477314D-01  0.131790D-01  0.698688D+00
      5  0.000000D+00  0.197619D-01  0.347199D-01  0.733418D-01  0.582621D+00
      6  0.000000D+00  0.182039D+00  0.368833D-01  0.266152D-01  0.139672D+00
      7  0.000000D+00  0.000000D+00  0.000000D+00  0.000000D+00  0.000000D+00
      8  0.000000D+00  0.000000D+00  0.000000D+00  0.000000D+00  0.000000D+00
      9  0.000000D+00  0.000000D+00  0.000000D+00  0.000000D+00  0.000000D+00
     10  0.000000D+00  0.000000D+00  0.000000D+00  0.000000D+00  0.000000D+00
     11  0.000000D+00  0.000000D+00  0.000000D+00  0.000000D+00  0.000000D+00
     12  0.000000D+00  0.000000D+00  0.000000D+00  0.000000D+00  0.000000D+00
     13  0.000000D+00  0.000000D+00  0.000000D+00  0.000000D+00  0.000000D+00
     14  0.000000D+00 -0.103420D+00  0.454635D-01  0.000000D+00  0.000000D+00
     15  0.000000D+00  0.564930D-01 -0.102057D+00  0.527553D-01  0.000000D+00
     16  0.000000D+00  0.664361D+00  0.201189D-01 -0.750165D+00  0.425816D-01
     17  0.000000D+00 -0.819650D-01  0.721191D+00 -0.312336D+00 -0.718649D+00
     18  0.000000D+00  0.444874D-01 -0.291364D-01  0.104797D+01  0.541201D-01
     19  0.000000D+00 -0.789797D+00  0.532811D-01 -0.322785D-01  0.658511D+00
     20  0.000000D+00  0.000000D+00  0.000000D+00  0.000000D+00  0.000000D+00
     21  0.000000D+00  0.000000D+00  0.000000D+00  0.000000D+00  0.000000D+00
                6             7             8             9            10 
      6  0.639214D+00
      7  0.000000D+00  0.375095D+00
      8  0.000000D+00  0.000000D+00  0.487409D+00
      9  0.000000D+00  0.000000D+00  0.000000D+00  0.249630D+00
     10  0.000000D+00  0.000000D+00  0.000000D+00 -0.303690D+00  0.497296D+00
     11  0.000000D+00  0.000000D+00  0.000000D+00  0.196026D+00 -0.464723D+00
     12  0.000000D+00  0.000000D+00  0.000000D+00  0.227135D-03  0.185783D+00
     13  0.000000D+00  0.000000D+00  0.000000D+00 -0.141268D+00  0.791447D-01
     14  0.506551D-01  0.000000D+00  0.000000D+00  0.000000D+00  0.000000D+00
     15  0.000000D+00  0.000000D+00  0.000000D+00  0.000000D+00  0.000000D+00
     16 -0.848555D-01  0.000000D+00  0.000000D+00  0.000000D+00  0.000000D+00
     17  0.543562D-01  0.000000D+00  0.000000D+00  0.000000D+00  0.000000D+00
     18 -0.585825D+00  0.000000D+00  0.000000D+00  0.000000D+00  0.000000D+00
     19 -0.100092D+00  0.000000D+00  0.000000D+00  0.000000D+00  0.000000D+00
     20  0.000000D+00  0.000000D+00  0.000000D+00 -0.737111D-01  0.121332D+00
     21  0.000000D+00  0.000000D+00  0.000000D+00  0.439636D-01 -0.122492D+00
               11            12            13            14            15 
     11  0.555967D+00
     12 -0.331843D+00  0.275779D+00
     13  0.542972D-01 -0.137309D+00  0.148255D+00
     14  0.000000D+00  0.000000D+00  0.000000D+00  0.320000D+00
     15  0.000000D+00  0.000000D+00  0.000000D+00  0.000000D+00  0.320000D+00
     16  0.000000D+00  0.000000D+00  0.000000D+00 -0.104596D+00  0.351877D-01
     17  0.000000D+00  0.000000D+00  0.000000D+00  0.000000D+00 -0.905921D-01
     18  0.000000D+00  0.000000D+00  0.000000D+00  0.000000D+00  0.000000D+00
     19  0.000000D+00  0.000000D+00  0.000000D+00  0.731756D-01  0.000000D+00
     20 -0.118756D+00  0.556353D-01  0.141196D-01  0.000000D+00  0.000000D+00
     21  0.153088D+00 -0.943140D-01  0.225909D-01  0.000000D+00  0.000000D+00
               16            17            18            19            20 
     16  0.453257D+01
     17 -0.268051D+01  0.602300D+01
     18 -0.357339D-01 -0.319618D+01  0.447465D+01
     19 -0.122581D+00 -0.659222D-01 -0.116042D+01  0.258479D+01
     20  0.000000D+00  0.000000D+00  0.000000D+00  0.000000D+00  0.115483D+00
     21  0.000000D+00  0.000000D+00  0.000000D+00  0.000000D+00 -0.298696D-01
               21 
     21  0.124206D+00
 Leave Link  716 at Mon Nov 25 17:34:59 2013, MaxMem=   436000000 cpu:         0.2
 (Enter /usr/local/gaussian/g09.d01.em64t.legacy.linda/g09/l103.exe)

 GradGradGradGradGradGradGradGradGradGradGradGradGradGradGradGradGradGrad
 Berny optimization.
 Search for a local minimum.
 Step number   1 out of a maximum of   22
 All quantities printed in internal units (Hartrees-Bohrs-Radians)
 Second derivative matrix not updated -- first step.
 The second derivative matrix:
                          rn1       rn2       rn3       rn4       rch
           rn1          0.65186
           rn2          0.01318   0.69869
           rn3          0.03472   0.07334   0.58262
           rn4          0.03688   0.02662   0.13967   0.63921
           rch          0.00000   0.00000   0.00000   0.00000   0.37510
           rnh          0.00000   0.00000   0.00000   0.00000   0.00000
           an1          0.02012  -0.75016   0.04258  -0.08486   0.00000
           an2          0.72119  -0.31234  -0.71865   0.05436   0.00000
           an3         -0.02914   1.04797   0.05412  -0.58583   0.00000
           an4          0.05328  -0.03228   0.65851  -0.10009   0.00000
           ach          0.04546   0.00000   0.00000   0.05066   0.00000
           anh         -0.10206   0.05276   0.00000   0.00000   0.00000
                          rnh       an1       an2       an3       an4
           rnh          0.48741
           an1          0.00000   4.53257
           an2          0.00000  -2.68051   6.02300
           an3          0.00000  -0.03573  -3.19618   4.47465
           an4          0.00000  -0.12258  -0.06592  -1.16042   2.58479
           ach          0.00000  -0.10460   0.00000   0.00000   0.07318
           anh          0.00000   0.03519  -0.09059   0.00000   0.00000
                          ach       anh
           ach          0.32000
           anh          0.00000   0.32000
 ITU=  0
     Eigenvalues ---    0.00000   0.13346   0.26445   0.33044   0.37510
     Eigenvalues ---    0.40158   0.48741   0.75609   1.20990   2.99509
     Eigenvalues ---    5.09563   9.64077
 Eigenvalue     1 is  -6.96D-16 should be greater than     0.000000 Eigenvector:
                          rn4       an3       rn1       an2       rn2
   1                    0.46996   0.46737  -0.44908   0.37973  -0.34167
                          an4       an1       rn3       ach       rnh
   1                    0.22152   0.18738   0.11801   0.00000   0.00000
 RFO step:  Lambda=-1.01426840D-02 EMin=-6.95624114D-16
 Linear search not attempted -- first point.
 Variable       Old X    -DE/DX   Delta X   Delta X   Delta X     New X
                                 (Linear)    (Quad)   (Total)
   rn1        2.34817   0.02991   0.00000   0.02857   0.02857   2.37674
   rn2        2.51900   0.05128   0.00000   0.07314   0.07314   2.59214
   rn3        2.10629   0.03917   0.00000   0.07513   0.07513   2.18141
   rn4        1.75064   0.04027   0.00000   0.04342   0.04342   1.79406
   rch        2.01785   0.01179   0.00000   0.03061   0.03061   2.04846
   rnh        1.87858   0.01860   0.00000   0.03738   0.03738   1.91595
   an1        1.25389  -0.01905   0.00000   0.01282   0.01282   1.26671
   an2        2.33355  -0.04424   0.00000   0.00929   0.00929   2.34285
   an3        3.39396   0.06397   0.00000   0.00418   0.00418   3.39814
   an4        4.81845  -0.00983   0.00000  -0.01804  -0.01804   4.80041
   ach        2.18209  -0.00040   0.00000  -0.00374  -0.00374   2.17835
   anh        2.10770   0.00019   0.00000  -0.00109  -0.00109   2.10662
         Item               Value     Threshold  Converged?
 Maximum Force            0.063969     0.000450     NO 
 RMS     Force            0.033755     0.000300     NO 
 Maximum Displacement     0.075126     0.001800     NO 
 RMS     Displacement     0.037235     0.001200     NO 
 Predicted change in Energy=-5.155715D-03
 Lowest energy point so far.  Saving SCF results.
 GradGradGradGradGradGradGradGradGradGradGradGradGradGradGradGradGradGrad

 Leave Link  103 at Mon Nov 25 17:34:59 2013, MaxMem=   436000000 cpu:         0.3
 (Enter /usr/local/gaussian/g09.d01.em64t.legacy.linda/g09/l202.exe)
 ---------------------------------------------------------------------------------------------------
                            Z-MATRIX (ANGSTROMS AND DEGREES)
   CD    Cent   Atom    N1       Length/X        N2       Alpha/Y        N3        Beta/Z          J
 ---------------------------------------------------------------------------------------------------
      1         X 
      2         X        1   1.000000(     1)
      3      1  C        1   1.000000(     2)      2   90.000(     9)
      4      2  N        1   1.257718(     3)      2   90.000(    10)      3   72.577(    16)      0
      5      3  N        1   1.371703(     4)      2   90.000(    11)      3  134.235(    17)      0
      6      4  N        1   1.154355(     5)      2   90.000(    12)      3  194.699(    18)      0
      7      5  N        1   0.949377(     6)      2   90.000(    13)      3  275.043(    19)      0
      8      6  H        3   1.084001(     7)      4  124.810(    14)      5  180.000(    20)      0
      9      7  H        4   1.013878(     8)      5  120.700(    15)      6  180.000(    21)      0
 ---------------------------------------------------------------------------------------------------
                         Z-Matrix orientation:                         
 ---------------------------------------------------------------------
 Center     Atomic      Atomic             Coordinates (Angstroms)
 Number     Number       Type             X           Y           Z
 ---------------------------------------------------------------------
      1         -1           0        0.000000    0.000000    0.000000
      2         -1           0        0.000000    0.000000    1.000000
      3          6           0        1.000000    0.000000    0.000000
      4          7           0        0.376591   -1.200014    0.000000
      5          7           0       -0.956908   -0.982799    0.000000
      6          7           0       -1.116574    0.292914    0.000000
      7          7           0        0.083460    0.945701    0.000000
      8          1           0        2.075073    0.138837    0.000000
      9          1           0        0.747331   -2.143678    0.000000
 ---------------------------------------------------------------------
                    Distance matrix (angstroms):
                    1          2          3          4          5
     1  X    0.000000
     2  X    1.000000   0.000000
     3  C    1.000000   1.414214   0.000000
     4  N    1.257718   1.606815   1.352285   0.000000
     5  N    1.371703   1.697518   2.189837   1.351075   0.000000
     6  N    1.154355   1.527264   2.136746   2.111487   1.285666
     7  N    0.949377   1.378882   1.316965   2.165646   2.191228
     8  H    2.079712   2.307640   1.084001   2.162721   3.232797
     9  H    2.270211   2.480697   2.158518   1.013878   2.062055
                    6          7          8          9
     6  N    0.000000
     7  N    1.366094   0.000000
     8  H    3.195364   2.148849   0.000000
     9  H    3.067755   3.159904   2.640601   0.000000
 Stoichiometry    CH2N4
 Framework group  CS[SG(CH2N4)]
 Deg. of freedom    11
 Full point group                 CS      NOp   2
 RotChk:  IX=0 Diff= 5.02D-04
 Largest Abelian subgroup         CS      NOp   2
 Largest concise Abelian subgroup C1      NOp   1
                         Standard orientation:                         
 ---------------------------------------------------------------------
 Center     Atomic      Atomic             Coordinates (Angstroms)
 Number     Number       Type             X           Y           Z
 ---------------------------------------------------------------------
      1          6           0        1.070206    0.232251    0.000000
      2          7           0        0.000000    1.058890    0.000000
      3          7           0       -1.118548    0.301095    0.000000
      4          7           0       -0.726994   -0.923497    0.000000
      5          7           0        0.636283   -1.011174    0.000000
      6          1           0        2.103999    0.558336    0.000000
      7          1           0       -0.060424    2.070966    0.000000
 ---------------------------------------------------------------------
 Rotational constants (GHZ):     10.4883654     10.3195603      5.2016390
 Leave Link  202 at Mon Nov 25 17:34:59 2013, MaxMem=   436000000 cpu:         0.0
 (Enter /usr/local/gaussian/g09.d01.em64t.legacy.linda/g09/l301.exe)
 Standard basis: CC-pVTZ (5D, 7F)
 Ernie: Thresh=  0.10000D-02 Tol=  0.10000D-05 Strict=F.
 Ernie:  15 primitive shells out of 146 were deleted.
 There are   142 symmetry adapted cartesian basis functions of A'  symmetry.
 There are    63 symmetry adapted cartesian basis functions of A"  symmetry.
 There are   120 symmetry adapted basis functions of A'  symmetry.
 There are    58 symmetry adapted basis functions of A"  symmetry.
   178 basis functions,   294 primitive gaussians,   205 cartesian basis functions
    18 alpha electrons       18 beta electrons
       nuclear repulsion energy       166.4623023354 Hartrees.
 IExCor= 1009 DFT=T Ex=PBE Corr=PBE ExCW=0 ScaHFX=  0.000000
 ScaDFX=  1.000000  1.000000  1.000000  1.000000 ScalE2=  1.000000  1.000000
 IRadAn=      0 IRanWt=     -1 IRanGd=            0 ICorTp=0 IEmpDi=  4
 NAtoms=    7 NActive=    7 NUniq=    7 SFac= 1.00D+00 NAtFMM=   60 NAOKFM=F Big=F
 Integral buffers will be    131072 words long.
 Raffenetti 2 integral format.
 Two-electron integral symmetry is turned on.
 Leave Link  301 at Mon Nov 25 17:34:59 2013, MaxMem=   436000000 cpu:         0.3
 (Enter /usr/local/gaussian/g09.d01.em64t.legacy.linda/g09/l302.exe)
 NPDir=0 NMtPBC=     1 NCelOv=     1 NCel=       1 NClECP=     1 NCelD=      1
         NCelK=      1 NCelE2=     1 NClLst=     1 CellRange=     0.0.
 One-electron integrals computed using PRISM.
 NBasis=   178 RedAO= T EigKep=  1.14D-03  NBF=   120    58
 NBsUse=   178 1.00D-06 EigRej= -1.00D+00 NBFU=   120    58
 Precomputing XC quadrature grid using
 IXCGrd= 4 IRadAn=           0 IRanWt=          -1 IRanGd=           0 AccXCQ= 0.00D+00.
 Generated NRdTot=       0 NPtTot=           0 NUsed=           0 NTot=          32
 NSgBfM=   205   205   205   205   205 MxSgAt=     7 MxSgA2=     7.
 Leave Link  302 at Mon Nov 25 17:34:59 2013, MaxMem=   436000000 cpu:         1.7
 (Enter /usr/local/gaussian/g09.d01.em64t.legacy.linda/g09/l303.exe)
 DipDrv:  MaxL=1.
 Leave Link  303 at Mon Nov 25 17:34:59 2013, MaxMem=   436000000 cpu:         0.3
 (Enter /usr/local/gaussian/g09.d01.em64t.legacy.linda/g09/l401.exe)
 Initial guess from the checkpoint file:  "/tmp/rdj3/g09-31683/Gau-17368.chk"
 B after Tr=     0.000000    0.000000    0.000000
         Rot=    1.000000    0.000000    0.000000   -0.000449 Ang=  -0.05 deg.
 Guess basis will be translated and rotated to current coordinates.
 JPrj=2 DoOrth=T DoCkMO=T.
 Initial guess orbital symmetries:
       Occupied  (A') (A') (A') (A') (A') (A') (A') (A') (A') (A')
                 (A') (A") (A') (A') (A") (A") (A') (A')
       Virtual   (A') (A') (A') (A') (A') (A') (A') (A') (A') (A')
                 (A') (A') (A') (A') (A') (A') (A') (A') (A') (A')
                 (A') (A') (A') (A') (A') (A') (A') (A') (A') (A')
                 (A') (A') (A') (A') (A') (A') (A') (A') (A') (A')
                 (A') (A') (A') (A') (A') (A') (A') (A') (A') (A')
                 (A') (A') (A') (A') (A') (A') (A') (A') (A') (A')
                 (A') (A') (A') (A') (A') (A') (A') (A') (A') (A')
                 (A') (A') (A') (A') (A') (A') (A') (A') (A') (A')
                 (A') (A') (A') (A') (A') (A') (A') (A') (A') (A')
                 (A') (A') (A') (A') (A') (A') (A') (A') (A') (A')
                 (A') (A') (A') (A') (A') (A") (A") (A") (A") (A")
                 (A") (A") (A") (A") (A") (A") (A") (A") (A") (A")
                 (A") (A") (A") (A") (A") (A") (A") (A") (A") (A")
                 (A") (A") (A") (A") (A") (A") (A") (A") (A") (A")
                 (A") (A") (A") (A") (A") (A") (A") (A") (A") (A")
                 (A") (A") (A") (A") (A") (A") (A") (A") (A") (A")
 The electronic state of the initial guess is 1-A'.
 Generating alternative initial guess.
 ExpMin= 1.03D-01 ExpMax= 1.14D+04 ExpMxC= 3.89D+02 IAcc=1 IRadAn=         1 AccDes= 0.00D+00
 Harris functional with IExCor= 1009 and IRadAn=       1 diagonalized for initial guess.
 HarFok:  IExCor= 1009 AccDes= 0.00D+00 IRadAn=         1 IDoV= 1 UseB2=F ITyADJ=14
 ICtDFT=  3500011 ScaDFX=  1.000000  1.000000  1.000000  1.000000
 FoFCou: FMM=F IPFlag=           0 FMFlag=      100000 FMFlg1=           0
         NFxFlg=           0 DoJE=T BraDBF=F KetDBF=T FulRan=T
         wScrn=  0.000000 ICntrl=     500 IOpCl=  0 I1Cent=   200000004 NGrid=           0
         NMat0=    1 NMatS0=      1 NMatT0=    0 NMatD0=    1 NMtDS0=    0 NMtDT0=    0
 Petite list used in FoFCou.
 Harris En= -258.066910309489    
 Leave Link  401 at Mon Nov 25 17:34:59 2013, MaxMem=   436000000 cpu:         3.1
 (Enter /usr/local/gaussian/g09.d01.em64t.legacy.linda/g09/l502.exe)
 Closed shell SCF:
 Using DIIS extrapolation, IDIIS=  1040.
 Integral symmetry usage will be decided dynamically.
 Keep J ints in memory in symmetry-blocked form, NReq=191556701.
 IVT=      147815 IEndB=      147815 NGot=   436000000 MDV=   371349824
 LenX=   371349824 LenY=   371307358
 Requested convergence on RMS density matrix=1.00D-08 within 128 cycles.
 Requested convergence on MAX density matrix=1.00D-06.
 Requested convergence on             energy=1.00D-06.
 No special actions if energy rises.
 FoFCou: FMM=F IPFlag=           0 FMFlag=           0 FMFlg1=           0
         NFxFlg=           0 DoJE=F BraDBF=F KetDBF=F FulRan=T
         wScrn=  0.000000 ICntrl=     600 IOpCl=  0 I1Cent=           0 NGrid=           0
         NMat0=    1 NMatS0=  15931 NMatT0=    0 NMatD0=    1 NMtDS0=    0 NMtDT0=    0
 Petite list used in FoFCou.
 Integral accuracy reduced to 1.0D-05 until final iterations.

 Cycle   1  Pass 0  IDiag  1:
 E= -258.068944188090    
 DIIS: error= 3.24D-03 at cycle   1 NSaved=   1.
 NSaved= 1 IEnMin= 1 EnMin= -258.068944188090     IErMin= 1 ErrMin= 3.24D-03
 ErrMax= 3.24D-03  0.00D+00 EMaxC= 1.00D-01 BMatC= 1.92D-03 BMatP= 1.92D-03
 IDIUse=3 WtCom= 9.68D-01 WtEn= 3.24D-02
 Coeff-Com:  0.100D+01
 Coeff-En:   0.100D+01
 Coeff:      0.100D+01
 Gap=     0.991 Goal=   None    Shift=    0.000
 GapD=    0.991 DampG=2.000 DampE=1.000 DampFc=2.0000 IDamp=-1.
 RMSDP=3.88D-04 MaxDP=1.33D-02              OVMax= 1.60D-02

 Cycle   2  Pass 0  IDiag  1:
 E= -258.070355387927     Delta-E=       -0.001411199837 Rises=F Damp=F
 DIIS: error= 1.46D-03 at cycle   2 NSaved=   2.
 NSaved= 2 IEnMin= 2 EnMin= -258.070355387927     IErMin= 2 ErrMin= 1.46D-03
 ErrMax= 1.46D-03  0.00D+00 EMaxC= 1.00D-01 BMatC= 3.42D-04 BMatP= 1.92D-03
 IDIUse=3 WtCom= 9.85D-01 WtEn= 1.46D-02
 Coeff-Com:  0.241D+00 0.759D+00
 Coeff-En:   0.000D+00 0.100D+01
 Coeff:      0.238D+00 0.762D+00
 Gap=     0.188 Goal=   None    Shift=    0.000
 RMSDP=1.39D-04 MaxDP=3.50D-03 DE=-1.41D-03 OVMax= 6.17D-03

 Cycle   3  Pass 0  IDiag  1:
 E= -258.070490820143     Delta-E=       -0.000135432217 Rises=F Damp=F
 DIIS: error= 9.69D-04 at cycle   3 NSaved=   3.
 NSaved= 3 IEnMin= 3 EnMin= -258.070490820143     IErMin= 3 ErrMin= 9.69D-04
 ErrMax= 9.69D-04  0.00D+00 EMaxC= 1.00D-01 BMatC= 1.61D-04 BMatP= 3.42D-04
 IDIUse=3 WtCom= 9.90D-01 WtEn= 9.69D-03
 Coeff-Com:  0.266D-01 0.410D+00 0.564D+00
 Coeff-En:   0.000D+00 0.350D+00 0.650D+00
 Coeff:      0.264D-01 0.409D+00 0.564D+00
 Gap=     0.187 Goal=   None    Shift=    0.000
 RMSDP=7.10D-05 MaxDP=1.42D-03 DE=-1.35D-04 OVMax= 4.87D-03

 Cycle   4  Pass 0  IDiag  1:
 E= -258.070618979302     Delta-E=       -0.000128159159 Rises=F Damp=F
 DIIS: error= 5.05D-04 at cycle   4 NSaved=   4.
 NSaved= 4 IEnMin= 4 EnMin= -258.070618979302     IErMin= 4 ErrMin= 5.05D-04
 ErrMax= 5.05D-04  0.00D+00 EMaxC= 1.00D-01 BMatC= 1.95D-05 BMatP= 1.61D-04
 IDIUse=3 WtCom= 9.95D-01 WtEn= 5.05D-03
 Coeff-Com:  0.119D-01 0.253D+00 0.388D+00 0.347D+00
 Coeff-En:   0.000D+00 0.000D+00 0.159D-01 0.984D+00
 Coeff:      0.119D-01 0.252D+00 0.386D+00 0.350D+00
 Gap=     0.188 Goal=   None    Shift=    0.000
 RMSDP=1.94D-05 MaxDP=5.79D-04 DE=-1.28D-04 OVMax= 2.36D-03

 Cycle   5  Pass 0  IDiag  1:
 E= -258.070636468288     Delta-E=       -0.000017488986 Rises=F Damp=F
 DIIS: error= 1.03D-04 at cycle   5 NSaved=   5.
 NSaved= 5 IEnMin= 5 EnMin= -258.070636468288     IErMin= 5 ErrMin= 1.03D-04
 ErrMax= 1.03D-04  0.00D+00 EMaxC= 1.00D-01 BMatC= 2.38D-06 BMatP= 1.95D-05
 IDIUse=3 WtCom= 9.99D-01 WtEn= 1.03D-03
 Coeff-Com:  0.203D-02 0.842D-01 0.152D+00 0.253D+00 0.508D+00
 Coeff-En:   0.000D+00 0.000D+00 0.000D+00 0.109D+00 0.891D+00
 Coeff:      0.203D-02 0.842D-01 0.152D+00 0.253D+00 0.508D+00
 Gap=     0.187 Goal=   None    Shift=    0.000
 RMSDP=5.75D-06 MaxDP=1.80D-04 DE=-1.75D-05 OVMax= 6.58D-04

 Initial convergence to 1.0D-05 achieved.  Increase integral accuracy.
 Cycle   6  Pass 1  IDiag  1:
 E= -258.070654134282     Delta-E=       -0.000017665994 Rises=F Damp=F
 DIIS: error= 5.52D-05 at cycle   1 NSaved=   1.
 NSaved= 1 IEnMin= 1 EnMin= -258.070654134282     IErMin= 1 ErrMin= 5.52D-05
 ErrMax= 5.52D-05  0.00D+00 EMaxC= 1.00D-01 BMatC= 5.73D-07 BMatP= 5.73D-07
 IDIUse=1 WtCom= 1.00D+00 WtEn= 0.00D+00
 Coeff-Com:  0.100D+01
 Coeff:      0.100D+01
 Gap=     0.188 Goal=   None    Shift=    0.000
 RMSDP=5.75D-06 MaxDP=1.80D-04 DE=-1.77D-05 OVMax= 1.03D-03

 Cycle   7  Pass 1  IDiag  1:
 E= -258.070651094660     Delta-E=        0.000003039622 Rises=F Damp=F
 DIIS: error= 1.66D-04 at cycle   2 NSaved=   2.
 NSaved= 2 IEnMin= 1 EnMin= -258.070654134282     IErMin= 1 ErrMin= 5.52D-05
 ErrMax= 1.66D-04  0.00D+00 EMaxC= 1.00D-01 BMatC= 3.97D-06 BMatP= 5.73D-07
 IDIUse=3 WtCom= 4.37D-01 WtEn= 5.63D-01
 Coeff-Com:  0.731D+00 0.269D+00
 Coeff-En:   0.818D+00 0.182D+00
 Coeff:      0.780D+00 0.220D+00
 Gap=     0.187 Goal=   None    Shift=    0.000
 RMSDP=5.58D-06 MaxDP=1.54D-04 DE= 3.04D-06 OVMax= 6.67D-04

 Cycle   8  Pass 1  IDiag  1:
 E= -258.070654534355     Delta-E=       -0.000003439695 Rises=F Damp=F
 DIIS: error= 2.07D-05 at cycle   3 NSaved=   3.
 NSaved= 3 IEnMin= 3 EnMin= -258.070654534355     IErMin= 3 ErrMin= 2.07D-05
 ErrMax= 2.07D-05  0.00D+00 EMaxC= 1.00D-01 BMatC= 1.15D-07 BMatP= 5.73D-07
 IDIUse=1 WtCom= 1.00D+00 WtEn= 0.00D+00
 Coeff-Com:  0.418D+00 0.863D-01 0.495D+00
 Coeff:      0.418D+00 0.863D-01 0.495D+00
 Gap=     0.187 Goal=   None    Shift=    0.000
 RMSDP=1.20D-06 MaxDP=5.56D-05 DE=-3.44D-06 OVMax= 1.70D-04

 Cycle   9  Pass 1  IDiag  1:
 E= -258.070654624659     Delta-E=       -0.000000090304 Rises=F Damp=F
 DIIS: error= 9.58D-06 at cycle   4 NSaved=   4.
 NSaved= 4 IEnMin= 4 EnMin= -258.070654624659     IErMin= 4 ErrMin= 9.58D-06
 ErrMax= 9.58D-06  0.00D+00 EMaxC= 1.00D-01 BMatC= 1.33D-08 BMatP= 1.15D-07
 IDIUse=1 WtCom= 1.00D+00 WtEn= 0.00D+00
 Coeff-Com:  0.285D-01-0.360D-01 0.357D+00 0.651D+00
 Coeff:      0.285D-01-0.360D-01 0.357D+00 0.651D+00
 Gap=     0.187 Goal=   None    Shift=    0.000
 RMSDP=4.53D-07 MaxDP=1.45D-05 DE=-9.03D-08 OVMax= 5.93D-05

 Cycle  10  Pass 1  IDiag  1:
 E= -258.070654634955     Delta-E=       -0.000000010296 Rises=F Damp=F
 DIIS: error= 3.79D-06 at cycle   5 NSaved=   5.
 NSaved= 5 IEnMin= 5 EnMin= -258.070654634955     IErMin= 5 ErrMin= 3.79D-06
 ErrMax= 3.79D-06  0.00D+00 EMaxC= 1.00D-01 BMatC= 1.54D-09 BMatP= 1.33D-08
 IDIUse=1 WtCom= 1.00D+00 WtEn= 0.00D+00
 Coeff-Com:  0.671D-03-0.285D-01 0.222D+00 0.440D+00 0.365D+00
 Coeff:      0.671D-03-0.285D-01 0.222D+00 0.440D+00 0.365D+00
 Gap=     0.187 Goal=   None    Shift=    0.000
 RMSDP=1.58D-07 MaxDP=3.80D-06 DE=-1.03D-08 OVMax= 1.54D-05

 Cycle  11  Pass 1  IDiag  1:
 E= -258.070654636211     Delta-E=       -0.000000001257 Rises=F Damp=F
 DIIS: error= 7.62D-07 at cycle   6 NSaved=   6.
 NSaved= 6 IEnMin= 6 EnMin= -258.070654636211     IErMin= 6 ErrMin= 7.62D-07
 ErrMax= 7.62D-07  0.00D+00 EMaxC= 1.00D-01 BMatC= 1.09D-10 BMatP= 1.54D-09
 IDIUse=1 WtCom= 1.00D+00 WtEn= 0.00D+00
 Coeff-Com: -0.190D-02-0.164D-01 0.120D+00 0.240D+00 0.248D+00 0.410D+00
 Coeff:     -0.190D-02-0.164D-01 0.120D+00 0.240D+00 0.248D+00 0.410D+00
 Gap=     0.187 Goal=   None    Shift=    0.000
 RMSDP=3.50D-08 MaxDP=1.05D-06 DE=-1.26D-09 OVMax= 3.00D-06

 Cycle  12  Pass 1  IDiag  1:
 E= -258.070654636300     Delta-E=       -0.000000000089 Rises=F Damp=F
 DIIS: error= 1.26D-07 at cycle   7 NSaved=   7.
 NSaved= 7 IEnMin= 7 EnMin= -258.070654636300     IErMin= 7 ErrMin= 1.26D-07
 ErrMax= 1.26D-07  0.00D+00 EMaxC= 1.00D-01 BMatC= 2.96D-12 BMatP= 1.09D-10
 IDIUse=1 WtCom= 1.00D+00 WtEn= 0.00D+00
 Coeff-Com: -0.952D-03-0.631D-02 0.445D-01 0.877D-01 0.989D-01 0.202D+00
 Coeff-Com:  0.574D+00
 Coeff:     -0.952D-03-0.631D-02 0.445D-01 0.877D-01 0.989D-01 0.202D+00
 Coeff:      0.574D+00
 Gap=     0.187 Goal=   None    Shift=    0.000
 RMSDP=9.30D-09 MaxDP=1.88D-07 DE=-8.87D-11 OVMax= 8.33D-07

 SCF Done:  E(RPBE-PBE) =  -258.070654636     A.U. after   12 cycles
            NFock= 12  Conv=0.93D-08     -V/T= 2.0062
 KE= 2.564759563260D+02 PE=-9.354992629047D+02 EE= 2.544903496070D+02
 Leave Link  502 at Mon Nov 25 17:35:06 2013, MaxMem=   436000000 cpu:        50.1
 (Enter /usr/local/gaussian/g09.d01.em64t.legacy.linda/g09/l701.exe)
 Compute integral first derivatives.
 ... and contract with generalized density number  0.
 Leave Link  701 at Mon Nov 25 17:35:07 2013, MaxMem=   436000000 cpu:         2.0
 (Enter /usr/local/gaussian/g09.d01.em64t.legacy.linda/g09/l702.exe)
 L702 exits ... SP integral derivatives will be done elsewhere.
 Leave Link  702 at Mon Nov 25 17:35:07 2013, MaxMem=   436000000 cpu:         0.2
 (Enter /usr/local/gaussian/g09.d01.em64t.legacy.linda/g09/l703.exe)
 Compute integral first derivatives, UseDBF=F ICtDFT=           0.
 Integral derivatives from FoFJK, PRISM(SPDF).
 Calling FoFJK, ICntrl=      2527 FMM=F ISym2X=1 I1Cent= 0 IOpClX= 0 NMat=1 NMatS=1 NMatT=0.
 FoFJK:  IHMeth= 1 ICntrl=    2527 DoSepK=F KAlg= 0 I1Cent=   0 FoldK=F
 IRaf=         0 NMat=   1 IRICut=       1 DoRegI=T DoRafI=F ISym2E= 1.
 FoFCou: FMM=F IPFlag=           0 FMFlag=      100000 FMFlg1=         800
         NFxFlg=           0 DoJE=F BraDBF=F KetDBF=F FulRan=T
         wScrn=  0.000000 ICntrl=    2527 IOpCl=  0 I1Cent=           0 NGrid=           0
         NMat0=    1 NMatS0=      1 NMatT0=    0 NMatD0=    1 NMtDS0=    0 NMtDT0=    0
 Petite list used in FoFCou.
 Leave Link  703 at Mon Nov 25 17:35:13 2013, MaxMem=   436000000 cpu:        48.0
 (Enter /usr/local/gaussian/g09.d01.em64t.legacy.linda/g09/l716.exe)
 Dipole        = 9.25860111D-01 1.80354546D+00-4.05361468D-32
 ***** Axes restored to original set *****
 -------------------------------------------------------------------
 Center     Atomic                   Forces (Hartrees/Bohr)
 Number     Number              X              Y              Z
 -------------------------------------------------------------------
      1        6           0.002512872   -0.003059245    0.000000000
      2        7           0.003680356    0.003226225    0.000000000
      3        7          -0.004604608   -0.012164401    0.000000000
      4        7          -0.003846476    0.008161008    0.000000000
      5        7           0.001990776    0.004549047    0.000000000
      6        1           0.000046676   -0.000031130    0.000000000
      7        1           0.000220404   -0.000681504    0.000000000
 -------------------------------------------------------------------
 Cartesian Forces:  Max     0.012164401 RMS     0.003875274
 -----------------------------------------------------------------------------------------------
                       Internal Coordinate Forces (Hartree/Bohr or radian)
  Cent   Atom   N1       Length/X         N2         Alpha/Y        N3         Beta/Z          J
 -----------------------------------------------------------------------------------------------
         X 
         X        1   0.000000(     1)
      1  C        1   0.002586(     2)      2   0.000000(     9)
      2  N        1  -0.001251(     3)      2   0.000000(    10)      3  -0.010572(    16)     0
      3  N        1   0.011901(     4)      2   0.000000(    11)      3  -0.013396(    17)     0
      4  N        1   0.005791(     5)      2   0.000000(    12)      3   0.015091(    18)     0
      5  N        1   0.004706(     6)      2   0.000000(    13)      3   0.002840(    19)     0
      6  H        3   0.000042(     7)      4  -0.000075(    14)      5   0.000000(    20)     0
      7  H        4   0.000715(     8)      5  -0.000084(    15)      6   0.000000(    21)     0
 -----------------------------------------------------------------------------------------------
 Internal  Forces:  Max     0.015090745 RMS     0.005908441
 Leave Link  716 at Mon Nov 25 17:35:13 2013, MaxMem=   436000000 cpu:         0.2
 (Enter /usr/local/gaussian/g09.d01.em64t.legacy.linda/g09/l103.exe)

 GradGradGradGradGradGradGradGradGradGradGradGradGradGradGradGradGradGrad
 Berny optimization.
 Search for a local minimum.
 Step number   2 out of a maximum of   22
 All quantities printed in internal units (Hartrees-Bohrs-Radians)
 Update second derivatives using D2CorN and points    1    2
 DE= -5.56D-03 DEPred=-5.16D-03 R= 1.08D+00
 TightC=F SS=  1.41D+00  RLast= 1.29D-01 DXNew= 5.0454D-01 3.8696D-01
 Trust test= 1.08D+00 RLast= 1.29D-01 DXMaxT set to 3.87D-01
 The second derivative matrix:
                          rn1       rn2       rn3       rn4       rch
           rn1          0.65451
           rn2          0.00699   0.64963
           rn3          0.03388   0.03709   0.55991
           rn4          0.03523   0.00268   0.12348   0.62808
           rch          0.00165  -0.00968  -0.00402  -0.00358   0.37559
           rnh          0.00144  -0.01327  -0.00641  -0.00523  -0.00001
           an1          0.02990  -0.73094   0.06481  -0.07253   0.00995
           an2          0.73320  -0.28580  -0.68960   0.07077   0.01249
           an3         -0.04186   1.01349   0.01951  -0.60600  -0.01381
           an4          0.04985  -0.03288   0.65441  -0.10173  -0.00293
           ach          0.04532   0.00134   0.00065   0.05118   0.00000
           anh         -0.10204   0.05328   0.00033   0.00024   0.00006
                          rnh       an1       an2       an3       an4
           rnh          0.48665
           an1          0.01189   4.54082
           an2          0.01506  -2.67232   6.03054
           an3         -0.01695  -0.04018  -3.19869   4.47087
           an4         -0.00321  -0.12955  -0.07408  -1.15265   2.58807
           ach          0.00008  -0.10578  -0.00151   0.00170   0.07350
           anh          0.00009   0.03487  -0.09101   0.00050   0.00006
                          ach       anh
           ach          0.31999
           anh         -0.00001   0.32000
 ITU=  1  0
     Eigenvalues ---    0.00001   0.12891   0.26521   0.32868   0.37494
     Eigenvalues ---    0.39365   0.48651   0.72663   1.20954   2.99025
     Eigenvalues ---    5.08458   9.63576
 RFO step:  Lambda=-1.61340998D-04 EMin= 1.04810355D-05
 Quartic linear search produced a step of  0.15814.
 Variable       Old X    -DE/DX   Delta X   Delta X   Delta X     New X
                                 (Linear)    (Quad)   (Total)
   rn1        2.37674  -0.00125   0.00452   0.11218   0.11670   2.49344
   rn2        2.59214   0.01190   0.01157   0.10506   0.11663   2.70877
   rn3        2.18141   0.00579   0.01188  -0.03202  -0.02014   2.16127
   rn4        1.79406   0.00471   0.00687  -0.12876  -0.12189   1.67217
   rch        2.04846   0.00004   0.00484  -0.00381   0.00103   2.04949
   rnh        1.91595   0.00071   0.00591  -0.00331   0.00260   1.91856
   an1        1.26671  -0.01057   0.00203  -0.05116  -0.04913   1.21758
   an2        2.34285  -0.01340   0.00147  -0.10365  -0.10218   2.24067
   an3        3.39814   0.01509   0.00066  -0.12817  -0.12751   3.27063
   an4        4.80041   0.00284  -0.00285  -0.05862  -0.06148   4.73894
   ach        2.17835  -0.00008  -0.00059   0.00089   0.00030   2.17866
   anh        2.10662  -0.00008  -0.00017  -0.00572  -0.00589   2.10073
         Item               Value     Threshold  Converged?
 Maximum Force            0.015091     0.000450     NO 
 RMS     Force            0.007780     0.000300     NO 
 Maximum Displacement     0.127513     0.001800     NO 
 RMS     Displacement     0.079278     0.001200     NO 
 Predicted change in Energy=-1.575724D-04
 Lowest energy point so far.  Saving SCF results.
 GradGradGradGradGradGradGradGradGradGradGradGradGradGradGradGradGradGrad

 Leave Link  103 at Mon Nov 25 17:35:13 2013, MaxMem=   436000000 cpu:         0.1
 (Enter /usr/local/gaussian/g09.d01.em64t.legacy.linda/g09/l202.exe)
 ---------------------------------------------------------------------------------------------------
                            Z-MATRIX (ANGSTROMS AND DEGREES)
   CD    Cent   Atom    N1       Length/X        N2       Alpha/Y        N3        Beta/Z          J
 ---------------------------------------------------------------------------------------------------
      1         X 
      2         X        1   1.000000(     1)
      3      1  C        1   1.000000(     2)      2   90.000(     9)
      4      2  N        1   1.319471(     3)      2   90.000(    10)      3   69.762(    16)      0
      5      3  N        1   1.433421(     4)      2   90.000(    11)      3  128.381(    17)      0
      6      4  N        1   1.143695(     5)      2   90.000(    12)      3  187.393(    18)      0
      7      5  N        1   0.884876(     6)      2   90.000(    13)      3  271.521(    19)      0
      8      6  H        3   1.084544(     7)      4  124.828(    14)      5  180.000(    20)      0
      9      7  H        4   1.015256(     8)      5  120.363(    15)      6  180.000(    21)      0
 ---------------------------------------------------------------------------------------------------
                         Z-Matrix orientation:                         
 ---------------------------------------------------------------------
 Center     Atomic      Atomic             Coordinates (Angstroms)
 Number     Number       Type             X           Y           Z
 ---------------------------------------------------------------------
      1         -1           0        0.000000    0.000000    0.000000
      2         -1           0        0.000000    0.000000    1.000000
      3          6           0        1.000000    0.000000    0.000000
      4          7           0        0.456431   -1.238013    0.000000
      5          7           0       -0.889988   -1.123663    0.000000
      6          7           0       -1.134187    0.147172    0.000000
      7          7           0        0.023489    0.884564    0.000000
      8          1           0        2.064171    0.209229    0.000000
      9          1           0        0.893645   -2.154304    0.000000
 ---------------------------------------------------------------------
                    Distance matrix (angstroms):
                    1          2          3          4          5
     1  X    0.000000
     2  X    1.000000   0.000000
     3  C    1.000000   1.414214   0.000000
     4  N    1.319471   1.655598   1.352089   0.000000
     5  N    1.433421   1.747769   2.198789   1.351265   0.000000
     6  N    1.143695   1.519223   2.139255   2.109218   1.294084
     7  N    0.884876   1.335292   1.317584   2.166280   2.206221
     8  H    2.074747   2.303167   1.084544   2.163178   3.240934
     9  H    2.332301   2.537642   2.156927   1.015256   2.059992
                    6          7          8          9
     6  N    0.000000
     7  N    1.372574   0.000000
     8  H    3.198959   2.149525   0.000000
     9  H    3.067392   3.160995   2.637502   0.000000
 Stoichiometry    CH2N4
 Framework group  CS[SG(CH2N4)]
 Deg. of freedom    11
 Full point group                 CS      NOp   2
 RotChk:  IX=0 Diff= 9.61D-02
 Largest Abelian subgroup         CS      NOp   2
 Largest concise Abelian subgroup C1      NOp   1
                         Standard orientation:                         
 ---------------------------------------------------------------------
 Center     Atomic      Atomic             Coordinates (Angstroms)
 Number     Number       Type             X           Y           Z
 ---------------------------------------------------------------------
      1          6           0        1.072163    0.231812    0.000000
      2          7           0        0.000000    1.055590    0.000000
      3          7           0       -1.125321    0.307546    0.000000
      4          7           0       -0.727964   -0.924023    0.000000
      5          7           0        0.641693   -1.013468    0.000000
      6          1           0        2.105735    0.560394    0.000000
[...]
     X                                                                                          X      X        X                    
     X                                                                                          X      X        X                    
     X                                                                                          X               X                    
     X                                                                                                          X                    
     X                                                                                                          X                    
     X                                                                                                          X                    
     X                                                                                                          X                    
     X                                                                                                          X                    
     X                                                                                                          X                    
     X                                                                                                          X                    
     X                                                                                                          X                    
     X                                                                                                          X                    
     X                                                                                                          X                    
     X                                                                                                          X                    
                                                                                                                X                    
                                                                                                                X                    
 
 ***** Axes restored to original set *****
 -------------------------------------------------------------------
 Center     Atomic                   Forces (Hartrees/Bohr)
 Number     Number              X              Y              Z
 -------------------------------------------------------------------
      1        6           0.000001700    0.000059421    0.000000000
      2        7           0.000008189   -0.000016202    0.000000000
      3        7          -0.000004381   -0.000014445    0.000000000
      4        7           0.000008274   -0.000008957    0.000000000
      5        7          -0.000013999   -0.000019895    0.000000000
      6        1          -0.000000044    0.000000752    0.000000000
      7        1           0.000000261   -0.000000675    0.000000000
 -------------------------------------------------------------------
 Cartesian Forces:  Max     0.000059421 RMS     0.000015170
 -----------------------------------------------------------------------------------------------
                       Internal Coordinate Forces (Hartree/Bohr or radian)
  Cent   Atom   N1       Length/X         N2         Alpha/Y        N3         Beta/Z          J
 -----------------------------------------------------------------------------------------------
         X 
         X        1   0.000000(     1)
      1  C        1   0.000001(     2)      2   0.000000(     9)
      2  N        1   0.000019(     3)      2   0.000000(    10)      3  -0.000005(    16)     0
      3  N        1   0.000014(     4)      2   0.000000(    11)      3  -0.000013(    17)     0
      4  N        1  -0.000009(     5)      2   0.000000(    12)      3  -0.000018(    18)     0
      5  N        1  -0.000020(     6)      2   0.000000(    13)      3  -0.000023(    19)     0
      6  H        3   0.000000(     7)      4   0.000002(    14)      5   0.000000(    20)     0
      7  H        4   0.000001(     8)      5   0.000000(    15)      6   0.000000(    21)     0
 -----------------------------------------------------------------------------------------------
 Internal  Forces:  Max     0.000022918 RMS     0.000009989
 Force constants in Cartesian coordinates: 
                1             2             3             4             5 
      1  0.885448D+00
      2  0.562582D-01  0.575327D+00
      3  0.000000D+00  0.000000D+00  0.131037D+00
      4 -0.137514D+00 -0.553929D-01  0.000000D+00  0.545164D+00
      5 -0.872515D-01 -0.277852D+00  0.000000D+00 -0.147864D+00  0.905895D+00
      6  0.000000D+00  0.000000D+00 -0.593991D-01  0.000000D+00  0.000000D+00
      7 -0.791937D-01 -0.951619D-01  0.000000D+00 -0.188993D+00 -0.424321D-01
      8 -0.463108D-02 -0.327066D-01  0.000000D+00 -0.140819D-01 -0.997151D-01
      9  0.000000D+00  0.000000D+00  0.203224D-01  0.000000D+00  0.000000D+00
     10 -0.118097D+00  0.509349D-01  0.000000D+00 -0.906259D-01  0.367230D-01
     11 -0.430459D-01  0.248742D-01  0.000000D+00  0.109185D+00 -0.769722D-01
     12  0.000000D+00  0.000000D+00  0.184688D-01  0.000000D+00  0.000000D+00
     13 -0.238611D+00  0.123640D+00  0.000000D+00  0.103899D-01  0.918454D-01
     14  0.128394D+00 -0.218305D+00  0.000000D+00 -0.131444D-01 -0.904487D-01
     15  0.000000D+00  0.000000D+00 -0.749636D-01  0.000000D+00  0.000000D+00
     16 -0.327155D+00 -0.709823D-01  0.000000D+00  0.700408D-03  0.241461D-02
     17 -0.665866D-01 -0.673525D-01  0.000000D+00 -0.303958D-01 -0.924834D-03
     18  0.000000D+00  0.000000D+00 -0.268382D-01  0.000000D+00  0.000000D+00
     19  0.151237D-01 -0.929586D-02  0.000000D+00 -0.139121D+00  0.146565D+00
     20  0.168624D-01 -0.398588D-02  0.000000D+00  0.151695D+00 -0.359982D+00
     21  0.000000D+00  0.000000D+00 -0.862701D-02  0.000000D+00  0.000000D+00
                6             7             8             9            10 
      6  0.881130D-01
      7  0.000000D+00  0.395368D+00
      8  0.000000D+00  0.643765D-01  0.528141D+00
      9 -0.653742D-01  0.000000D+00  0.000000D+00  0.109272D+00
     10  0.000000D+00 -0.108575D+00  0.159986D-01  0.000000D+00  0.480650D+00
     11  0.000000D+00  0.721480D-01 -0.288179D+00  0.000000D+00 -0.961936D-01
     12  0.250364D-01  0.000000D+00  0.000000D+00 -0.923261D-01  0.000000D+00
     13  0.000000D+00 -0.172805D-01 -0.962115D-01  0.000000D+00 -0.150047D+00
     14  0.000000D+00  0.201317D-02 -0.107458D+00  0.000000D+00 -0.756947D-02
     15  0.207589D-01  0.000000D+00  0.000000D+00  0.338994D-01  0.000000D+00
     16  0.000000D+00 -0.141896D-03  0.339118D-02  0.000000D+00 -0.220985D-02
     17  0.000000D+00 -0.532329D-03 -0.628479D-02  0.000000D+00  0.625478D-02
     18 -0.264735D-02  0.000000D+00  0.000000D+00  0.567189D-02  0.000000D+00
     19  0.000000D+00 -0.118458D-02  0.311582D-01  0.000000D+00 -0.110959D-01
     20  0.000000D+00 -0.411322D-03  0.620181D-02  0.000000D+00 -0.614827D-02
     21 -0.648762D-02  0.000000D+00  0.000000D+00 -0.114655D-01  0.000000D+00
               11            12            13            14            15 
     11  0.441088D+00
     12  0.000000D+00  0.118534D+00
     13 -0.458694D-01  0.000000D+00  0.411022D+00
     14 -0.993975D-01  0.000000D+00 -0.939260D-01  0.508147D+00
     15  0.000000D+00 -0.858221D-01  0.000000D+00  0.000000D+00  0.104308D+00
     16 -0.151934D-03  0.000000D+00 -0.133074D-01 -0.631932D-02  0.000000D+00
     17 -0.235623D-02  0.000000D+00  0.189075D-01  0.122573D-01  0.000000D+00
     18  0.000000D+00  0.844209D-02  0.000000D+00  0.000000D+00 -0.492615D-02
     19  0.392838D-02  0.000000D+00 -0.216583D-02 -0.944849D-02  0.000000D+00
     20  0.942001D-03  0.000000D+00  0.161422D-02 -0.479571D-02  0.000000D+00
     21  0.000000D+00  0.766691D-02  0.000000D+00  0.000000D+00  0.674601D-02
               16            17            18            19            20 
     16  0.342512D+00
     17  0.721685D-01  0.649374D-01
     18  0.000000D+00  0.000000D+00  0.210965D-01
     19 -0.397812D-03  0.184003D-03  0.000000D+00  0.138842D+00
     20 -0.520688D-03 -0.276411D-03  0.000000D+00 -0.163091D+00  0.361897D+00
     21  0.000000D+00  0.000000D+00 -0.798740D-03  0.000000D+00  0.000000D+00
               21 
     21  0.129659D-01
 Force constants in internal coordinates: 
                1             2             3             4             5 
      1  0.000000D+00
      2  0.000000D+00  0.597409D+00
      3  0.000000D+00 -0.777347D-02  0.550277D+00
      4  0.000000D+00  0.552658D-01 -0.538795D-01  0.535178D+00
      5  0.000000D+00  0.122593D+00  0.606323D-01 -0.299359D-01  0.491792D+00
      6  0.000000D+00  0.116624D+00  0.955525D-01  0.784412D-01 -0.802092D-03
      7  0.000000D+00  0.152743D-01 -0.289214D-02 -0.170391D-02  0.646252D-03
      8  0.000000D+00 -0.774849D-02  0.129439D-01 -0.762711D-02 -0.184766D-03
      9  0.000000D+00  0.000000D+00  0.000000D+00  0.000000D+00  0.000000D+00
     10  0.000000D+00  0.000000D+00  0.000000D+00  0.000000D+00  0.000000D+00
     11  0.000000D+00  0.000000D+00  0.000000D+00  0.000000D+00  0.000000D+00
     12  0.000000D+00  0.000000D+00  0.000000D+00  0.000000D+00  0.000000D+00
     13  0.000000D+00  0.000000D+00  0.000000D+00  0.000000D+00  0.000000D+00
     14  0.000000D+00 -0.687836D-01  0.336068D-01  0.123480D-01 -0.137649D-01
     15  0.000000D+00  0.393775D-01 -0.483521D-01  0.174915D-01  0.247240D-01
     16  0.000000D+00  0.336374D+00  0.120677D+00 -0.324488D+00 -0.223537D+00
     17  0.000000D+00  0.161865D+00  0.208188D+00 -0.911808D-01 -0.321485D+00
     18  0.000000D+00 -0.105394D+00  0.228332D+00  0.428600D+00  0.201350D+00
     19  0.000000D+00 -0.425266D+00 -0.110654D+00  0.142579D+00  0.235134D+00
     20  0.000000D+00  0.000000D+00  0.000000D+00  0.000000D+00  0.000000D+00
     21  0.000000D+00  0.000000D+00  0.000000D+00  0.000000D+00  0.000000D+00
                6             7             8             9            10 
      6  0.511338D+00
      7 -0.313625D-02  0.360149D+00
      8 -0.138884D-03  0.343702D-03  0.447946D+00
      9  0.000000D+00  0.000000D+00  0.000000D+00  0.346122D+00
     10  0.000000D+00  0.000000D+00  0.000000D+00 -0.361122D+00  0.606690D+00
     11  0.000000D+00  0.000000D+00  0.000000D+00  0.120419D+00 -0.541557D+00
     12  0.000000D+00  0.000000D+00  0.000000D+00  0.145432D+00  0.177289D+00
     13  0.000000D+00  0.000000D+00  0.000000D+00 -0.244811D+00  0.108909D+00
     14  0.266812D-01  0.262959D-02  0.527000D-03  0.000000D+00  0.000000D+00
     15 -0.202782D-01 -0.109500D-02 -0.937229D-03  0.000000D+00  0.000000D+00
     16  0.136340D+00  0.130878D-01 -0.145264D-01  0.000000D+00  0.000000D+00
     17 -0.162187D+00  0.415031D-02  0.154824D-01  0.000000D+00  0.000000D+00
     18 -0.213241D+00 -0.159215D-02  0.219783D-02  0.000000D+00  0.000000D+00
     19 -0.147372D+00 -0.137148D-01 -0.390426D-02  0.000000D+00  0.000000D+00
     20  0.000000D+00  0.000000D+00  0.000000D+00 -0.249952D-02  0.261750D-01
     21  0.000000D+00  0.000000D+00  0.000000D+00 -0.300340D-01  0.367317D-01
               11            12            13            14            15 
     11  0.795070D+00
     12 -0.545365D+00  0.532614D+00
     13  0.180059D+00 -0.312637D+00  0.266474D+00
     14  0.000000D+00  0.000000D+00  0.000000D+00  0.198524D+00
     15  0.000000D+00  0.000000D+00  0.000000D+00  0.673392D-03  0.194196D+00
     16  0.000000D+00  0.000000D+00  0.000000D+00  0.110461D-02 -0.308074D-01
     17  0.000000D+00  0.000000D+00  0.000000D+00 -0.207095D-01 -0.145922D-01
     18  0.000000D+00  0.000000D+00  0.000000D+00 -0.824999D-02  0.130965D-01
     19  0.000000D+00  0.000000D+00  0.000000D+00  0.711208D-01 -0.411010D-02
     20 -0.435618D-01  0.327160D-01 -0.132488D-01  0.000000D+00  0.000000D+00
     21 -0.200445D-01 -0.505870D-02  0.178271D-01  0.000000D+00  0.000000D+00
               16            17            18            19            20 
     16  0.262499D+01
     17 -0.104394D+01  0.285160D+01
     18 -0.393860D+00 -0.131633D+01  0.200605D+01
     19 -0.221544D+00 -0.185303D+00 -0.194395D+00  0.104198D+01
     20  0.000000D+00  0.000000D+00  0.000000D+00  0.000000D+00  0.597245D-01
     21  0.000000D+00  0.000000D+00  0.000000D+00  0.000000D+00 -0.222187D-02
               21 
     21  0.354402D-01
 Leave Link  716 at Mon Nov 25 17:40:28 2013, MaxMem=   436000000 cpu:         0.3
 (Enter /usr/local/gaussian/g09.d01.em64t.legacy.linda/g09/l103.exe)

 GradGradGradGradGradGradGradGradGradGradGradGradGradGradGradGradGradGrad
 Berny optimization.
 Search for a local minimum.
 Step number   1 out of a maximum of    2
 All quantities printed in internal units (Hartrees-Bohrs-Radians)
 Second derivative matrix not updated -- analytic derivatives used.
 The second derivative matrix:
                          rn1       rn2       rn3       rn4       rch
           rn1          0.55028
           rn2         -0.05388   0.53518
           rn3          0.06063  -0.02994   0.49179
           rn4          0.09555   0.07844  -0.00080   0.51134
           rch         -0.00289  -0.00170   0.00065  -0.00314   0.36015
           rnh          0.01294  -0.00763  -0.00018  -0.00014   0.00034
           an1          0.12068  -0.32449  -0.22354   0.13634   0.01309
           an2          0.20819  -0.09118  -0.32149  -0.16219   0.00415
           an3          0.22833   0.42860   0.20135  -0.21324  -0.00159
           an4         -0.11065   0.14258   0.23513  -0.14737  -0.01371
           ach          0.03361   0.01235  -0.01376   0.02668   0.00263
           anh         -0.04835   0.01749   0.02472  -0.02028  -0.00110
                          rnh       an1       an2       an3       an4
           rnh          0.44795
           an1         -0.01453   2.62499
           an2          0.01548  -1.04394   2.85160
           an3          0.00220  -0.39386  -1.31633   2.00605
           an4         -0.00390  -0.22154  -0.18530  -0.19439   1.04198
           ach          0.00053   0.00110  -0.02071  -0.00825   0.07112
           anh         -0.00094  -0.03081  -0.01459   0.01310  -0.00411
                          ach       anh
           ach          0.19852
           anh          0.00067   0.19420
 ITU=  0
     Eigenvalues ---    0.00003   0.14671   0.19355   0.26021   0.36030
     Eigenvalues ---    0.44707   0.58082   0.62422   0.72808   1.37312
     Eigenvalues ---    2.95742   4.14248
 Quadratic step=1.638D+00 exceeds max=3.000D-01 adjusted using Lamda=-1.174D-04.
 Angle between NR and scaled steps=   0.00 degrees.
 Angle between quadratic step and forces=  19.16 degrees.
 Linear search not attempted -- first point.
 Variable       Old X    -DE/DX   Delta X   Delta X   Delta X     New X
                                 (Linear)    (Quad)   (Total)
   rn1        2.56386   0.00002   0.00000   0.13137   0.13137   2.69522
   rn2        2.76692   0.00001   0.00000   0.11589   0.11589   2.88280
   rn3        2.16006  -0.00001   0.00000  -0.00828  -0.00828   2.15178
   rn4        1.59844  -0.00002   0.00000  -0.14180  -0.14180   1.45664
   rch        2.04868   0.00000   0.00000   0.00003   0.00003   2.04871
   rnh        1.91794   0.00000   0.00000   0.00001   0.00001   1.91795
   an1        1.18519   0.00000   0.00000  -0.05424  -0.05424   1.13095
   an2        2.18534  -0.00001   0.00000  -0.10466  -0.10466   2.08068
   an3        3.20035  -0.00002   0.00000  -0.14069  -0.14069   3.05966
   an4        4.69525  -0.00002   0.00000  -0.07650  -0.07650   4.61875
   ach        2.17792   0.00000   0.00000  -0.00001  -0.00001   2.17790
   anh        2.10240   0.00000   0.00000  -0.00008  -0.00008   2.10232
         Item               Value     Threshold  Converged?
 Maximum Force            0.000023     0.000450     YES
 RMS     Force            0.000013     0.000300     YES
 Maximum Displacement     0.141798     0.001800     NO 
 RMS     Displacement     0.086796     0.001200     NO 
 Predicted change in Energy=-1.180444D-05
 GradGradGradGradGradGradGradGradGradGradGradGradGradGradGradGradGradGrad

 Leave Link  103 at Mon Nov 25 17:40:28 2013, MaxMem=   436000000 cpu:         0.1
 (Enter /usr/local/gaussian/g09.d01.em64t.legacy.linda/g09/l9999.exe)
 1\1\GINC-N238\Freq\RPBEPBE\CC-pVTZ\C1H2N4\RDJ3\25-Nov-2013\1\\#P Geom=
 AllCheck Guess=TCheck SCRF=Check GenChk RPBEPBE/CC-pVTZ Freq\\1H-tetra
 zole CH2N4 casno=288948 state=1 config=1 method=61 basis=6\\0,1\X\X,1,
 1.\C,1,1.,2,90.\N,1,rn1,2,90.,3,an1,0\N,1,rn2,2,90.,3,an2,0\N,1,rn3,2,
 90.,3,an3,0\N,1,rn4,2,90.,3,an4,0\H,3,rch,4,ach,5,180.,0\H,4,rnh,5,anh
 ,6,180.,0\\rn1=1.35673467\rn2=1.46418916\rn3=1.14305425\rn4=0.8458561\
 rch=1.08411484\rnh=1.0149288\an1=67.90659213\an2=125.21053172\an3=183.
 36658129\an4=269.01789393\ach=124.78536073\anh=120.45863043\\Version=E
 M64L-G09RevD.01\State=1-A'\HF=-258.0708471\RMSD=6.472e-09\RMSF=1.517e-
 05\ZeroPoint=0.0452334\Thermal=0.0487736\Dipole=1.7307877,-1.063706,0.
 \DipoleDeriv=0.1650022,0.0483375,0.,-0.0996478,0.4074118,0.,0.,0.,0.05
 20654,-0.242889,0.2672301,0.,0.2116622,-0.2234284,0.,0.,0.,-0.0945476,
 0.1900963,-0.3239814,0.,-0.2584674,-0.253635,0.,0.,0.,-0.1020431,-0.01
 55081,0.1500326,0.,0.2020172,0.0359166,0.,0.,0.,-0.1432467,-0.3196634,
 -0.1179335,0.,-0.0494835,-0.3102818,0.,0.,0.,-0.1961414,0.0419915,0.00
 08661,0.,-0.000609,0.1134005,0.,0.,0.,0.1719406,0.1809706,-0.0245514,0
 .,-0.0054717,0.2306163,0.,0.,0.,0.3119728\Polar=43.7919649,-0.1659393,
 41.817688,0.,0.,21.1537746\PG=CS [SG(C1H2N4)]\NImag=0\\0.88544758,0.05
 625825,0.57532704,0.,0.,0.13103675,-0.13751419,-0.05539286,0.,0.545163
 98,-0.08725149,-0.27785173,0.,-0.14786404,0.90589499,0.,0.,-0.05939910
 ,0.,0.,0.08811297,-0.07919374,-0.09516194,0.,-0.18899277,-0.04243210,0
 .,0.39536830,-0.00463108,-0.03270657,0.,-0.01408191,-0.09971508,0.,0.0
 6437651,0.52814108,0.,0.,0.02032240,0.,0.,-0.06537415,0.,0.,0.10927205
 ,-0.11809706,0.05093493,0.,-0.09062594,0.03672303,0.,-0.10857480,0.015
 99863,0.,0.48065046,-0.04304593,0.02487424,0.,0.10918454,-0.07697223,0
 .,0.07214801,-0.28817864,0.,-0.09619362,0.44108838,0.,0.,0.01846880,0.
 ,0.,0.02503637,0.,0.,-0.09232610,0.,0.,0.11853403,-0.23861141,0.123639
 83,0.,0.01038991,0.09184538,0.,-0.01728051,-0.09621155,0.,-0.15004693,
 -0.04586945,0.,0.41102220,0.12839446,-0.21830465,0.,-0.01314439,-0.090
 44868,0.,0.00201317,-0.10745782,0.,-0.00756947,-0.09939753,0.,-0.09392
 596,0.50814708,0.,0.,-0.07496365,0.,0.,0.02075888,0.,0.,0.03389942,0.,
 0.,-0.08582210,0.,0.,0.10430759,-0.32715494,-0.07098234,0.,0.00070041,
 0.00241461,0.,-0.00014190,0.00339118,0.,-0.00220985,-0.00015193,0.,-0.
 01330743,-0.00631932,0.,0.34251152,-0.06658662,-0.06735246,0.,-0.03039
 585,-0.00092483,0.,-0.00053233,-0.00628479,0.,0.00625478,-0.00235623,0
 .,0.01890752,0.01225729,0.,0.07216850,0.06493743,0.,0.,-0.02683820,0.,
 0.,-0.00264735,0.,0.,0.00567189,0.,0.,0.00844209,0.,0.,-0.00492615,0.,
 0.,0.02109647,0.01512375,-0.00929586,0.,-0.13912141,0.14656461,0.,-0.0
 0118458,0.03115821,0.,-0.01109588,0.00392838,0.,-0.00216583,-0.0094484
 9,0.,-0.00039781,0.00018400,0.,0.13884176,0.01686242,-0.00398588,0.,0.
 15169451,-0.35998244,0.,-0.00041132,0.00620181,0.,-0.00614827,0.000942
 00,0.,0.00161422,-0.00479571,0.,-0.00052069,-0.00027641,0.,-0.16309086
 ,0.36189662,0.,0.,-0.00862701,0.,0.,-0.00648762,0.,0.,-0.01146550,0.,0
 .,0.00766691,0.,0.,0.00674601,0.,0.,-0.00079874,0.,0.,0.01296594\\-0.0
 0000170,-0.00005942,0.,-0.00000819,0.00001620,0.,0.00000438,0.00001444
 ,0.,-0.00000827,0.00000896,0.,0.00001400,0.00001989,0.,0.00000004,-0.0
 0000075,0.,-0.00000026,0.00000067,0.\\\@


 NOTHING RESEMBLES A NEW PHENOMENON AS MUCH AS A MISTAKE.

                               -- ENRICO FERMI (?)
 Job cpu time:       0 days  0 hours  8 minutes 58.8 seconds.
 File lengths (MBytes):  RWF=     24 Int=      0 D2E=      0 Chk=      3 Scr=      1
 Normal termination of Gaussian 09 at Mon Nov 25 17:40:28 2013.
