 Entering Gaussian System, Link 0=g09
 Initial command:
 /usr/local/gaussian/g09.d01.em64t.legacy.linda/g09/l1.exe "/tmp/rdj3/g09-20196/Gau-22904.inp" -scrdir="/tmp/rdj3/g09-20196/"
 Entering Link 1 = /usr/local/gaussian/g09.d01.em64t.legacy.linda/g09/l1.exe PID=     22905.
  
 Copyright (c) 1988,1990,1992,1993,1995,1998,2003,2009,2013,
            Gaussian, Inc.  All Rights Reserved.
  
 This is part of the Gaussian(R) 09 program.  It is based on
 the Gaussian(R) 03 system (copyright 2003, Gaussian, Inc.),
 the Gaussian(R) 98 system (copyright 1998, Gaussian, Inc.),
 the Gaussian(R) 94 system (copyright 1995, Gaussian, Inc.),
 the Gaussian 92(TM) system (copyright 1992, Gaussian, Inc.),
 the Gaussian 90(TM) system (copyright 1990, Gaussian, Inc.),
 the Gaussian 88(TM) system (copyright 1988, Gaussian, Inc.),
 the Gaussian 86(TM) system (copyright 1986, Carnegie Mellon
 University), and the Gaussian 82(TM) system (copyright 1983,
 Carnegie Mellon University). Gaussian is a federally registered
 trademark of Gaussian, Inc.
  
 This software contains proprietary and confidential information,
 including trade secrets, belonging to Gaussian, Inc.
  
 This software is provided under written license and may be
 used, copied, transmitted, or stored only in accord with that
 written license.
  
 The following legend is applicable only to US Government
 contracts under FAR:
  
                    RESTRICTED RIGHTS LEGEND
  
 Use, reproduction and disclosure by the US Government is
 subject to restrictions as set forth in subparagraphs (a)
 and (c) of the Commercial Computer Software - Restricted
 Rights clause in FAR 52.227-19.
  
 Gaussian, Inc.
 340 Quinnipiac St., Bldg. 40, Wallingford CT 06492
  
  
 ---------------------------------------------------------------
 Warning -- This program may not be used in any manner that
 competes with the business of Gaussian, Inc. or will provide
 assistance to any competitor of Gaussian, Inc.  The licensee
 of this program is prohibited from giving any competitor of
 Gaussian, Inc. access to this program.  By using this program,
 the user acknowledges that Gaussian, Inc. is engaged in the
 business of creating and licensing software in the field of
 computational chemistry and represents and warrants to the
 licensee that it is not a competitor of Gaussian, Inc. and that
 it will not use this program in any manner prohibited above.
 ---------------------------------------------------------------
  

 Cite this work as:
 Gaussian 09, Revision D.01,
 M. J. Frisch, G. W. Trucks, H. B. Schlegel, G. E. Scuseria, 
 M. A. Robb, J. R. Cheeseman, G. Scalmani, V. Barone, B. Mennucci, 
 G. A. Petersson, H. Nakatsuji, M. Caricato, X. Li, H. P. Hratchian, 
 A. F. Izmaylov, J. Bloino, G. Zheng, J. L. Sonnenberg, M. Hada, 
 M. Ehara, K. Toyota, R. Fukuda, J. Hasegawa, M. Ishida, T. Nakajima, 
 Y. Honda, O. Kitao, H. Nakai, T. Vreven, J. A. Montgomery, Jr., 
 J. E. Peralta, F. Ogliaro, M. Bearpark, J. J. Heyd, E. Brothers, 
 K. N. Kudin, V. N. Staroverov, T. Keith, R. Kobayashi, J. Normand, 
 K. Raghavachari, A. Rendell, J. C. Burant, S. S. Iyengar, J. Tomasi, 
 M. Cossi, N. Rega, J. M. Millam, M. Klene, J. E. Knox, J. B. Cross, 
 V. Bakken, C. Adamo, J. Jaramillo, R. Gomperts, R. E. Stratmann, 
 O. Yazyev, A. J. Austin, R. Cammi, C. Pomelli, J. W. Ochterski, 
 R. L. Martin, K. Morokuma, V. G. Zakrzewski, G. A. Voth, 
 P. Salvador, J. J. Dannenberg, S. Dapprich, A. D. Daniels, 
 O. Farkas, J. B. Foresman, J. V. Ortiz, J. Cioslowski, 
 and D. J. Fox, Gaussian, Inc., Wallingford CT, 2013.
 
 ******************************************
 Gaussian 09:  EM64L-G09RevD.01 24-Apr-2013
                16-Dec-2013 
 ******************************************
 %Nproc=8
 Will use up to    8 processors via shared memory.
 %mem=436000000
 ----------------------
 #PBEPBE/6-31G opt freq
 ----------------------
 1/14=-1,18=20,19=15,26=3,38=1/1,3;
 2/9=110,12=2,17=6,18=5,40=1/2;
 3/5=1,6=6,11=2,16=1,25=1,30=1,71=1,74=1009/1,2,3;
 4//1;
 5/5=2,38=5/2;
 6/7=2,8=2,9=2,10=2,28=1/1;
 7//1,2,3,16;
 1/14=-1,18=20,19=15,26=3/3(2);
 2/9=110/2;
 99//99;
 2/9=110/2;
 3/5=1,6=6,11=2,16=1,25=1,30=1,71=1,74=1009/1,2,3;
 4/5=5,16=3,69=1/1;
 5/5=2,38=5/2;
 7//1,2,3,16;
 1/14=-1,18=20,19=15,26=3/3(-5);
 2/9=110/2;
 6/7=2,8=2,9=2,10=2,19=2,28=1/1;
 99/9=1/99;
 Leave Link    1 at Mon Dec 16 15:02:12 2013, MaxMem=   436000000 cpu:         0.3
 (Enter /usr/local/gaussian/g09.d01.em64t.legacy.linda/g09/l101.exe)
 ------------------------------------------------------------------
 1H-tetrazole CH2N4 casno=288948 state=1 config=1 method=61 basis=9
 ------------------------------------------------------------------
 Symbolic Z-matrix:
 Charge =  0 Multiplicity = 1
 X
 X                    1     1. 
 C                    1     1.       2     90. 
 N                    1    rn1      2     90.      3    an1      0
 N                    1    rn2      2     90.      3    an2      0
 N                    1    rn3      2     90.      3    an3      0
 N                    1    rn4      2     90.      3    an4      0
 H                    3    rch      4    ach      5     180.     0
 H                    4    rnh      5    anh      6     180.     0
       Variables:
  rn1                   1.2426                   
  rn2                   1.333                    
  rn3                   1.1146                   
  rn4                   0.9264                   
  rch                   1.0678                   
  rnh                   0.9941                   
  an1                  71.8427                   
  an2                 133.7028                   
  an3                 194.4597                   
  an4                 276.0768                   
  ach                 125.0248                   
  anh                 120.7626                   
 
 NAtoms=      7 NQM=        7 NQMF=       0 NMMI=      0 NMMIF=      0
                NMic=       0 NMicF=      0.
                    Isotopes and Nuclear Properties:
 (Nuclear quadrupole moments (NQMom) in fm**2, nuclear magnetic moments (NMagM)
  in nuclear magnetons)

  Atom         1           2           3           4           5           6           7
 IAtWgt=          12          14          14          14          14           1           1
 AtmWgt=  12.0000000  14.0030740  14.0030740  14.0030740  14.0030740   1.0078250   1.0078250
 NucSpn=           0           2           2           2           2           1           1
 AtZEff=   0.0000000   0.0000000   0.0000000   0.0000000   0.0000000   0.0000000   0.0000000
 NQMom=    0.0000000   2.0440000   2.0440000   2.0440000   2.0440000   0.0000000   0.0000000
 NMagM=    0.0000000   0.4037610   0.4037610   0.4037610   0.4037610   2.7928460   2.7928460
 AtZNuc=   6.0000000   7.0000000   7.0000000   7.0000000   7.0000000   1.0000000   1.0000000
 Leave Link  101 at Mon Dec 16 15:02:12 2013, MaxMem=   436000000 cpu:         1.8
 (Enter /usr/local/gaussian/g09.d01.em64t.legacy.linda/g09/l103.exe)

 GradGradGradGradGradGradGradGradGradGradGradGradGradGradGradGradGradGrad
 Berny optimization.
 Initialization pass.
                           ----------------------------
                           !    Initial Parameters    !
                           ! (Angstroms and Degrees)  !
 --------------------------                            --------------------------
 ! Name  Definition              Value          Derivative Info.                !
 --------------------------------------------------------------------------------
 ! R1    R(1,2)                  1.3303         estimate D2E/DX2                !
 ! R2    R(1,5)                  1.2892         estimate D2E/DX2                !
 ! R3    R(1,6)                  1.0678         estimate D2E/DX2                !
 ! R4    R(2,3)                  1.3261         estimate D2E/DX2                !
 ! R5    R(2,7)                  0.9941         estimate D2E/DX2                !
 ! R6    R(3,4)                  1.252          estimate D2E/DX2                !
 ! R7    R(4,5)                  1.3414         estimate D2E/DX2                !
 ! A1    A(2,1,5)              108.177          estimate D2E/DX2                !
 ! A2    A(2,1,6)              125.0248         estimate D2E/DX2                !
 ! A3    A(5,1,6)              126.7982         estimate D2E/DX2                !
 ! A4    A(1,2,3)              108.008          estimate D2E/DX2                !
 ! A5    A(1,2,7)              131.2294         estimate D2E/DX2                !
 ! A6    A(3,2,7)              120.7626         estimate D2E/DX2                !
 ! A7    A(2,3,4)              106.684          estimate D2E/DX2                !
 ! A8    A(3,4,5)              111.3724         estimate D2E/DX2                !
 ! A9    A(1,5,4)              105.7586         estimate D2E/DX2                !
 ! D1    D(5,1,2,3)              0.0            estimate D2E/DX2                !
 ! D2    D(5,1,2,7)            180.0            estimate D2E/DX2                !
 ! D3    D(6,1,2,3)            180.0            estimate D2E/DX2                !
 ! D4    D(6,1,2,7)              0.0            estimate D2E/DX2                !
 ! D5    D(2,1,5,4)              0.0            estimate D2E/DX2                !
 ! D6    D(6,1,5,4)            180.0            estimate D2E/DX2                !
 ! D7    D(1,2,3,4)              0.0            estimate D2E/DX2                !
 ! D8    D(7,2,3,4)            180.0            estimate D2E/DX2                !
 ! D9    D(2,3,4,5)              0.0            estimate D2E/DX2                !
 ! D10   D(3,4,5,1)              0.0            estimate D2E/DX2                !
 --------------------------------------------------------------------------------
 Trust Radius=3.00D-01 FncErr=1.00D-07 GrdErr=1.00D-06
 Number of steps in this run=     36 maximum allowed number of steps=    100.
 GradGradGradGradGradGradGradGradGradGradGradGradGradGradGradGradGradGrad

 Leave Link  103 at Mon Dec 16 15:02:12 2013, MaxMem=   436000000 cpu:         0.1
 (Enter /usr/local/gaussian/g09.d01.em64t.legacy.linda/g09/l202.exe)
                          Input orientation:                          
 ---------------------------------------------------------------------
 Center     Atomic      Atomic             Coordinates (Angstroms)
 Number     Number       Type             X           Y           Z
 ---------------------------------------------------------------------
      1          6           0        1.000000    0.000000    0.000000
      2          7           0        0.387228   -1.180724    0.000000
      3          7           0       -0.920993   -0.963670    0.000000
      4          7           0       -1.079293    0.278314    0.000000
      5          7           0        0.098070    0.921194    0.000000
      6          1           0        2.058429    0.141157    0.000000
      7          1           0        0.749017   -2.106652    0.000000
 ---------------------------------------------------------------------
                    Distance matrix (angstroms):
                    1          2          3          4          5
     1  C    0.000000
     2  N    1.330263   0.000000
     3  N    2.149157   1.326105   0.000000
     4  N    2.097837   2.068690   1.252032   0.000000
     5  N    1.289216   2.121715   2.142710   1.341447   0.000000
     6  H    1.067800   2.130794   3.177672   3.140719   2.109850
     7  H    2.121551   0.994100   2.023695   3.005127   3.097029
                    6          7
     6  H    0.000000
     7  H    2.601385   0.000000
 Stoichiometry    CH2N4
 Framework group  CS[SG(CH2N4)]
 Deg. of freedom    11
 Full point group                 CS      NOp   2
 Largest Abelian subgroup         CS      NOp   2
 Largest concise Abelian subgroup C1      NOp   1
                         Standard orientation:                         
 ---------------------------------------------------------------------
 Center     Atomic      Atomic             Coordinates (Angstroms)
 Number     Number       Type             X           Y           Z
 ---------------------------------------------------------------------
      1          6           0        1.052733    0.225621    0.000000
      2          7           0        0.000000    1.038857    0.000000
      3          7           0       -1.095416    0.291448    0.000000
      4          7           0       -0.716382   -0.901832    0.000000
      5          7           0        0.622191   -0.989579    0.000000
      6          1           0        2.072287    0.542964    0.000000
      7          1           0       -0.061439    2.031056    0.000000
 ---------------------------------------------------------------------
 Rotational constants (GHZ):     10.9201517     10.7345054      5.4132664
 Leave Link  202 at Mon Dec 16 15:02:12 2013, MaxMem=   436000000 cpu:         0.0
 (Enter /usr/local/gaussian/g09.d01.em64t.legacy.linda/g09/l301.exe)
 Standard basis: 6-31G (6D, 7F)
 Ernie: Thresh=  0.10000D-02 Tol=  0.10000D-05 Strict=F.
 There are    39 symmetry adapted cartesian basis functions of A'  symmetry.
 There are    10 symmetry adapted cartesian basis functions of A"  symmetry.
 There are    39 symmetry adapted basis functions of A'  symmetry.
 There are    10 symmetry adapted basis functions of A"  symmetry.
    49 basis functions,   118 primitive gaussians,    49 cartesian basis functions
    18 alpha electrons       18 beta electrons
       nuclear repulsion energy       169.8308489506 Hartrees.
 IExCor= 1009 DFT=T Ex=PBE Corr=PBE ExCW=0 ScaHFX=  0.000000
 ScaDFX=  1.000000  1.000000  1.000000  1.000000 ScalE2=  1.000000  1.000000
 IRadAn=      0 IRanWt=     -1 IRanGd=            0 ICorTp=0 IEmpDi=  4
 NAtoms=    7 NActive=    7 NUniq=    7 SFac= 1.00D+00 NAtFMM=   60 NAOKFM=F Big=F
 Integral buffers will be    131072 words long.
 Raffenetti 2 integral format.
 Two-electron integral symmetry is turned on.
 Leave Link  301 at Mon Dec 16 15:02:12 2013, MaxMem=   436000000 cpu:         0.4
 (Enter /usr/local/gaussian/g09.d01.em64t.legacy.linda/g09/l302.exe)
 NPDir=0 NMtPBC=     1 NCelOv=     1 NCel=       1 NClECP=     1 NCelD=      1
         NCelK=      1 NCelE2=     1 NClLst=     1 CellRange=     0.0.
 One-electron integrals computed using PRISM.
 NBasis=    49 RedAO= T EigKep=  6.07D-03  NBF=    39    10
 NBsUse=    49 1.00D-06 EigRej= -1.00D+00 NBFU=    39    10
 Precomputing XC quadrature grid using
 IXCGrd= 4 IRadAn=           0 IRanWt=          -1 IRanGd=           0 AccXCQ= 0.00D+00.
 Generated NRdTot=       0 NPtTot=           0 NUsed=           0 NTot=          32
 NSgBfM=    49    49    49    49    49 MxSgAt=     7 MxSgA2=     7.
 Leave Link  302 at Mon Dec 16 15:02:13 2013, MaxMem=   436000000 cpu:         1.8
 (Enter /usr/local/gaussian/g09.d01.em64t.legacy.linda/g09/l303.exe)
 DipDrv:  MaxL=1.
 Leave Link  303 at Mon Dec 16 15:02:13 2013, MaxMem=   436000000 cpu:         0.2
 (Enter /usr/local/gaussian/g09.d01.em64t.legacy.linda/g09/l401.exe)
 ExpMin= 1.61D-01 ExpMax= 4.17D+03 ExpMxC= 6.27D+02 IAcc=1 IRadAn=         1 AccDes= 0.00D+00
 Harris functional with IExCor= 1009 and IRadAn=       1 diagonalized for initial guess.
 HarFok:  IExCor= 1009 AccDes= 0.00D+00 IRadAn=         1 IDoV= 1 UseB2=F ITyADJ=14
 ICtDFT=  3500011 ScaDFX=  1.000000  1.000000  1.000000  1.000000
 FoFCou: FMM=F IPFlag=           0 FMFlag=      100000 FMFlg1=           0
         NFxFlg=           0 DoJE=T BraDBF=F KetDBF=T FulRan=T
         wScrn=  0.000000 ICntrl=     500 IOpCl=  0 I1Cent=   200000004 NGrid=           0
         NMat0=    1 NMatS0=      1 NMatT0=    0 NMatD0=    1 NMtDS0=    0 NMtDT0=    0
 Petite list used in FoFCou.
 Harris En= -257.872650395347    
 JPrj=0 DoOrth=F DoCkMO=F.
 Initial guess orbital symmetries:
       Occupied  (A') (A') (A') (A') (A') (A') (A') (A') (A') (A')
                 (A') (A') (A") (A') (A") (A') (A") (A')
       Virtual   (A") (A") (A') (A') (A') (A') (A') (A') (A') (A")
                 (A') (A') (A') (A') (A") (A') (A') (A") (A') (A")
                 (A") (A') (A') (A') (A') (A') (A') (A') (A') (A')
                 (A')
 The electronic state of the initial guess is 1-A'.
 Leave Link  401 at Mon Dec 16 15:02:13 2013, MaxMem=   436000000 cpu:         1.4
 (Enter /usr/local/gaussian/g09.d01.em64t.legacy.linda/g09/l502.exe)
 Closed shell SCF:
 Using DIIS extrapolation, IDIIS=  1040.
 Integral symmetry usage will be decided dynamically.
 Keep J ints in memory in symmetry-blocked form, NReq=1649580.
 IVT=       26544 IEndB=       26544 NGot=   436000000 MDV=   435545095
 LenX=   435545095 LenY=   435542253
 Requested convergence on RMS density matrix=1.00D-08 within 128 cycles.
 Requested convergence on MAX density matrix=1.00D-06.
 Requested convergence on             energy=1.00D-06.
 No special actions if energy rises.
 FoFCou: FMM=F IPFlag=           0 FMFlag=           0 FMFlg1=           0
         NFxFlg=           0 DoJE=F BraDBF=F KetDBF=F FulRan=T
         wScrn=  0.000000 ICntrl=     600 IOpCl=  0 I1Cent=           0 NGrid=           0
         NMat0=    1 NMatS0=   1225 NMatT0=    0 NMatD0=    1 NMtDS0=    0 NMtDT0=    0
 Petite list used in FoFCou.
 Integral accuracy reduced to 1.0D-05 until final iterations.

 Cycle   1  Pass 0  IDiag  1:
 E= -257.811776799725    
 DIIS: error= 2.62D-02 at cycle   1 NSaved=   1.
 NSaved= 1 IEnMin= 1 EnMin= -257.811776799725     IErMin= 1 ErrMin= 2.62D-02
 ErrMax= 2.62D-02  0.00D+00 EMaxC= 1.00D-01 BMatC= 2.76D-02 BMatP= 2.76D-02
 IDIUse=3 WtCom= 7.38D-01 WtEn= 2.62D-01
 Coeff-Com:  0.100D+01
 Coeff-En:   0.100D+01
 Coeff:      0.100D+01
 Gap=     0.143 Goal=   None    Shift=    0.000
 GapD=    0.143 DampG=1.000 DampE=0.500 DampFc=0.5000 IDamp=-1.
 Damping current iteration by 5.00D-01
 RMSDP=2.10D-02 MaxDP=2.84D-01              OVMax= 1.88D-01

 Cycle   2  Pass 0  IDiag  1:
 E= -257.808679847520     Delta-E=        0.003096952205 Rises=F Damp=T
 DIIS: error= 2.18D-02 at cycle   2 NSaved=   2.
 NSaved= 2 IEnMin= 1 EnMin= -257.811776799725     IErMin= 2 ErrMin= 2.18D-02
 ErrMax= 2.18D-02  0.00D+00 EMaxC= 1.00D-01 BMatC= 1.72D-02 BMatP= 2.76D-02
 IDIUse=3 WtCom= 7.82D-01 WtEn= 2.18D-01
 Coeff-Com:  0.421D+00 0.579D+00
 Coeff-En:   0.532D+00 0.468D+00
 Coeff:      0.445D+00 0.555D+00
 Gap=     0.176 Goal=   None    Shift=    0.000
 RMSDP=5.41D-03 MaxDP=5.97D-02 DE= 3.10D-03 OVMax= 1.38D-01

 Cycle   3  Pass 0  IDiag  1:
 E= -257.845004793212     Delta-E=       -0.036324945692 Rises=F Damp=F
 DIIS: error= 9.98D-03 at cycle   3 NSaved=   3.
 NSaved= 3 IEnMin= 3 EnMin= -257.845004793212     IErMin= 3 ErrMin= 9.98D-03
 ErrMax= 9.98D-03  0.00D+00 EMaxC= 1.00D-01 BMatC= 3.63D-03 BMatP= 1.72D-02
 IDIUse=3 WtCom= 9.00D-01 WtEn= 9.98D-02
 Coeff-Com:  0.116D+00 0.296D+00 0.587D+00
 Coeff-En:   0.000D+00 0.000D+00 0.100D+01
 Coeff:      0.105D+00 0.267D+00 0.629D+00
 Gap=     0.168 Goal=   None    Shift=    0.000
 RMSDP=1.80D-03 MaxDP=2.04D-02 DE=-3.63D-02 OVMax= 2.82D-02

 Cycle   4  Pass 0  IDiag  1:
 E= -257.846609828640     Delta-E=       -0.001605035428 Rises=F Damp=F
 DIIS: error= 6.73D-03 at cycle   4 NSaved=   4.
 NSaved= 4 IEnMin= 4 EnMin= -257.846609828640     IErMin= 4 ErrMin= 6.73D-03
 ErrMax= 6.73D-03  0.00D+00 EMaxC= 1.00D-01 BMatC= 1.93D-03 BMatP= 3.63D-03
 IDIUse=3 WtCom= 9.33D-01 WtEn= 6.73D-02
 Coeff-Com:  0.462D-01 0.137D+00 0.440D+00 0.377D+00
 Coeff-En:   0.000D+00 0.000D+00 0.363D+00 0.637D+00
 Coeff:      0.431D-01 0.128D+00 0.435D+00 0.394D+00
 Gap=     0.174 Goal=   None    Shift=    0.000
 RMSDP=1.08D-03 MaxDP=1.36D-02 DE=-1.61D-03 OVMax= 1.88D-02

 Cycle   5  Pass 0  IDiag  1:
 E= -257.848205966976     Delta-E=       -0.001596138336 Rises=F Damp=F
 DIIS: error= 1.58D-03 at cycle   5 NSaved=   5.
 NSaved= 5 IEnMin= 5 EnMin= -257.848205966976     IErMin= 5 ErrMin= 1.58D-03
 ErrMax= 1.58D-03  0.00D+00 EMaxC= 1.00D-01 BMatC= 1.16D-04 BMatP= 1.93D-03
 IDIUse=3 WtCom= 9.84D-01 WtEn= 1.58D-02
 Coeff-Com:  0.171D-01 0.536D-01 0.210D+00 0.258D+00 0.461D+00
 Coeff-En:   0.000D+00 0.000D+00 0.000D+00 0.314D-01 0.969D+00
 Coeff:      0.168D-01 0.527D-01 0.207D+00 0.254D+00 0.469D+00
 Gap=     0.173 Goal=   None    Shift=    0.000
 RMSDP=2.52D-04 MaxDP=2.98D-03 DE=-1.60D-03 OVMax= 4.02D-03

 Cycle   6  Pass 0  IDiag  1:
 E= -257.848313306936     Delta-E=       -0.000107339960 Rises=F Damp=F
 DIIS: error= 2.13D-04 at cycle   6 NSaved=   6.
 NSaved= 6 IEnMin= 6 EnMin= -257.848313306936     IErMin= 6 ErrMin= 2.13D-04
 ErrMax= 2.13D-04  0.00D+00 EMaxC= 1.00D-01 BMatC= 2.02D-06 BMatP= 1.16D-04
 IDIUse=3 WtCom= 9.98D-01 WtEn= 2.13D-03
 Coeff-Com:  0.476D-02 0.185D-01 0.723D-01 0.983D-01 0.210D+00 0.596D+00
 Coeff-En:   0.000D+00 0.000D+00 0.000D+00 0.000D+00 0.000D+00 0.100D+01
 Coeff:      0.475D-02 0.185D-01 0.721D-01 0.981D-01 0.210D+00 0.597D+00
 Gap=     0.173 Goal=   None    Shift=    0.000
 RMSDP=3.41D-05 MaxDP=4.59D-04 DE=-1.07D-04 OVMax= 6.22D-04

 Cycle   7  Pass 0  IDiag  1:
 E= -257.848314422479     Delta-E=       -0.000001115543 Rises=F Damp=F
 DIIS: error= 1.21D-04 at cycle   7 NSaved=   7.
 NSaved= 7 IEnMin= 7 EnMin= -257.848314422479     IErMin= 7 ErrMin= 1.21D-04
 ErrMax= 1.21D-04  0.00D+00 EMaxC= 1.00D-01 BMatC= 8.41D-07 BMatP= 2.02D-06
 IDIUse=3 WtCom= 9.99D-01 WtEn= 1.21D-03
 Coeff-Com:  0.148D-03 0.290D-02 0.962D-02 0.195D-01 0.577D-01 0.420D+00
 Coeff-Com:  0.490D+00
 Coeff-En:   0.000D+00 0.000D+00 0.000D+00 0.000D+00 0.000D+00 0.301D+00
 Coeff-En:   0.699D+00
 Coeff:      0.148D-03 0.289D-02 0.961D-02 0.194D-01 0.576D-01 0.420D+00
 Coeff:      0.490D+00
 Gap=     0.173 Goal=   None    Shift=    0.000
 RMSDP=1.99D-05 MaxDP=2.75D-04 DE=-1.12D-06 OVMax= 3.03D-04

 Cycle   8  Pass 0  IDiag  1:
 E= -257.848315134394     Delta-E=       -0.000000711915 Rises=F Damp=F
 DIIS: error= 2.01D-05 at cycle   8 NSaved=   8.
 NSaved= 8 IEnMin= 8 EnMin= -257.848315134394     IErMin= 8 ErrMin= 2.01D-05
 ErrMax= 2.01D-05  0.00D+00 EMaxC= 1.00D-01 BMatC= 1.63D-08 BMatP= 8.41D-07
 IDIUse=1 WtCom= 1.00D+00 WtEn= 0.00D+00
 Coeff-Com: -0.201D-04 0.767D-03 0.288D-02 0.685D-02 0.223D-01 0.179D+00
 Coeff-Com:  0.238D+00 0.551D+00
 Coeff:     -0.201D-04 0.767D-03 0.288D-02 0.685D-02 0.223D-01 0.179D+00
 Coeff:      0.238D+00 0.551D+00
 Gap=     0.173 Goal=   None    Shift=    0.000
 RMSDP=5.82D-06 MaxDP=5.23D-05 DE=-7.12D-07 OVMax= 9.80D-05

 Initial convergence to 1.0D-05 achieved.  Increase integral accuracy.
 Cycle   9  Pass 1  IDiag  1:
 E= -257.848329825052     Delta-E=       -0.000014690658 Rises=F Damp=F
 DIIS: error= 1.47D-05 at cycle   1 NSaved=   1.
 NSaved= 1 IEnMin= 1 EnMin= -257.848329825052     IErMin= 1 ErrMin= 1.47D-05
 ErrMax= 1.47D-05  0.00D+00 EMaxC= 1.00D-01 BMatC= 1.46D-08 BMatP= 1.46D-08
 IDIUse=1 WtCom= 1.00D+00 WtEn= 0.00D+00
 Coeff-Com:  0.100D+01
 Coeff:      0.100D+01
 Gap=     0.173 Goal=   None    Shift=    0.000
 RMSDP=5.82D-06 MaxDP=5.23D-05 DE=-1.47D-05 OVMax= 1.61D-04

 Cycle  10  Pass 1  IDiag  1:
 E= -257.848329787051     Delta-E=        0.000000038001 Rises=F Damp=F
 DIIS: error= 3.61D-05 at cycle   2 NSaved=   2.
 NSaved= 2 IEnMin= 1 EnMin= -257.848329825052     IErMin= 1 ErrMin= 1.47D-05
 ErrMax= 3.61D-05  0.00D+00 EMaxC= 1.00D-01 BMatC= 5.42D-08 BMatP= 1.46D-08
 IDIUse=1 WtCom= 1.00D+00 WtEn= 0.00D+00
 Coeff-Com:  0.672D+00 0.328D+00
 Coeff:      0.672D+00 0.328D+00
 Gap=     0.173 Goal=   None    Shift=    0.000
 RMSDP=6.23D-06 MaxDP=6.74D-05 DE= 3.80D-08 OVMax= 1.33D-04

 Cycle  11  Pass 1  IDiag  1:
 E= -257.848329840775     Delta-E=       -0.000000053724 Rises=F Damp=F
 DIIS: error= 6.90D-06 at cycle   3 NSaved=   3.
 NSaved= 3 IEnMin= 3 EnMin= -257.848329840775     IErMin= 3 ErrMin= 6.90D-06
 ErrMax= 6.90D-06  0.00D+00 EMaxC= 1.00D-01 BMatC= 1.32D-09 BMatP= 1.46D-08
 IDIUse=1 WtCom= 1.00D+00 WtEn= 0.00D+00
 Coeff-Com:  0.874D-01 0.147D+00 0.766D+00
 Coeff:      0.874D-01 0.147D+00 0.766D+00
 Gap=     0.173 Goal=   None    Shift=    0.000
 RMSDP=1.13D-06 MaxDP=1.29D-05 DE=-5.37D-08 OVMax= 2.22D-05

 Cycle  12  Pass 1  IDiag  1:
 E= -257.848329841503     Delta-E=       -0.000000000728 Rises=F Damp=F
 DIIS: error= 4.34D-06 at cycle   4 NSaved=   4.
 NSaved= 4 IEnMin= 4 EnMin= -257.848329841503     IErMin= 4 ErrMin= 4.34D-06
 ErrMax= 4.34D-06  0.00D+00 EMaxC= 1.00D-01 BMatC= 6.44D-10 BMatP= 1.32D-09
 IDIUse=1 WtCom= 1.00D+00 WtEn= 0.00D+00
 Coeff-Com:  0.781D-02 0.793D-01 0.558D+00 0.355D+00
 Coeff:      0.781D-02 0.793D-01 0.558D+00 0.355D+00
 Gap=     0.173 Goal=   None    Shift=    0.000
 RMSDP=5.85D-07 MaxDP=5.51D-06 DE=-7.28D-10 OVMax= 1.17D-05

 Cycle  13  Pass 1  IDiag  1:
 E= -257.848329842057     Delta-E=       -0.000000000554 Rises=F Damp=F
 DIIS: error= 9.22D-07 at cycle   5 NSaved=   5.
 NSaved= 5 IEnMin= 5 EnMin= -257.848329842057     IErMin= 5 ErrMin= 9.22D-07
 ErrMax= 9.22D-07  0.00D+00 EMaxC= 1.00D-01 BMatC= 3.83D-11 BMatP= 6.44D-10
 IDIUse=1 WtCom= 1.00D+00 WtEn= 0.00D+00
 Coeff-Com:  0.386D-03 0.443D-01 0.338D+00 0.248D+00 0.369D+00
 Coeff:      0.386D-03 0.443D-01 0.338D+00 0.248D+00 0.369D+00
 Gap=     0.173 Goal=   None    Shift=    0.000
 RMSDP=1.61D-07 MaxDP=1.90D-06 DE=-5.54D-10 OVMax= 2.94D-06

 Cycle  14  Pass 1  IDiag  1:
 E= -257.848329842090     Delta-E=       -0.000000000033 Rises=F Damp=F
 DIIS: error= 2.87D-07 at cycle   6 NSaved=   6.
 NSaved= 6 IEnMin= 6 EnMin= -257.848329842090     IErMin= 6 ErrMin= 2.87D-07
 ErrMax= 2.87D-07  0.00D+00 EMaxC= 1.00D-01 BMatC= 3.37D-12 BMatP= 3.83D-11
 IDIUse=1 WtCom= 1.00D+00 WtEn= 0.00D+00
 Coeff-Com: -0.510D-03 0.169D-01 0.145D+00 0.115D+00 0.248D+00 0.476D+00
 Coeff:     -0.510D-03 0.169D-01 0.145D+00 0.115D+00 0.248D+00 0.476D+00
 Gap=     0.173 Goal=   None    Shift=    0.000
 RMSDP=4.42D-08 MaxDP=4.30D-07 DE=-3.25D-11 OVMax= 7.02D-07

 Cycle  15  Pass 1  IDiag  1:
 E= -257.848329842094     Delta-E=       -0.000000000005 Rises=F Damp=F
 DIIS: error= 4.62D-08 at cycle   7 NSaved=   7.
 NSaved= 7 IEnMin= 7 EnMin= -257.848329842094     IErMin= 7 ErrMin= 4.62D-08
 ErrMax= 4.62D-08  0.00D+00 EMaxC= 1.00D-01 BMatC= 8.50D-14 BMatP= 3.37D-12
 IDIUse=1 WtCom= 1.00D+00 WtEn= 0.00D+00
 Coeff-Com: -0.292D-03 0.406D-02 0.406D-01 0.341D-01 0.857D-01 0.219D+00
 Coeff-Com:  0.617D+00
 Coeff:     -0.292D-03 0.406D-02 0.406D-01 0.341D-01 0.857D-01 0.219D+00
 Coeff:      0.617D+00
 Gap=     0.173 Goal=   None    Shift=    0.000
 RMSDP=1.09D-08 MaxDP=7.56D-08 DE=-4.66D-12 OVMax= 1.41D-07

 Cycle  16  Pass 1  IDiag  1:
 E= -257.848329842094     Delta-E=        0.000000000000 Rises=F Damp=F
 DIIS: error= 1.69D-08 at cycle   8 NSaved=   8.
 NSaved= 8 IEnMin= 7 EnMin= -257.848329842094     IErMin= 8 ErrMin= 1.69D-08
 ErrMax= 1.69D-08  0.00D+00 EMaxC= 1.00D-01 BMatC= 1.23D-14 BMatP= 8.50D-14
 IDIUse=1 WtCom= 1.00D+00 WtEn= 0.00D+00
 Coeff-Com: -0.177D-03 0.209D-02 0.215D-01 0.182D-01 0.475D-01 0.124D+00
 Coeff-Com:  0.403D+00 0.384D+00
 Coeff:     -0.177D-03 0.209D-02 0.215D-01 0.182D-01 0.475D-01 0.124D+00
 Coeff:      0.403D+00 0.384D+00
 Gap=     0.173 Goal=   None    Shift=    0.000
 RMSDP=2.62D-09 MaxDP=2.84D-08 DE= 4.55D-13 OVMax= 4.93D-08

 SCF Done:  E(RPBE-PBE) =  -257.848329842     A.U. after   16 cycles
            NFock= 16  Conv=0.26D-08     -V/T= 2.0014
 KE= 2.574807242045D+02 PE=-9.419950232017D+02 EE= 2.568351202045D+02
 Leave Link  502 at Mon Dec 16 15:02:13 2013, MaxMem=   436000000 cpu:         4.6
 (Enter /usr/local/gaussian/g09.d01.em64t.legacy.linda/g09/l601.exe)
 Copying SCF densities to generalized density rwf, IOpCl= 0 IROHF=0.

 **********************************************************************

            Population analysis using the SCF density.

 **********************************************************************

 Orbital symmetries:
       Occupied  (A') (A') (A') (A') (A') (A') (A') (A') (A') (A')
                 (A') (A") (A') (A') (A") (A") (A') (A')
       Virtual   (A") (A") (A') (A') (A') (A') (A') (A') (A') (A")
                 (A') (A') (A') (A") (A') (A') (A") (A') (A") (A')
                 (A") (A') (A') (A') (A') (A') (A') (A') (A') (A')
                 (A')
 The electronic state is 1-A'.
 Alpha  occ. eigenvalues --  -14.11803 -14.08157 -14.06119 -14.03743  -9.98905
 Alpha  occ. eigenvalues --   -1.13319  -0.91074  -0.86615  -0.64774  -0.63778
 Alpha  occ. eigenvalues --   -0.56891  -0.47958  -0.47040  -0.32708  -0.31511
 Alpha  occ. eigenvalues --   -0.29859  -0.25010  -0.22908
 Alpha virt. eigenvalues --   -0.05604  -0.01942   0.02866   0.08054   0.14672
 Alpha virt. eigenvalues --    0.17309   0.24988   0.28439   0.37835   0.47195
 Alpha virt. eigenvalues --    0.50283   0.57974   0.60933   0.61718   0.62646
 Alpha virt. eigenvalues --    0.65288   0.66259   0.68340   0.73936   0.74678
 Alpha virt. eigenvalues --    0.78308   0.78804   0.82500   0.85480   0.97298
 Alpha virt. eigenvalues --    1.01726   1.12014   1.17595   1.31483   1.48717
 Alpha virt. eigenvalues --    1.54597
          Condensed to atoms (all electrons):
               1          2          3          4          5          6
     1  C    5.199046   0.125150  -0.147173  -0.122628   0.310687   0.358116
     2  N    0.125150   7.358862   0.009315  -0.089590  -0.095741  -0.049243
     3  N   -0.147173   0.009315   7.151487   0.073878  -0.101717   0.002973
     4  N   -0.122628  -0.089590   0.073878   7.033356   0.187103   0.007693
     5  N    0.310687  -0.095741  -0.101717   0.187103   6.997113  -0.026403
     6  H    0.358116  -0.049243   0.002973   0.007693  -0.026403   0.482061
     7  H   -0.019139   0.279616  -0.021767   0.010581   0.006860   0.003612
               7
     1  C   -0.019139
     2  N    0.279616
     3  N   -0.021767
     4  N    0.010581
     5  N    0.006860
     6  H    0.003612
     7  H    0.373711
 Mulliken charges:
               1
     1  C    0.295941
     2  N   -0.538368
     3  N    0.033004
     4  N   -0.100392
     5  N   -0.277902
     6  H    0.221191
     7  H    0.366526
 Sum of Mulliken charges =   0.00000
 Mulliken charges with hydrogens summed into heavy atoms:
               1
     1  C    0.517132
     2  N   -0.171842
     3  N    0.033004
     4  N   -0.100392
     5  N   -0.277902
 Electronic spatial extent (au):  <R**2>=            245.6121
 Charge=              0.0000 electrons
 Dipole moment (field-independent basis, Debye):
    X=              2.6264    Y=              5.0199    Z=              0.0000  Tot=              5.6655
 Quadrupole moment (field-independent basis, Debye-Ang):
   XX=            -29.8378   YY=            -27.2039   ZZ=            -28.0057
   XY=              1.7546   XZ=              0.0000   YZ=              0.0000
 Traceless Quadrupole moment (field-independent basis, Debye-Ang):
   XX=             -1.4887   YY=              1.1452   ZZ=              0.3434
   XY=              1.7546   XZ=              0.0000   YZ=              0.0000
 Octapole moment (field-independent basis, Debye-Ang**2):
  XXX=             12.2206  YYY=             22.9126  ZZZ=              0.0000  XYY=             -0.5016
  XXY=              4.6893  XXZ=              0.0000  XZZ=             -0.6684  YZZ=              0.4249
  YYZ=              0.0000  XYZ=              0.0000
 Hexadecapole moment (field-independent basis, Debye-Ang**3):
 XXXX=           -139.3988 YYYY=           -117.5289 ZZZZ=            -24.1932 XXXY=              6.1991
 XXXZ=              0.0000 YYYX=             -0.6358 YYYZ=              0.0000 ZZZX=              0.0000
 ZZZY=              0.0000 XXYY=            -52.4640 XXZZ=            -29.2369 YYZZ=            -27.5903
 XXYZ=              0.0000 YYXZ=              0.0000 ZZXY=             -0.1892
 N-N= 1.698308489506D+02 E-N=-9.419950233217D+02  KE= 2.574807242045D+02
 Symmetry A'   KE= 2.478524849197D+02
 Symmetry A"   KE= 9.628239284747D+00
 No NMR shielding tensors so no spin-rotation constants.
 Leave Link  601 at Mon Dec 16 15:02:14 2013, MaxMem=   436000000 cpu:         0.9
 (Enter /usr/local/gaussian/g09.d01.em64t.legacy.linda/g09/l701.exe)
 Compute integral first derivatives.
 ... and contract with generalized density number  0.
 Leave Link  701 at Mon Dec 16 15:02:14 2013, MaxMem=   436000000 cpu:         1.4
 (Enter /usr/local/gaussian/g09.d01.em64t.legacy.linda/g09/l702.exe)
 L702 exits ... SP integral derivatives will be done elsewhere.
 Leave Link  702 at Mon Dec 16 15:02:14 2013, MaxMem=   436000000 cpu:         0.3
 (Enter /usr/local/gaussian/g09.d01.em64t.legacy.linda/g09/l703.exe)
 Compute integral first derivatives, UseDBF=F ICtDFT=           0.
 Integral derivatives from FoFJK, PRISM(SPDF).
 Calling FoFJK, ICntrl=      2527 FMM=F ISym2X=1 I1Cent= 0 IOpClX= 0 NMat=1 NMatS=1 NMatT=0.
 FoFJK:  IHMeth= 1 ICntrl=    2527 DoSepK=F KAlg= 0 I1Cent=   0 FoldK=F
 IRaf=         0 NMat=   1 IRICut=       1 DoRegI=T DoRafI=F ISym2E= 1.
 FoFCou: FMM=F IPFlag=           0 FMFlag=      100000 FMFlg1=         800
         NFxFlg=           0 DoJE=F BraDBF=F KetDBF=F FulRan=T
         wScrn=  0.000000 ICntrl=    2527 IOpCl=  0 I1Cent=           0 NGrid=           0
         NMat0=    1 NMatS0=      1 NMatT0=    0 NMatD0=    1 NMtDS0=    0 NMtDT0=    0
 Petite list used in FoFCou.
 Leave Link  703 at Mon Dec 16 15:02:14 2013, MaxMem=   436000000 cpu:         2.1
 (Enter /usr/local/gaussian/g09.d01.em64t.legacy.linda/g09/l716.exe)
 Dipole        = 1.03330495D+00 1.97498328D+00 1.93532654D-32
 ***** Axes restored to original set *****
 -------------------------------------------------------------------
 Center     Atomic                   Forces (Hartrees/Bohr)
 Number     Number              X              Y              Z
 -------------------------------------------------------------------
      1        6           0.065240865   -0.008138921    0.000000000
      2        7           0.033557878   -0.032879289    0.000000000
      3        7          -0.052901266   -0.085825180    0.000000000
      4        7          -0.070852422    0.066899414    0.000000000
      5        7           0.007544750    0.074396947    0.000000000
      6        1           0.010307799    0.002058128    0.000000000
      7        1           0.007102396   -0.016511099    0.000000000
 -------------------------------------------------------------------
 Cartesian Forces:  Max     0.085825180 RMS     0.039167084
 Leave Link  716 at Mon Dec 16 15:02:14 2013, MaxMem=   436000000 cpu:         0.2
 (Enter /usr/local/gaussian/g09.d01.em64t.legacy.linda/g09/l103.exe)

 GradGradGradGradGradGradGradGradGradGradGradGradGradGradGradGradGradGrad
 Berny optimization.
 FormGI is forming the generalized inverse of G from B-inverse, IUseBI=4.
 Internal  Forces:  Max     0.092456154 RMS     0.030999163
 Search for a local minimum.
 Step number   1 out of a maximum of   36
 All quantities printed in internal units (Hartrees-Bohrs-Radians)
 RMS Force = .30999D-01 SwitMx=.10000D-02 MixMth= 1
 Mixed Optimization -- RFO/linear search
 Second derivative matrix not updated -- first step.
 ITU=  0
     Eigenvalues ---    0.02505   0.02639   0.02674   0.02834   0.16000
     Eigenvalues ---    0.16000   0.22605   0.24688   0.37510   0.48741
     Eigenvalues ---    0.50870   0.56601   0.58498   0.66939   0.78934
 RFO step:  Lambda=-3.53762398D-02 EMin= 2.50488176D-02
 Linear search not attempted -- first point.
 Iteration  1 RMS(Cart)=  0.04600780 RMS(Int)=  0.00023434
 Iteration  2 RMS(Cart)=  0.00019683 RMS(Int)=  0.00011067
 Iteration  3 RMS(Cart)=  0.00000003 RMS(Int)=  0.00011067
 ITry= 1 IFail=0 DXMaxC= 1.12D-01 DCOld= 1.00D+10 DXMaxT= 3.00D-01 DXLimC= 3.00D+00 Rises=F
 ClnCor:  largest displacement from symmetrization is 1.07D-11 for atom     1.
 Variable       Old X    -DE/DX   Delta X   Delta X   Delta X     New X
                                 (Linear)    (Quad)   (Total)
    R1        2.51383   0.05087   0.00000   0.07659   0.07644   2.59027
    R2        2.43626   0.07023   0.00000   0.09292   0.09282   2.52909
    R3        2.01785   0.01049   0.00000   0.02556   0.02556   2.04341
    R4        2.50598   0.06676   0.00000   0.10437   0.10437   2.61034
    R5        1.87858   0.01796   0.00000   0.03436   0.03436   1.91294
    R6        2.36600   0.09246   0.00000   0.11056   0.11072   2.47671
    R7        2.53497   0.06180   0.00000   0.10510   0.10519   2.64016
    A1        1.88804   0.00225   0.00000  -0.00756  -0.00781   1.88023
    A2        2.18209  -0.00045   0.00000   0.00724   0.00737   2.18946
    A3        2.21305  -0.00180   0.00000   0.00032   0.00045   2.21349
    A4        1.88509   0.00644   0.00000   0.01453   0.01436   1.89946
    A5        2.29039  -0.00379   0.00000  -0.01015  -0.01006   2.28032
    A6        2.10770  -0.00266   0.00000  -0.00438  -0.00430   2.10340
    A7        1.86199  -0.00438   0.00000  -0.00537  -0.00520   1.85679
    A8        1.94382  -0.00950   0.00000  -0.01679  -0.01650   1.92731
    A9        1.84584   0.00518   0.00000   0.01519   0.01515   1.86098
    D1        0.00000   0.00000   0.00000   0.00000   0.00000   0.00000
    D2        3.14159   0.00000   0.00000   0.00000   0.00000   3.14159
    D3        3.14159   0.00000   0.00000   0.00000   0.00000   3.14159
    D4        0.00000   0.00000   0.00000   0.00000   0.00000   0.00000
    D5        0.00000   0.00000   0.00000   0.00000   0.00000   0.00000
    D6        3.14159   0.00000   0.00000   0.00000   0.00000   3.14159
    D7        0.00000   0.00000   0.00000   0.00000   0.00000   0.00000
    D8        3.14159   0.00000   0.00000   0.00000   0.00000   3.14159
    D9        0.00000   0.00000   0.00000   0.00000   0.00000   0.00000
   D10        0.00000   0.00000   0.00000   0.00000   0.00000   0.00000
         Item               Value     Threshold  Converged?
 Maximum Force            0.092456     0.000450     NO 
 RMS     Force            0.030999     0.000300     NO 
 Maximum Displacement     0.112193     0.001800     NO 
 RMS     Displacement     0.046010     0.001200     NO 
 Predicted change in Energy=-1.859334D-02
 Lowest energy point so far.  Saving SCF results.
 GradGradGradGradGradGradGradGradGradGradGradGradGradGradGradGradGradGrad

 Leave Link  103 at Mon Dec 16 15:02:14 2013, MaxMem=   436000000 cpu:         0.1
 (Enter /usr/local/gaussian/g09.d01.em64t.legacy.linda/g09/l202.exe)
                          Input orientation:                          
 ---------------------------------------------------------------------
 Center     Atomic      Atomic             Coordinates (Angstroms)
 Number     Number       Type             X           Y           Z
 ---------------------------------------------------------------------
      1          6           0        1.034372    0.007683    0.000000
      2          7           0        0.395556   -1.205067    0.000000
      3          7           0       -0.968971   -0.990240    0.000000
      4          7           0       -1.138664    0.309348    0.000000
      5          7           0        0.096442    0.962372    0.000000
      6          1           0        2.106025    0.151985    0.000000
      7          1           0        0.767696   -2.146463    0.000000
 ---------------------------------------------------------------------
                    Distance matrix (angstroms):
                    1          2          3          4          5
     1  C    0.000000
     2  N    1.370711   0.000000
     3  N    2.238132   1.381335   0.000000
     4  N    2.193874   2.155756   1.310620   0.000000
     5  N    1.338336   2.187980   2.224365   1.397113   0.000000
     6  H    1.081325   2.183413   3.280286   3.248502   2.166829
     7  H    2.170591   1.012282   2.086352   3.108893   3.180477
                    6          7
     6  H    0.000000
     7  H    2.659697   0.000000
 Stoichiometry    CH2N4
 Framework group  CS[SG(CH2N4)]
 Deg. of freedom    11
 Full point group                 CS      NOp   2
 RotChk:  IX=0 Diff= 8.24D-03
 Largest Abelian subgroup         CS      NOp   2
 Largest concise Abelian subgroup C1      NOp   1
                         Standard orientation:                         
 ---------------------------------------------------------------------
 Center     Atomic      Atomic             Coordinates (Angstroms)
 Number     Number       Type             X           Y           Z
 ---------------------------------------------------------------------
      1          6           0        1.094660    0.248735    0.000000
      2          7           0        0.000000    1.073700    0.000000
      3          7           0       -1.142931    0.297946    0.000000
      4          7           0       -0.742715   -0.950073    0.000000
      5          7           0        0.652908   -1.014593    0.000000
      6          1           0        2.125651    0.574802    0.000000
      7          1           0       -0.064445    2.083929    0.000000
 ---------------------------------------------------------------------
 Rotational constants (GHZ):     10.1523454      9.9333267      5.0208210
 Leave Link  202 at Mon Dec 16 15:02:14 2013, MaxMem=   436000000 cpu:         0.0
 (Enter /usr/local/gaussian/g09.d01.em64t.legacy.linda/g09/l301.exe)
 Standard basis: 6-31G (6D, 7F)
 Ernie: Thresh=  0.10000D-02 Tol=  0.10000D-05 Strict=F.
 There are    39 symmetry adapted cartesian basis functions of A'  symmetry.
 There are    10 symmetry adapted cartesian basis functions of A"  symmetry.
 There are    39 symmetry adapted basis functions of A'  symmetry.
 There are    10 symmetry adapted basis functions of A"  symmetry.
    49 basis functions,   118 primitive gaussians,    49 cartesian basis functions
    18 alpha electrons       18 beta electrons
       nuclear repulsion energy       163.5983039355 Hartrees.
 IExCor= 1009 DFT=T Ex=PBE Corr=PBE ExCW=0 ScaHFX=  0.000000
 ScaDFX=  1.000000  1.000000  1.000000  1.000000 ScalE2=  1.000000  1.000000
 IRadAn=      0 IRanWt=     -1 IRanGd=            0 ICorTp=0 IEmpDi=  4
 NAtoms=    7 NActive=    7 NUniq=    7 SFac= 1.00D+00 NAtFMM=   60 NAOKFM=F Big=F
 Integral buffers will be    131072 words long.
 Raffenetti 2 integral format.
 Two-electron integral symmetry is turned on.
 Leave Link  301 at Mon Dec 16 15:02:14 2013, MaxMem=   436000000 cpu:         0.7
 (Enter /usr/local/gaussian/g09.d01.em64t.legacy.linda/g09/l302.exe)
 NPDir=0 NMtPBC=     1 NCelOv=     1 NCel=       1 NClECP=     1 NCelD=      1
         NCelK=      1 NCelE2=     1 NClLst=     1 CellRange=     0.0.
 One-electron integrals computed using PRISM.
 NBasis=    49 RedAO= T EigKep=  7.39D-03  NBF=    39    10
 NBsUse=    49 1.00D-06 EigRej= -1.00D+00 NBFU=    39    10
 Precomputing XC quadrature grid using
 IXCGrd= 4 IRadAn=           0 IRanWt=          -1 IRanGd=           0 AccXCQ= 0.00D+00.
 Generated NRdTot=       0 NPtTot=           0 NUsed=           0 NTot=          32
 NSgBfM=    49    49    49    49    49 MxSgAt=     7 MxSgA2=     7.
 Leave Link  302 at Mon Dec 16 15:02:15 2013, MaxMem=   436000000 cpu:         1.7
 (Enter /usr/local/gaussian/g09.d01.em64t.legacy.linda/g09/l303.exe)
 DipDrv:  MaxL=1.
 Leave Link  303 at Mon Dec 16 15:02:15 2013, MaxMem=   436000000 cpu:         0.2
 (Enter /usr/local/gaussian/g09.d01.em64t.legacy.linda/g09/l401.exe)
 Initial guess from the checkpoint file:  "/tmp/rdj3/g09-20196/Gau-22905.chk"
 B after Tr=     0.000000    0.000000    0.000000
         Rot=    0.999994    0.000000    0.000000   -0.003357 Ang=  -0.38 deg.
 Guess basis will be translated and rotated to current coordinates.
 JPrj=2 DoOrth=T DoCkMO=T.
 Initial guess orbital symmetries:
       Occupied  (A') (A') (A') (A') (A') (A') (A') (A') (A') (A')
                 (A') (A") (A') (A') (A") (A") (A') (A')
       Virtual   (A') (A') (A') (A') (A') (A') (A') (A') (A') (A')
                 (A') (A') (A') (A') (A') (A') (A') (A') (A') (A')
                 (A') (A') (A') (A') (A") (A") (A") (A") (A") (A")
                 (A")
 The electronic state of the initial guess is 1-A'.
 Generating alternative initial guess.
 ExpMin= 1.61D-01 ExpMax= 4.17D+03 ExpMxC= 6.27D+02 IAcc=1 IRadAn=         1 AccDes= 0.00D+00
 Harris functional with IExCor= 1009 and IRadAn=       1 diagonalized for initial guess.
 HarFok:  IExCor= 1009 AccDes= 0.00D+00 IRadAn=         1 IDoV= 1 UseB2=F ITyADJ=14
 ICtDFT=  3500011 ScaDFX=  1.000000  1.000000  1.000000  1.000000
 FoFCou: FMM=F IPFlag=           0 FMFlag=      100000 FMFlg1=           0
         NFxFlg=           0 DoJE=T BraDBF=F KetDBF=T FulRan=T
         wScrn=  0.000000 ICntrl=     500 IOpCl=  0 I1Cent=   200000004 NGrid=           0
         NMat0=    1 NMatS0=      1 NMatT0=    0 NMatD0=    1 NMtDS0=    0 NMtDT0=    0
 Petite list used in FoFCou.
 Harris En= -257.883233805761    
 Leave Link  401 at Mon Dec 16 15:02:15 2013, MaxMem=   436000000 cpu:         2.1
 (Enter /usr/local/gaussian/g09.d01.em64t.legacy.linda/g09/l502.exe)
 Closed shell SCF:
 Using DIIS extrapolation, IDIIS=  1040.
 Integral symmetry usage will be decided dynamically.
 Keep J ints in memory in symmetry-blocked form, NReq=1649580.
 IVT=       26544 IEndB=       26544 NGot=   436000000 MDV=   435545095
 LenX=   435545095 LenY=   435542253
 Requested convergence on RMS density matrix=1.00D-08 within 128 cycles.
 Requested convergence on MAX density matrix=1.00D-06.
 Requested convergence on             energy=1.00D-06.
 No special actions if energy rises.
 FoFCou: FMM=F IPFlag=           0 FMFlag=           0 FMFlg1=           0
         NFxFlg=           0 DoJE=F BraDBF=F KetDBF=F FulRan=T
         wScrn=  0.000000 ICntrl=     600 IOpCl=  0 I1Cent=           0 NGrid=           0
         NMat0=    1 NMatS0=   1225 NMatT0=    0 NMatD0=    1 NMtDS0=    0 NMtDT0=    0
 Petite list used in FoFCou.
 Integral accuracy reduced to 1.0D-05 until final iterations.

 Cycle   1  Pass 0  IDiag  1:
 E= -257.862048031527    
 DIIS: error= 8.89D-03 at cycle   1 NSaved=   1.
 NSaved= 1 IEnMin= 1 EnMin= -257.862048031527     IErMin= 1 ErrMin= 8.89D-03
 ErrMax= 8.89D-03  0.00D+00 EMaxC= 1.00D-01 BMatC= 4.00D-03 BMatP= 4.00D-03
 IDIUse=3 WtCom= 9.11D-01 WtEn= 8.89D-02
 Coeff-Com:  0.100D+01
 Coeff-En:   0.100D+01
 Coeff:      0.100D+01
 Gap=     0.767 Goal=   None    Shift=    0.000
 GapD=    0.767 DampG=2.000 DampE=1.000 DampFc=2.0000 IDamp=-1.
 RMSDP=3.17D-03 MaxDP=2.31D-02              OVMax= 2.68D-02

 Cycle   2  Pass 0  IDiag  1:
 E= -257.866891539680     Delta-E=       -0.004843508153 Rises=F Damp=F
 DIIS: error= 4.23D-03 at cycle   2 NSaved=   2.
 NSaved= 2 IEnMin= 2 EnMin= -257.866891539680     IErMin= 2 ErrMin= 4.23D-03
 ErrMax= 4.23D-03  0.00D+00 EMaxC= 1.00D-01 BMatC= 1.01D-03 BMatP= 4.00D-03
 IDIUse=3 WtCom= 9.58D-01 WtEn= 4.23D-02
 Coeff-Com:  0.291D+00 0.709D+00
 Coeff-En:   0.000D+00 0.100D+01
 Coeff:      0.279D+00 0.721D+00
 Gap=     0.167 Goal=   None    Shift=    0.000
 RMSDP=1.19D-03 MaxDP=1.65D-02 DE=-4.84D-03 OVMax= 1.87D-02

 Cycle   3  Pass 0  IDiag  1:
 E= -257.866843761220     Delta-E=        0.000047778461 Rises=F Damp=F
 DIIS: error= 5.34D-03 at cycle   3 NSaved=   3.
 NSaved= 3 IEnMin= 2 EnMin= -257.866891539680     IErMin= 2 ErrMin= 4.23D-03
 ErrMax= 5.34D-03  0.00D+00 EMaxC= 1.00D-01 BMatC= 1.11D-03 BMatP= 1.01D-03
 IDIUse=3 WtCom= 9.47D-01 WtEn= 5.34D-02
 Coeff-Com:  0.105D+00 0.503D+00 0.392D+00
 Coeff-En:   0.000D+00 0.510D+00 0.490D+00
 Coeff:      0.994D-01 0.504D+00 0.397D+00
 Gap=     0.172 Goal=   None    Shift=    0.000
 RMSDP=9.82D-04 MaxDP=1.10D-02 DE= 4.78D-05 OVMax= 1.87D-02

 Cycle   4  Pass 0  IDiag  1:
 E= -257.867620535217     Delta-E=       -0.000776773998 Rises=F Damp=F
 DIIS: error= 2.44D-03 at cycle   4 NSaved=   4.
 NSaved= 4 IEnMin= 4 EnMin= -257.867620535217     IErMin= 4 ErrMin= 2.44D-03
 ErrMax= 2.44D-03  0.00D+00 EMaxC= 1.00D-01 BMatC= 2.60D-04 BMatP= 1.01D-03
 IDIUse=3 WtCom= 9.76D-01 WtEn= 2.44D-02
 Coeff-Com:  0.162D-01 0.248D+00 0.322D+00 0.414D+00
 Coeff-En:   0.000D+00 0.000D+00 0.246D+00 0.754D+00
 Coeff:      0.158D-01 0.242D+00 0.320D+00 0.423D+00
 Gap=     0.170 Goal=   None    Shift=    0.000
 RMSDP=4.16D-04 MaxDP=4.05D-03 DE=-7.77D-04 OVMax= 7.06D-03

 Cycle   5  Pass 0  IDiag  1:
 E= -257.867863415586     Delta-E=       -0.000242880369 Rises=F Damp=F
 DIIS: error= 9.97D-04 at cycle   5 NSaved=   5.
 NSaved= 5 IEnMin= 5 EnMin= -257.867863415586     IErMin= 5 ErrMin= 9.97D-04
 ErrMax= 9.97D-04  0.00D+00 EMaxC= 1.00D-01 BMatC= 2.03D-05 BMatP= 2.60D-04
 IDIUse=3 WtCom= 9.90D-01 WtEn= 9.97D-03
 Coeff-Com:  0.698D-02 0.155D+00 0.212D+00 0.311D+00 0.315D+00
 Coeff-En:   0.000D+00 0.000D+00 0.000D+00 0.289D-01 0.971D+00
 Coeff:      0.691D-02 0.153D+00 0.210D+00 0.308D+00 0.322D+00
 Gap=     0.171 Goal=   None    Shift=    0.000
 RMSDP=8.79D-05 MaxDP=1.42D-03 DE=-2.43D-04 OVMax= 2.08D-03

 Cycle   6  Pass 0  IDiag  1:
 E= -257.867880918438     Delta-E=       -0.000017502851 Rises=F Damp=F
 DIIS: error= 1.43D-04 at cycle   6 NSaved=   6.
 NSaved= 6 IEnMin= 6 EnMin= -257.867880918438     IErMin= 6 ErrMin= 1.43D-04
 ErrMax= 1.43D-04  0.00D+00 EMaxC= 1.00D-01 BMatC= 8.44D-07 BMatP= 2.03D-05
 IDIUse=3 WtCom= 9.99D-01 WtEn= 1.43D-03
 Coeff-Com:  0.136D-02 0.431D-01 0.623D-01 0.111D+00 0.199D+00 0.584D+00
 Coeff-En:   0.000D+00 0.000D+00 0.000D+00 0.000D+00 0.102D-01 0.990D+00
 Coeff:      0.136D-02 0.430D-01 0.622D-01 0.111D+00 0.198D+00 0.584D+00
 Gap=     0.171 Goal=   None    Shift=    0.000
 RMSDP=3.06D-05 MaxDP=3.22D-04 DE=-1.75D-05 OVMax= 6.94D-04

 Cycle   7  Pass 0  IDiag  1:
 E= -257.867881603864     Delta-E=       -0.000000685426 Rises=F Damp=F
 DIIS: error= 8.49D-05 at cycle   7 NSaved=   7.
 NSaved= 7 IEnMin= 7 EnMin= -257.867881603864     IErMin= 7 ErrMin= 8.49D-05
 ErrMax= 8.49D-05  0.00D+00 EMaxC= 1.00D-01 BMatC= 2.06D-07 BMatP= 8.44D-07
 IDIUse=1 WtCom= 1.00D+00 WtEn= 0.00D+00
 Coeff-Com:  0.479D-03 0.208D-01 0.309D-01 0.587D-01 0.120D+00 0.424D+00
 Coeff-Com:  0.345D+00
 Coeff:      0.479D-03 0.208D-01 0.309D-01 0.587D-01 0.120D+00 0.424D+00
 Coeff:      0.345D+00
 Gap=     0.171 Goal=   None    Shift=    0.000
 RMSDP=1.04D-05 MaxDP=1.40D-04 DE=-6.85D-07 OVMax= 2.23D-04

 Cycle   8  Pass 0  IDiag  1:
 E= -257.867881829159     Delta-E=       -0.000000225295 Rises=F Damp=F
 DIIS: error= 8.51D-06 at cycle   8 NSaved=   8.
 NSaved= 8 IEnMin= 8 EnMin= -257.867881829159     IErMin= 8 ErrMin= 8.51D-06
 ErrMax= 8.51D-06  0.00D+00 EMaxC= 1.00D-01 BMatC= 1.63D-09 BMatP= 2.06D-07
 IDIUse=1 WtCom= 1.00D+00 WtEn= 0.00D+00
 Coeff-Com:  0.306D-04 0.246D-02 0.425D-02 0.780D-02 0.209D-01 0.876D-01
 Coeff-Com:  0.975D-01 0.779D+00
 Coeff:      0.306D-04 0.246D-02 0.425D-02 0.780D-02 0.209D-01 0.876D-01
 Coeff:      0.975D-01 0.779D+00
 Gap=     0.171 Goal=   None    Shift=    0.000
 RMSDP=1.69D-06 MaxDP=1.43D-05 DE=-2.25D-07 OVMax= 2.18D-05

 Initial convergence to 1.0D-05 achieved.  Increase integral accuracy.
 Cycle   9  Pass 1  IDiag  1:
 E= -257.867903183622     Delta-E=       -0.000021354463 Rises=F Damp=F
 DIIS: error= 1.14D-05 at cycle   1 NSaved=   1.
 NSaved= 1 IEnMin= 1 EnMin= -257.867903183622     IErMin= 1 ErrMin= 1.14D-05
 ErrMax= 1.14D-05  0.00D+00 EMaxC= 1.00D-01 BMatC= 6.30D-09 BMatP= 6.30D-09
 IDIUse=1 WtCom= 1.00D+00 WtEn= 0.00D+00
 Coeff-Com:  0.100D+01
 Coeff:      0.100D+01
 Gap=     0.171 Goal=   None    Shift=    0.000
 RMSDP=1.69D-06 MaxDP=1.43D-05 DE=-2.14D-05 OVMax= 5.40D-05

 Cycle  10  Pass 1  IDiag  1:
 E= -257.867903183774     Delta-E=       -0.000000000152 Rises=F Damp=F
 DIIS: error= 1.26D-05 at cycle   2 NSaved=   2.
 NSaved= 2 IEnMin= 2 EnMin= -257.867903183774     IErMin= 1 ErrMin= 1.14D-05
 ErrMax= 1.26D-05  0.00D+00 EMaxC= 1.00D-01 BMatC= 1.04D-08 BMatP= 6.30D-09
 IDIUse=1 WtCom= 1.00D+00 WtEn= 0.00D+00
 Coeff-Com:  0.584D+00 0.416D+00
 Coeff:      0.584D+00 0.416D+00
 Gap=     0.171 Goal=   None    Shift=    0.000
 RMSDP=2.74D-06 MaxDP=4.05D-05 DE=-1.52D-10 OVMax= 4.89D-05

 Cycle  11  Pass 1  IDiag  1:
 E= -257.867903190325     Delta-E=       -0.000000006551 Rises=F Damp=F
 DIIS: error= 7.68D-06 at cycle   3 NSaved=   3.
 NSaved= 3 IEnMin= 3 EnMin= -257.867903190325     IErMin= 3 ErrMin= 7.68D-06
 ErrMax= 7.68D-06  0.00D+00 EMaxC= 1.00D-01 BMatC= 3.00D-09 BMatP= 6.30D-09
 IDIUse=1 WtCom= 1.00D+00 WtEn= 0.00D+00
 Coeff-Com:  0.186D-01 0.346D+00 0.635D+00
 Coeff:      0.186D-01 0.346D+00 0.635D+00
 Gap=     0.171 Goal=   None    Shift=    0.000
 RMSDP=1.29D-06 MaxDP=1.58D-05 DE=-6.55D-09 OVMax= 1.99D-05

 Cycle  12  Pass 1  IDiag  1:
 E= -257.867903192922     Delta-E=       -0.000000002598 Rises=F Damp=F
 DIIS: error= 2.73D-06 at cycle   4 NSaved=   4.
 NSaved= 4 IEnMin= 4 EnMin= -257.867903192922     IErMin= 4 ErrMin= 2.73D-06
 ErrMax= 2.73D-06  0.00D+00 EMaxC= 1.00D-01 BMatC= 1.71D-10 BMatP= 3.00D-09
 IDIUse=1 WtCom= 1.00D+00 WtEn= 0.00D+00
 Coeff-Com:  0.858D-02 0.239D+00 0.454D+00 0.298D+00
 Coeff:      0.858D-02 0.239D+00 0.454D+00 0.298D+00
 Gap=     0.171 Goal=   None    Shift=    0.000
 RMSDP=3.43D-07 MaxDP=3.12D-06 DE=-2.60D-09 OVMax= 6.04D-06

 Cycle  13  Pass 1  IDiag  1:
 E= -257.867903193091     Delta-E=       -0.000000000169 Rises=F Damp=F
 DIIS: error= 7.21D-07 at cycle   5 NSaved=   5.
 NSaved= 5 IEnMin= 5 EnMin= -257.867903193091     IErMin= 5 ErrMin= 7.21D-07
 ErrMax= 7.21D-07  0.00D+00 EMaxC= 1.00D-01 BMatC= 1.63D-11 BMatP= 1.71D-10
 IDIUse=1 WtCom= 1.00D+00 WtEn= 0.00D+00
 Coeff-Com:  0.524D-03 0.978D-01 0.198D+00 0.207D+00 0.496D+00
 Coeff:      0.524D-03 0.978D-01 0.198D+00 0.207D+00 0.496D+00
 Gap=     0.171 Goal=   None    Shift=    0.000
 RMSDP=9.61D-08 MaxDP=1.09D-06 DE=-1.69D-10 OVMax= 1.66D-06

 Cycle  14  Pass 1  IDiag  1:
 E= -257.867903193104     Delta-E=       -0.000000000013 Rises=F Damp=F
 DIIS: error= 2.40D-07 at cycle   6 NSaved=   6.
 NSaved= 6 IEnMin= 6 EnMin= -257.867903193104     IErMin= 6 ErrMin= 2.40D-07
 ErrMax= 2.40D-07  0.00D+00 EMaxC= 1.00D-01 BMatC= 2.64D-12 BMatP= 1.63D-11
 IDIUse=1 WtCom= 1.00D+00 WtEn= 0.00D+00
 Coeff-Com: -0.675D-03 0.475D-01 0.994D-01 0.109D+00 0.344D+00 0.400D+00
 Coeff:     -0.675D-03 0.475D-01 0.994D-01 0.109D+00 0.344D+00 0.400D+00
 Gap=     0.171 Goal=   None    Shift=    0.000
 RMSDP=3.73D-08 MaxDP=4.35D-07 DE=-1.33D-11 OVMax= 7.05D-07

 Cycle  15  Pass 1  IDiag  1:
 E= -257.867903193105     Delta-E=       -0.000000000001 Rises=F Damp=F
 DIIS: error= 6.46D-08 at cycle   7 NSaved=   7.
 NSaved= 7 IEnMin= 7 EnMin= -257.867903193105     IErMin= 7 ErrMin= 6.46D-08
 ErrMax= 6.46D-08  0.00D+00 EMaxC= 1.00D-01 BMatC= 1.40D-13 BMatP= 2.64D-12
 IDIUse=1 WtCom= 1.00D+00 WtEn= 0.00D+00
 Coeff-Com: -0.340D-03 0.158D-01 0.342D-01 0.387D-01 0.153D+00 0.245D+00
 Coeff-Com:  0.513D+00
 Coeff:     -0.340D-03 0.158D-01 0.342D-01 0.387D-01 0.153D+00 0.245D+00
 Coeff:      0.513D+00
 Gap=     0.171 Goal=   None    Shift=    0.000
 RMSDP=1.22D-08 MaxDP=8.55D-08 DE=-7.96D-13 OVMax= 2.28D-07

 Cycle  16  Pass 1  IDiag  1:
 E= -257.867903193107     Delta-E=       -0.000000000002 Rises=F Damp=F
 DIIS: error= 2.00D-08 at cycle   8 NSaved=   8.
 NSaved= 8 IEnMin= 8 EnMin= -257.867903193107     IErMin= 8 ErrMin= 2.00D-08
 ErrMax= 2.00D-08  0.00D+00 EMaxC= 1.00D-01 BMatC= 1.80D-14 BMatP= 1.40D-13
 IDIUse=1 WtCom= 1.00D+00 WtEn= 0.00D+00
 Coeff-Com: -0.219D-03 0.868D-02 0.187D-01 0.211D-01 0.852D-01 0.143D+00
 Coeff-Com:  0.339D+00 0.384D+00
 Coeff:     -0.219D-03 0.868D-02 0.187D-01 0.211D-01 0.852D-01 0.143D+00
 Coeff:      0.339D+00 0.384D+00
 Gap=     0.171 Goal=   None    Shift=    0.000
 RMSDP=3.61D-09 MaxDP=3.75D-08 DE=-2.27D-12 OVMax= 7.18D-08

 SCF Done:  E(RPBE-PBE) =  -257.867903193     A.U. after   16 cycles
            NFock= 16  Conv=0.36D-08     -V/T= 2.0044
 KE= 2.567425159678D+02 PE=-9.292100215839D+02 EE= 2.510012984876D+02
 Leave Link  502 at Mon Dec 16 15:02:16 2013, MaxMem=   436000000 cpu:         4.6
 (Enter /usr/local/gaussian/g09.d01.em64t.legacy.linda/g09/l701.exe)
 Compute integral first derivatives.
 ... and contract with generalized density number  0.
 Leave Link  701 at Mon Dec 16 15:02:16 2013, MaxMem=   436000000 cpu:         0.9
 (Enter /usr/local/gaussian/g09.d01.em64t.legacy.linda/g09/l702.exe)
 L702 exits ... SP integral derivatives will be done elsewhere.
 Leave Link  702 at Mon Dec 16 15:02:16 2013, MaxMem=   436000000 cpu:         0.2
 (Enter /usr/local/gaussian/g09.d01.em64t.legacy.linda/g09/l703.exe)
 Compute integral first derivatives, UseDBF=F ICtDFT=           0.
 Integral derivatives from FoFJK, PRISM(SPDF).
 Calling FoFJK, ICntrl=      2527 FMM=F ISym2X=1 I1Cent= 0 IOpClX= 0 NMat=1 NMatS=1 NMatT=0.
 FoFJK:  IHMeth= 1 ICntrl=    2527 DoSepK=F KAlg= 0 I1Cent=   0 FoldK=F
 IRaf=         0 NMat=   1 IRICut=       1 DoRegI=T DoRafI=F ISym2E= 1.
 FoFCou: FMM=F IPFlag=           0 FMFlag=      100000 FMFlg1=         800
         NFxFlg=           0 DoJE=F BraDBF=F KetDBF=F FulRan=T
         wScrn=  0.000000 ICntrl=    2527 IOpCl=  0 I1Cent=           0 NGrid=           0
         NMat0=    1 NMatS0=      1 NMatT0=    0 NMatD0=    1 NMtDS0=    0 NMtDT0=    0
 Petite list used in FoFCou.
 Leave Link  703 at Mon Dec 16 15:02:16 2013, MaxMem=   436000000 cpu:         1.7
 (Enter /usr/local/gaussian/g09.d01.em64t.legacy.linda/g09/l716.exe)
 Dipole        = 1.04305969D+00 1.96996027D+00-3.55111229D-32
 ***** Axes restored to original set *****
 -------------------------------------------------------------------
 Center     Atomic                   Forces (Hartrees/Bohr)
 Number     Number              X              Y              Z
 -------------------------------------------------------------------
      1        6          -0.001772787   -0.006124761    0.000000000
      2        7           0.011773166    0.001042018    0.000000000
      3        7          -0.012574302   -0.023213418    0.000000000
      4        7          -0.008027114    0.011171183    0.000000000
      5        7           0.010122043    0.018818942    0.000000000
      6        1           0.000318420    0.000673947    0.000000000
      7        1           0.000160573   -0.002367911    0.000000000
 -------------------------------------------------------------------
 Cartesian Forces:  Max     0.023213418 RMS     0.008533829
 Leave Link  716 at Mon Dec 16 15:02:16 2013, MaxMem=   436000000 cpu:         0.2
 (Enter /usr/local/gaussian/g09.d01.em64t.legacy.linda/g09/l103.exe)

 GradGradGradGradGradGradGradGradGradGradGradGradGradGradGradGradGradGrad
 Berny optimization.
 Using GEDIIS/GDIIS optimizer.
 FormGI is forming the generalized inverse of G from B-inverse, IUseBI=4.
 Internal  Forces:  Max     0.020087480 RMS     0.005964746
 Search for a local minimum.
 Step number   2 out of a maximum of   36
 All quantities printed in internal units (Hartrees-Bohrs-Radians)
 RMS Force = .59647D-02 SwitMx=.10000D-02 MixMth= 1
 Mixed Optimization -- RFO/linear search
 Update second derivatives using D2CorX and points    1    2
 DE= -1.96D-02 DEPred=-1.86D-02 R= 1.05D+00
 TightC=F SS=  1.41D+00  RLast= 2.27D-01 DXNew= 5.0454D-01 6.8067D-01
 Trust test= 1.05D+00 RLast= 2.27D-01 DXMaxT set to 5.05D-01
 ITU=  1  0
 Use linear search instead of GDIIS.
     Eigenvalues ---    0.02504   0.02634   0.02674   0.02833   0.15995
     Eigenvalues ---    0.16004   0.22713   0.24589   0.37581   0.48543
     Eigenvalues ---    0.49889   0.55320   0.58193   0.67991   0.74112
 RFO step:  Lambda=-1.29048160D-03 EMin= 2.50357844D-02
 Quartic linear search produced a step of  0.22663.
 Iteration  1 RMS(Cart)=  0.01506711 RMS(Int)=  0.00018638
 Iteration  2 RMS(Cart)=  0.00019526 RMS(Int)=  0.00003299
 Iteration  3 RMS(Cart)=  0.00000002 RMS(Int)=  0.00003299
 ITry= 1 IFail=0 DXMaxC= 5.13D-02 DCOld= 1.00D+10 DXMaxT= 5.05D-01 DXLimC= 3.00D+00 Rises=F
 ClnCor:  largest displacement from symmetrization is 4.55D-11 for atom     1.
 Variable       Old X    -DE/DX   Delta X   Delta X   Delta X     New X
                                 (Linear)    (Quad)   (Total)
    R1        2.59027   0.00313   0.01732  -0.00860   0.00868   2.59894
    R2        2.52909   0.00647   0.02104  -0.00556   0.01546   2.54455
    R3        2.04341   0.00041   0.00579  -0.00229   0.00351   2.04691
    R4        2.61034   0.01038   0.02365   0.00445   0.02809   2.63844
    R5        1.91294   0.00226   0.00779   0.00044   0.00822   1.92116
    R6        2.47671   0.02009   0.02509   0.01342   0.03855   2.51526
    R7        2.64016   0.01289   0.02384   0.01300   0.03688   2.67704
    A1        1.88023   0.00724  -0.00177   0.02747   0.02563   1.90586
    A2        2.18946  -0.00299   0.00167  -0.00919  -0.00749   2.18198
    A3        2.21349  -0.00425   0.00010  -0.01827  -0.01814   2.19535
    A4        1.89946   0.00250   0.00326   0.00373   0.00693   1.90638
    A5        2.28032  -0.00055  -0.00228   0.00365   0.00140   2.28172
    A6        2.10340  -0.00194  -0.00097  -0.00738  -0.00832   2.09508
    A7        1.85679  -0.00705  -0.00118  -0.02647  -0.02761   1.82918
    A8        1.92731   0.00354  -0.00374   0.03103   0.02739   1.95470
    A9        1.86098  -0.00622   0.00343  -0.03576  -0.03232   1.82866
    D1        0.00000   0.00000   0.00000   0.00000   0.00000   0.00000
    D2        3.14159   0.00000   0.00000   0.00000   0.00000   3.14159
    D3        3.14159   0.00000   0.00000   0.00000   0.00000   3.14159
    D4        0.00000   0.00000   0.00000   0.00000   0.00000   0.00000
    D5        0.00000   0.00000   0.00000   0.00000   0.00000   0.00000
    D6        3.14159   0.00000   0.00000   0.00000   0.00000   3.14159
    D7        0.00000   0.00000   0.00000   0.00000   0.00000   0.00000
    D8        3.14159   0.00000   0.00000   0.00000   0.00000   3.14159
    D9        0.00000   0.00000   0.00000   0.00000   0.00000   0.00000
   D10        0.00000   0.00000   0.00000   0.00000   0.00000   0.00000
         Item               Value     Threshold  Converged?
 Maximum Force            0.020087     0.000450     NO 
 RMS     Force            0.005965     0.000300     NO 
 Maximum Displacement     0.051275     0.001800     NO 
 RMS     Displacement     0.015082     0.001200     NO 
 Predicted change in Energy=-1.088296D-03
 Lowest energy point so far.  Saving SCF results.
 GradGradGradGradGradGradGradGradGradGradGradGradGradGradGradGradGradGrad

 Leave Link  103 at Mon Dec 16 15:02:16 2013, MaxMem=   436000000 cpu:         0.1
 (Enter /usr/local/gaussian/g09.d01.em64t.legacy.linda/g09/l202.exe)
                          Input orientation:                          
 ---------------------------------------------------------------------
 Center     Atomic      Atomic             Coordinates (Angstroms)
 Number     Number       Type             X           Y           Z
 ---------------------------------------------------------------------
      1          6           0        1.031293    0.009891    0.000000
      2          7           0        0.396651   -1.210225    0.000000
      3          7           0       -0.985089   -1.009800    0.000000
      4          7           0       -1.136939    0.312530    0.000000
      5          7           0        0.107463    0.989506    0.000000
      6          1           0        2.105115    0.151965    0.000000
      7          1           0        0.773964   -2.154247    0.000000
 ---------------------------------------------------------------------
                    Distance matrix (angstroms):
                    1          2          3          4          5
     1  C    0.000000
     2  N    1.375302   0.000000
     3  N    2.259550   1.396200   0.000000
     4  N    2.189251   2.161176   1.331020   0.000000
     5  N    1.346516   2.218658   2.278353   1.416627   0.000000
     6  H    1.083180   2.185043   3.301372   3.246028   2.166123
     7  H    2.179384   1.016633   2.098578   3.120343   3.213628
                    6          7
     6  H    0.000000
     7  H    2.662813   0.000000
 Stoichiometry    CH2N4
 Framework group  CS[SG(CH2N4)]
 Deg. of freedom    11
 Full point group                 CS      NOp   2
 RotChk:  IX=0 Diff= 1.32D-03
 Largest Abelian subgroup         CS      NOp   2
 Largest concise Abelian subgroup C1      NOp   1
                         Standard orientation:                         
 ---------------------------------------------------------------------
 Center     Atomic      Atomic             Coordinates (Angstroms)
 Number     Number       Type             X           Y           Z
 ---------------------------------------------------------------------
      1          6           0        1.093246    0.245873    0.000000
      2          7           0        0.000000    1.080299    0.000000
      3          7           0       -1.165355    0.311324    0.000000
      4          7           0       -0.740482   -0.950062    0.000000
      5          7           0        0.673680   -1.033607    0.000000
      6          1           0        2.125557    0.573920    0.000000
      7          1           0       -0.059939    2.095164    0.000000
 ---------------------------------------------------------------------
 Rotational constants (GHZ):     10.0397814      9.6757072      4.9271914
 Leave Link  202 at Mon Dec 16 15:02:16 2013, MaxMem=   436000000 cpu:         0.0
 (Enter /usr/local/gaussian/g09.d01.em64t.legacy.linda/g09/l301.exe)
 Standard basis: 6-31G (6D, 7F)
 Ernie: Thresh=  0.10000D-02 Tol=  0.10000D-05 Strict=F.
 There are    39 symmetry adapted cartesian basis functions of A'  symmetry.
 There are    10 symmetry adapted cartesian basis functions of A"  symmetry.
 There are    39 symmetry adapted basis functions of A'  symmetry.
 There are    10 symmetry adapted basis functions of A"  symmetry.
    49 basis functions,   118 primitive gaussians,    49 cartesian basis functions
    18 alpha electrons       18 beta electrons
       nuclear repulsion energy       162.0809517208 Hartrees.
 IExCor= 1009 DFT=T Ex=PBE Corr=PBE ExCW=0 ScaHFX=  0.000000
 ScaDFX=  1.000000  1.000000  1.000000  1.000000 ScalE2=  1.000000  1.000000
 IRadAn=      0 IRanWt=     -1 IRanGd=            0 ICorTp=0 IEmpDi=  4
 NAtoms=    7 NActive=    7 NUniq=    7 SFac= 1.00D+00 NAtFMM=   60 NAOKFM=F Big=F
 Integral buffers will be    131072 words long.
 Raffenetti 2 integral format.
 Two-electron integral symmetry is turned on.
 Leave Link  301 at Mon Dec 16 15:02:16 2013, MaxMem=   436000000 cpu:         0.6
 (Enter /usr/local/gaussian/g09.d01.em64t.legacy.linda/g09/l302.exe)
 NPDir=0 NMtPBC=     1 NCelOv=     1 NCel=       1 NClECP=     1 NCelD=      1
         NCelK=      1 NCelE2=     1 NClLst=     1 CellRange=     0.0.
 One-electron integrals computed using PRISM.
 NBasis=    49 RedAO= T EigKep=  7.71D-03  NBF=    39    10
 NBsUse=    49 1.00D-06 EigRej= -1.00D+00 NBFU=    39    10
 Precomputing XC quadrature grid using
 IXCGrd= 4 IRadAn=           0 IRanWt=          -1 IRanGd=           0 AccXCQ= 0.00D+00.
 Generated NRdTot=       0 NPtTot=           0 NUsed=           0 NTot=          32
 NSgBfM=    49    49    49    49    49 MxSgAt=     7 MxSgA2=     7.
 Leave Link  302 at Mon Dec 16 15:02:16 2013, MaxMem=   436000000 cpu:         1.7
 (Enter /usr/local/gaussian/g09.d01.em64t.legacy.linda/g09/l303.exe)
 DipDrv:  MaxL=1.
 Leave Link  303 at Mon Dec 16 15:02:16 2013, MaxMem=   436000000 cpu:         0.2
 (Enter /usr/local/gaussian/g09.d01.em64t.legacy.linda/g09/l401.exe)
 Initial guess from the checkpoint file:  "/tmp/rdj3/g09-20196/Gau-22905.chk"
 B after Tr=     0.000000    0.000000    0.000000
         Rot=    1.000000    0.000000    0.000000    0.000121 Ang=   0.01 deg.
 Guess basis will be translated and rotated to current coordinates.
 JPrj=2 DoOrth=T DoCkMO=T.
 Initial guess orbital symmetries:
       Occupied  (A') (A') (A') (A') (A') (A') (A') (A') (A') (A')
                 (A') (A') (A") (A') (A") (A") (A') (A')
       Virtual   (A') (A') (A') (A') (A') (A') (A') (A') (A') (A')
                 (A') (A') (A') (A') (A') (A') (A') (A') (A') (A')
                 (A') (A') (A') (A') (A") (A") (A") (A") (A") (A")
                 (A")
 The electronic state of the initial guess is 1-A'.
 Generating alternative initial guess.
 ExpMin= 1.61D-01 ExpMax= 4.17D+03 ExpMxC= 6.27D+02 IAcc=1 IRadAn=         1 AccDes= 0.00D+00
 Harris functional with IExCor= 1009 and IRadAn=       1 diagonalized for initial guess.
 HarFok:  IExCor= 1009 AccDes= 0.00D+00 IRadAn=         1 IDoV= 1 UseB2=F ITyADJ=14
 ICtDFT=  3500011 ScaDFX=  1.000000  1.000000  1.000000  1.000000
 FoFCou: FMM=F IPFlag=           0 FMFlag=      100000 FMFlg1=           0
         NFxFlg=           0 DoJE=T BraDBF=F KetDBF=T FulRan=T
         wScrn=  0.000000 ICntrl=     500 IOpCl=  0 I1Cent=   200000004 NGrid=           0
         NMat0=    1 NMatS0=      1 NMatT0=    0 NMatD0=    1 NMtDS0=    0 NMtDT0=    0
 Petite list used in FoFCou.
 Harris En= -257.881923344125    
 Leave Link  401 at Mon Dec 16 15:02:17 2013, MaxMem=   436000000 cpu:         1.7
 (Enter /usr/local/gaussian/g09.d01.em64t.legacy.linda/g09/l502.exe)
 Closed shell SCF:
 Using DIIS extrapolation, IDIIS=  1040.
 Integral symmetry usage will be decided dynamically.
 Keep J ints in memory in symmetry-blocked form, NReq=1649580.
 IVT=       26544 IEndB=       26544 NGot=   436000000 MDV=   435545095
 LenX=   435545095 LenY=   435542253
 Requested convergence on RMS density matrix=1.00D-08 within 128 cycles.
 Requested convergence on MAX density matrix=1.00D-06.
 Requested convergence on             energy=1.00D-06.
 No special actions if energy rises.
 FoFCou: FMM=F IPFlag=           0 FMFlag=           0 FMFlg1=           0
         NFxFlg=           0 DoJE=F BraDBF=F KetDBF=F FulRan=T
         wScrn=  0.000000 ICntrl=     600 IOpCl=  0 I1Cent=           0 NGrid=           0
         NMat0=    1 NMatS0=   1225 NMatT0=    0 NMatD0=    1 NMtDS0=    0 NMtDT0=    0
 Petite list used in FoFCou.
 Integral accuracy reduced to 1.0D-05 until final iterations.

 Cycle   1  Pass 0  IDiag  1:
 E= -257.867915999134    
 DIIS: error= 2.06D-03 at cycle   1 NSaved=   1.
 NSaved= 1 IEnMin= 1 EnMin= -257.867915999134     IErMin= 1 ErrMin= 2.06D-03
 ErrMax= 2.06D-03  0.00D+00 EMaxC= 1.00D-01 BMatC= 5.08D-04 BMatP= 5.08D-04
 IDIUse=3 WtCom= 9.79D-01 WtEn= 2.06D-02
 Coeff-Com:  0.100D+01
 Coeff-En:   0.100D+01
 Coeff:      0.100D+01
 Gap=     0.766 Goal=   None    Shift=    0.000
 GapD=    0.766 DampG=2.000 DampE=1.000 DampFc=2.0000 IDamp=-1.
 RMSDP=1.45D-03 MaxDP=1.38D-02              OVMax= 1.10D-02

 Cycle   2  Pass 0  IDiag  1:
 E= -257.868729130256     Delta-E=       -0.000813131122 Rises=F Damp=F
 DIIS: error= 1.07D-03 at cycle   2 NSaved=   2.
 NSaved= 2 IEnMin= 2 EnMin= -257.868729130256     IErMin= 2 ErrMin= 1.07D-03
 ErrMax= 1.07D-03  0.00D+00 EMaxC= 1.00D-01 BMatC= 8.83D-05 BMatP= 5.08D-04
 IDIUse=3 WtCom= 9.89D-01 WtEn= 1.07D-02
 Coeff-Com:  0.226D+00 0.774D+00
 Coeff-En:   0.000D+00 0.100D+01
 Coeff:      0.224D+00 0.776D+00
 Gap=     0.172 Goal=   None    Shift=    0.000
 RMSDP=4.74D-04 MaxDP=5.83D-03 DE=-8.13D-04 OVMax= 8.08D-03

 Cycle   3  Pass 0  IDiag  1:
 E= -257.868645742780     Delta-E=        0.000083387476 Rises=F Damp=F
 DIIS: error= 2.29D-03 at cycle   3 NSaved=   3.
 NSaved= 3 IEnMin= 2 EnMin= -257.868729130256     IErMin= 2 ErrMin= 1.07D-03
 ErrMax= 2.29D-03  0.00D+00 EMaxC= 1.00D-01 BMatC= 1.70D-04 BMatP= 8.83D-05
 IDIUse=3 WtCom= 1.73D-01 WtEn= 8.27D-01
 Coeff-Com:  0.586D-01 0.572D+00 0.370D+00
 Coeff-En:   0.000D+00 0.634D+00 0.366D+00
 Coeff:      0.101D-01 0.623D+00 0.367D+00
 Gap=     0.172 Goal=   None    Shift=    0.000
 RMSDP=3.13D-04 MaxDP=3.80D-03 DE= 8.34D-05 OVMax= 6.54D-03

 Cycle   4  Pass 0  IDiag  1:
 E= -257.868801619863     Delta-E=       -0.000155877082 Rises=F Damp=F
 DIIS: error= 4.82D-04 at cycle   4 NSaved=   4.
 NSaved= 4 IEnMin= 4 EnMin= -257.868801619863     IErMin= 4 ErrMin= 4.82D-04
 ErrMax= 4.82D-04  0.00D+00 EMaxC= 1.00D-01 BMatC= 1.30D-05 BMatP= 8.83D-05
 IDIUse=3 WtCom= 9.95D-01 WtEn= 4.82D-03
 Coeff-Com:  0.862D-02 0.319D+00 0.238D+00 0.434D+00
 Coeff-En:   0.000D+00 0.000D+00 0.330D-02 0.997D+00
 Coeff:      0.858D-02 0.317D+00 0.237D+00 0.437D+00
 Gap=     0.172 Goal=   None    Shift=    0.000
 RMSDP=8.44D-05 MaxDP=1.03D-03 DE=-1.56D-04 OVMax= 1.44D-03

 Cycle   5  Pass 0  IDiag  1:
 E= -257.868812429766     Delta-E=       -0.000010809903 Rises=F Damp=F
 DIIS: error= 2.48D-04 at cycle   5 NSaved=   5.
 NSaved= 5 IEnMin= 5 EnMin= -257.868812429766     IErMin= 5 ErrMin= 2.48D-04
 ErrMax= 2.48D-04  0.00D+00 EMaxC= 1.00D-01 BMatC= 1.78D-06 BMatP= 1.30D-05
 IDIUse=3 WtCom= 9.98D-01 WtEn= 2.48D-03
 Coeff-Com:  0.385D-02 0.203D+00 0.159D+00 0.320D+00 0.315D+00
 Coeff-En:   0.000D+00 0.000D+00 0.000D+00 0.330D-01 0.967D+00
 Coeff:      0.384D-02 0.202D+00 0.158D+00 0.319D+00 0.316D+00
 Gap=     0.172 Goal=   None    Shift=    0.000
 RMSDP=3.29D-05 MaxDP=3.04D-04 DE=-1.08D-05 OVMax= 5.97D-04

 Cycle   6  Pass 0  IDiag  1:
 E= -257.868814050158     Delta-E=       -0.000001620392 Rises=F Damp=F
 DIIS: error= 8.29D-05 at cycle   6 NSaved=   6.
 NSaved= 6 IEnMin= 6 EnMin= -257.868814050158     IErMin= 6 ErrMin= 8.29D-05
 ErrMax= 8.29D-05  0.00D+00 EMaxC= 1.00D-01 BMatC= 1.46D-07 BMatP= 1.78D-06
 IDIUse=1 WtCom= 1.00D+00 WtEn= 0.00D+00
 Coeff-Com:  0.136D-02 0.893D-01 0.751D-01 0.152D+00 0.228D+00 0.455D+00
 Coeff:      0.136D-02 0.893D-01 0.751D-01 0.152D+00 0.228D+00 0.455D+00
 Gap=     0.172 Goal=   None    Shift=    0.000
 RMSDP=1.04D-05 MaxDP=1.05D-04 DE=-1.62D-06 OVMax= 2.20D-04

 Cycle   7  Pass 0  IDiag  1:
 E= -257.868814168563     Delta-E=       -0.000000118405 Rises=F Damp=F
 DIIS: error= 2.74D-05 at cycle   7 NSaved=   7.
 NSaved= 7 IEnMin= 7 EnMin= -257.868814168563     IErMin= 7 ErrMin= 2.74D-05
 ErrMax= 2.74D-05  0.00D+00 EMaxC= 1.00D-01 BMatC= 3.43D-08 BMatP= 1.46D-07
 IDIUse=1 WtCom= 1.00D+00 WtEn= 0.00D+00
 Coeff-Com:  0.256D-03 0.284D-01 0.269D-01 0.536D-01 0.115D+00 0.357D+00
 Coeff-Com:  0.419D+00
 Coeff:      0.256D-03 0.284D-01 0.269D-01 0.536D-01 0.115D+00 0.357D+00
 Coeff:      0.419D+00
 Gap=     0.172 Goal=   None    Shift=    0.000
 RMSDP=3.28D-06 MaxDP=3.49D-05 DE=-1.18D-07 OVMax= 6.49D-05

 Initial convergence to 1.0D-05 achieved.  Increase integral accuracy.
 Cycle   8  Pass 1  IDiag  1:
 E= -257.868837640012     Delta-E=       -0.000023471449 Rises=F Damp=F
 DIIS: error= 1.10D-05 at cycle   1 NSaved=   1.
 NSaved= 1 IEnMin= 1 EnMin= -257.868837640012     IErMin= 1 ErrMin= 1.10D-05
 ErrMax= 1.10D-05  0.00D+00 EMaxC= 1.00D-01 BMatC= 5.15D-09 BMatP= 5.15D-09
 IDIUse=1 WtCom= 1.00D+00 WtEn= 0.00D+00
 Coeff-Com:  0.100D+01
 Coeff:      0.100D+01
 Gap=     0.172 Goal=   None    Shift=    0.000
 RMSDP=3.28D-06 MaxDP=3.49D-05 DE=-2.35D-05 OVMax= 3.17D-05

 Cycle   9  Pass 1  IDiag  1:
 E= -257.868837646148     Delta-E=       -0.000000006136 Rises=F Damp=F
 DIIS: error= 9.10D-06 at cycle   2 NSaved=   2.
 NSaved= 2 IEnMin= 2 EnMin= -257.868837646148     IErMin= 2 ErrMin= 9.10D-06
 ErrMax= 9.10D-06  0.00D+00 EMaxC= 1.00D-01 BMatC= 2.29D-09 BMatP= 5.15D-09
 IDIUse=1 WtCom= 1.00D+00 WtEn= 0.00D+00
 Coeff-Com:  0.343D+00 0.657D+00
 Coeff:      0.343D+00 0.657D+00
 Gap=     0.172 Goal=   None    Shift=    0.000
 RMSDP=2.64D-06 MaxDP=2.55D-05 DE=-6.14D-09 OVMax= 5.50D-05

 Cycle  10  Pass 1  IDiag  1:
 E= -257.868837643206     Delta-E=        0.000000002943 Rises=F Damp=F
 DIIS: error= 1.46D-05 at cycle   3 NSaved=   3.
 NSaved= 3 IEnMin= 2 EnMin= -257.868837646148     IErMin= 2 ErrMin= 9.10D-06
 ErrMax= 1.46D-05  0.00D+00 EMaxC= 1.00D-01 BMatC= 5.53D-09 BMatP= 2.29D-09
 IDIUse=1 WtCom= 1.00D+00 WtEn= 0.00D+00
 Coeff-Com:  0.335D-01 0.594D+00 0.372D+00
 Coeff:      0.335D-01 0.594D+00 0.372D+00
 Gap=     0.172 Goal=   None    Shift=    0.000
 RMSDP=1.54D-06 MaxDP=1.78D-05 DE= 2.94D-09 OVMax= 3.60D-05

 Cycle  11  Pass 1  IDiag  1:
 E= -257.868837648226     Delta-E=       -0.000000005020 Rises=F Damp=F
 DIIS: error= 2.71D-06 at cycle   4 NSaved=   4.
 NSaved= 4 IEnMin= 4 EnMin= -257.868837648226     IErMin= 4 ErrMin= 2.71D-06
 ErrMax= 2.71D-06  0.00D+00 EMaxC= 1.00D-01 BMatC= 2.05D-10 BMatP= 2.29D-09
 IDIUse=1 WtCom= 1.00D+00 WtEn= 0.00D+00
 Coeff-Com:  0.640D-02 0.380D+00 0.251D+00 0.362D+00
 Coeff:      0.640D-02 0.380D+00 0.251D+00 0.362D+00
 Gap=     0.172 Goal=   None    Shift=    0.000
 RMSDP=3.30D-07 MaxDP=4.34D-06 DE=-5.02D-09 OVMax= 7.91D-06

 Cycle  12  Pass 1  IDiag  1:
 E= -257.868837648377     Delta-E=       -0.000000000151 Rises=F Damp=F
 DIIS: error= 1.39D-06 at cycle   5 NSaved=   5.
 NSaved= 5 IEnMin= 5 EnMin= -257.868837648377     IErMin= 5 ErrMin= 1.39D-06
 ErrMax= 1.39D-06  0.00D+00 EMaxC= 1.00D-01 BMatC= 3.67D-11 BMatP= 2.05D-10
 IDIUse=1 WtCom= 1.00D+00 WtEn= 0.00D+00
 Coeff-Com:  0.791D-03 0.191D+00 0.126D+00 0.294D+00 0.388D+00
 Coeff:      0.791D-03 0.191D+00 0.126D+00 0.294D+00 0.388D+00
 Gap=     0.172 Goal=   None    Shift=    0.000
 RMSDP=1.55D-07 MaxDP=1.39D-06 DE=-1.51D-10 OVMax= 3.00D-06

 Cycle  13  Pass 1  IDiag  1:
 E= -257.868837648411     Delta-E=       -0.000000000035 Rises=F Damp=F
 DIIS: error= 2.04D-07 at cycle   6 NSaved=   6.
 NSaved= 6 IEnMin= 6 EnMin= -257.868837648411     IErMin= 6 ErrMin= 2.04D-07
 ErrMax= 2.04D-07  0.00D+00 EMaxC= 1.00D-01 BMatC= 2.39D-12 BMatP= 3.67D-11
 IDIUse=1 WtCom= 1.00D+00 WtEn= 0.00D+00
 Coeff-Com: -0.565D-03 0.974D-01 0.633D-01 0.171D+00 0.252D+00 0.417D+00
 Coeff:     -0.565D-03 0.974D-01 0.633D-01 0.171D+00 0.252D+00 0.417D+00
 Gap=     0.172 Goal=   None    Shift=    0.000
 RMSDP=4.15D-08 MaxDP=4.83D-07 DE=-3.47D-11 OVMax= 7.86D-07

 Cycle  14  Pass 1  IDiag  1:
 E= -257.868837648415     Delta-E=       -0.000000000004 Rises=F Damp=F
 DIIS: error= 6.62D-08 at cycle   7 NSaved=   7.
 NSaved= 7 IEnMin= 7 EnMin= -257.868837648415     IErMin= 7 ErrMin= 6.62D-08
 ErrMax= 6.62D-08  0.00D+00 EMaxC= 1.00D-01 BMatC= 2.53D-13 BMatP= 2.39D-12
 IDIUse=1 WtCom= 1.00D+00 WtEn= 0.00D+00
 Coeff-Com: -0.344D-03 0.283D-01 0.181D-01 0.612D-01 0.931D-01 0.276D+00
 Coeff-Com:  0.523D+00
 Coeff:     -0.344D-03 0.283D-01 0.181D-01 0.612D-01 0.931D-01 0.276D+00
 Coeff:      0.523D+00
 Gap=     0.172 Goal=   None    Shift=    0.000
 RMSDP=1.46D-08 MaxDP=1.04D-07 DE=-3.87D-12 OVMax= 2.40D-07

 Cycle  15  Pass 1  IDiag  1:
 E= -257.868837648415     Delta-E=        0.000000000001 Rises=F Damp=F
 DIIS: error= 9.81D-09 at cycle   8 NSaved=   8.
 NSaved= 8 IEnMin= 7 EnMin= -257.868837648415     IErMin= 8 ErrMin= 9.81D-09
 ErrMax= 9.81D-09  0.00D+00 EMaxC= 1.00D-01 BMatC= 1.94D-15 BMatP= 2.53D-13
 IDIUse=1 WtCom= 1.00D+00 WtEn= 0.00D+00
 Coeff-Com: -0.746D-04 0.413D-02 0.269D-02 0.901D-02 0.170D-01 0.480D-01
 Coeff-Com:  0.129D+00 0.790D+00
 Coeff:     -0.746D-04 0.413D-02 0.269D-02 0.901D-02 0.170D-01 0.480D-01
 Coeff:      0.129D+00 0.790D+00
 Gap=     0.172 Goal=   None    Shift=    0.000
 RMSDP=1.52D-09 MaxDP=1.49D-08 DE= 8.53D-13 OVMax= 2.66D-08

 SCF Done:  E(RPBE-PBE) =  -257.868837648     A.U. after   15 cycles
            NFock= 15  Conv=0.15D-08     -V/T= 2.0050
 KE= 2.565910039420D+02 PE=-9.261089505906D+02 EE= 2.495681572794D+02
 Leave Link  502 at Mon Dec 16 15:02:17 2013, MaxMem=   436000000 cpu:         4.4
 (Enter /usr/local/gaussian/g09.d01.em64t.legacy.linda/g09/l701.exe)
 Compute integral first derivatives.
 ... and contract with generalized density number  0.
 Leave Link  701 at Mon Dec 16 15:02:17 2013, MaxMem=   436000000 cpu:         1.5
 (Enter /usr/local/gaussian/g09.d01.em64t.legacy.linda/g09/l702.exe)
 L702 exits ... SP integral derivatives will be done elsewhere.
 Leave Link  702 at Mon Dec 16 15:02:17 2013, MaxMem=   436000000 cpu:         0.2
 (Enter /usr/local/gaussian/g09.d01.em64t.legacy.linda/g09/l703.exe)
 Compute integral first derivatives, UseDBF=F ICtDFT=           0.
 Integral derivatives from FoFJK, PRISM(SPDF).
 Calling FoFJK, ICntrl=      2527 FMM=F ISym2X=1 I1Cent= 0 IOpClX= 0 NMat=1 NMatS=1 NMatT=0.
 FoFJK:  IHMeth= 1 ICntrl=    2527 DoSepK=F KAlg= 0 I1Cent=   0 FoldK=F
 IRaf=         0 NMat=   1 IRICut=       1 DoRegI=T DoRafI=F ISym2E= 1.
 FoFCou: FMM=F IPFlag=           0 FMFlag=      100000 FMFlg1=         800
         NFxFlg=           0 DoJE=F BraDBF=F KetDBF=F FulRan=T
         wScrn=  0.000000 ICntrl=    2527 IOpCl=  0 I1Cent=           0 NGrid=           0
         NMat0=    1 NMatS0=      1 NMatT0=    0 NMatD0=    1 NMtDS0=    0 NMtDT0=    0
 Petite list used in FoFCou.
 Leave Link  703 at Mon Dec 16 15:02:18 2013, MaxMem=   436000000 cpu:         2.0
[...]
      1  0.902387D+00
      2  0.330258D-01  0.532284D+00
      3  0.000000D+00  0.000000D+00  0.132554D+00
      4 -0.151678D+00 -0.557298D-01  0.000000D+00  0.454096D+00
      5 -0.926639D-01 -0.248905D+00  0.000000D+00 -0.113880D+00  0.929107D+00
      6  0.000000D+00  0.000000D+00 -0.630583D-01  0.000000D+00  0.000000D+00
      7 -0.904542D-01 -0.885525D-01  0.000000D+00 -0.126938D+00 -0.341714D-01
      8 -0.269855D-02 -0.214768D-01  0.000000D+00 -0.604991D-02 -0.890299D-01
      9  0.000000D+00  0.000000D+00  0.203218D-01  0.000000D+00  0.000000D+00
     10 -0.116483D+00  0.610497D-01  0.000000D+00 -0.807064D-01  0.355123D-01
     11 -0.198131D-01  0.135161D-01  0.000000D+00  0.994719D-01 -0.884760D-01
     12  0.000000D+00  0.000000D+00  0.169687D-01  0.000000D+00  0.000000D+00
     13 -0.197629D+00  0.111834D+00  0.000000D+00  0.212329D-01  0.739260D-01
     14  0.107024D+00 -0.217027D+00  0.000000D+00 -0.241303D-01 -0.985046D-01
     15  0.000000D+00  0.000000D+00 -0.723378D-01  0.000000D+00  0.000000D+00
     16 -0.361727D+00 -0.456319D-01  0.000000D+00 -0.898098D-03  0.360702D-02
     17 -0.416256D-01 -0.541803D-01  0.000000D+00 -0.324888D-01  0.381038D-03
     18  0.000000D+00  0.000000D+00 -0.281464D-01  0.000000D+00  0.000000D+00
     19  0.155838D-01 -0.159952D-01  0.000000D+00 -0.115108D+00  0.127670D+00
     20  0.167516D-01 -0.421070D-02  0.000000D+00  0.132807D+00 -0.404573D+00
     21  0.000000D+00  0.000000D+00 -0.630149D-02  0.000000D+00  0.000000D+00
                6             7             8             9            10 
      6  0.102326D+00
      7  0.000000D+00  0.330879D+00
      8  0.000000D+00  0.884140D-01  0.431068D+00
      9 -0.645452D-01  0.000000D+00  0.000000D+00  0.997492D-01
     10  0.000000D+00 -0.807964D-01 -0.219385D-01  0.000000D+00  0.380058D+00
     11  0.000000D+00  0.444250D-01 -0.220892D+00  0.000000D+00 -0.108239D+00
     12  0.224562D-01  0.000000D+00  0.000000D+00 -0.831285D-01  0.000000D+00
     13  0.000000D+00 -0.368046D-01 -0.940979D-01  0.000000D+00 -0.907142D-01
     14  0.000000D+00 -0.589274D-02 -0.969946D-01  0.000000D+00  0.347958D-01
     15  0.201225D-01  0.000000D+00  0.000000D+00  0.305066D-01  0.000000D+00
     16  0.000000D+00  0.123907D-02  0.373526D-02  0.000000D+00 -0.241823D-03
     17  0.000000D+00 -0.122144D-03 -0.659052D-02  0.000000D+00  0.553268D-02
     18 -0.210977D-02  0.000000D+00  0.000000D+00  0.526454D-02  0.000000D+00
     19  0.000000D+00  0.287551D-02  0.326357D-01  0.000000D+00 -0.111170D-01
     20  0.000000D+00 -0.410026D-02  0.391610D-02  0.000000D+00 -0.671313D-02
     21 -0.151916D-01  0.000000D+00  0.000000D+00 -0.816841D-02  0.000000D+00
               11            12            13            14            15 
     11  0.359204D+00
     12  0.000000D+00  0.106858D+00
     13 -0.196022D-01  0.000000D+00  0.317449D+00
     14 -0.622866D-01  0.000000D+00 -0.970774D-01  0.468483D+00
     15  0.000000D+00 -0.783049D-01  0.000000D+00  0.000000D+00  0.974662D-01
     16 -0.758659D-03  0.000000D+00 -0.977876D-02 -0.484883D-02  0.000000D+00
     17 -0.300557D-02  0.000000D+00  0.238406D-01  0.884591D-02  0.000000D+00
     18  0.000000D+00  0.842792D-02  0.000000D+00  0.000000D+00 -0.452021D-02
     19  0.451583D-02  0.000000D+00 -0.375524D-02 -0.987035D-02  0.000000D+00
     20  0.194029D-02  0.000000D+00  0.117693D-02 -0.251631D-02  0.000000D+00
     21  0.000000D+00  0.672216D-02  0.000000D+00  0.000000D+00  0.706757D-02
               16            17            18            19            20 
     16  0.371724D+00
     17  0.446979D-01  0.550155D-01
     18  0.000000D+00  0.000000D+00  0.217314D-01
     19 -0.317994D-03  0.165422D-03  0.000000D+00  0.111839D+00
     20 -0.800798D-03 -0.466084D-03  0.000000D+00 -0.139121D+00  0.405910D+00
     21  0.000000D+00  0.000000D+00 -0.647440D-03  0.000000D+00  0.000000D+00
               21 
     21  0.165192D-01
 FormGI is forming the generalized inverse of G from B-inverse, IUseBI=4.
 Force constants in internal coordinates: 
                1             2             3             4             5 
      1  0.370126D+00
      2  0.340672D-01  0.399067D+00
      3  0.802043D-03  0.315141D-02  0.377903D+00
      4  0.228088D-01  0.342128D-01 -0.813601D-03  0.231737D+00
      5 -0.298359D-02 -0.266275D-03  0.688011D-03 -0.145913D-02  0.461294D+00
      6  0.615413D-01  0.566649D-01 -0.387698D-02  0.447510D-01 -0.285761D-02
      7  0.292922D-01  0.294872D-01 -0.225062D-02  0.553307D-01 -0.562499D-02
      8 -0.246788D-01 -0.221852D-01 -0.591624D-02 -0.403742D-01  0.401832D-02
      9  0.295189D-01 -0.273533D-02  0.422283D-02  0.136440D-01 -0.159639D-02
     10 -0.484008D-02  0.249205D-01  0.169341D-02  0.267302D-01 -0.242193D-02
     11 -0.309855D-01 -0.358245D-01  0.228032D-02 -0.167093D-02 -0.656178D-02
     12  0.249921D-01  0.144316D-01 -0.587791D-03 -0.104606D-01  0.385484D-02
     13  0.599340D-02  0.213928D-01 -0.169253D-02  0.121315D-01  0.270695D-02
     14 -0.343078D-01  0.125272D+00  0.117343D-02 -0.845554D-02  0.543329D-02
     15  0.120456D+00 -0.301992D-01 -0.144954D-02 -0.473616D-01 -0.211897D-02
     16 -0.304839D-01 -0.370627D-01  0.391203D-02  0.978623D-01 -0.770864D-03
     17  0.000000D+00  0.000000D+00  0.000000D+00  0.000000D+00  0.000000D+00
     18  0.000000D+00  0.000000D+00  0.000000D+00  0.000000D+00  0.000000D+00
     19  0.000000D+00  0.000000D+00  0.000000D+00  0.000000D+00  0.000000D+00
     20  0.000000D+00  0.000000D+00  0.000000D+00  0.000000D+00  0.000000D+00
     21  0.000000D+00  0.000000D+00  0.000000D+00  0.000000D+00  0.000000D+00
     22  0.000000D+00  0.000000D+00  0.000000D+00  0.000000D+00  0.000000D+00
     23  0.000000D+00  0.000000D+00  0.000000D+00  0.000000D+00  0.000000D+00
     24  0.000000D+00  0.000000D+00  0.000000D+00  0.000000D+00  0.000000D+00
     25  0.000000D+00  0.000000D+00  0.000000D+00  0.000000D+00  0.000000D+00
     26  0.000000D+00  0.000000D+00  0.000000D+00  0.000000D+00  0.000000D+00
                6             7             8             9            10 
      6  0.302016D+00
      7  0.410758D-01  0.177462D+00
      8  0.733596D-01 -0.250477D-01  0.120648D+00
      9 -0.352807D-01  0.153872D-01 -0.604191D-01  0.813649D-01
     10 -0.380788D-01  0.966045D-02 -0.602285D-01 -0.209458D-01  0.811743D-01
     11 -0.158923D-01  0.600695D-01 -0.658483D-01  0.351878D-01  0.306605D-01
     12  0.103601D-01 -0.294850D-01  0.356083D-01 -0.189896D-01 -0.166187D-01
     13  0.553220D-02 -0.305844D-01  0.302401D-01 -0.161982D-01 -0.140418D-01
     14 -0.171580D-01 -0.181755D-01  0.446254D-02 -0.979568D-02  0.533314D-02
     15 -0.316405D-01 -0.240597D-01  0.299543D-01 -0.650071D-02 -0.234536D-01
     16 -0.866876D-02  0.721330D-02 -0.892162D-01  0.415277D-01  0.476885D-01
     17  0.000000D+00  0.000000D+00  0.000000D+00  0.000000D+00  0.000000D+00
     18  0.000000D+00  0.000000D+00  0.000000D+00  0.000000D+00  0.000000D+00
     19  0.000000D+00  0.000000D+00  0.000000D+00  0.000000D+00  0.000000D+00
     20  0.000000D+00  0.000000D+00  0.000000D+00  0.000000D+00  0.000000D+00
     21  0.000000D+00  0.000000D+00  0.000000D+00  0.000000D+00  0.000000D+00
     22  0.000000D+00  0.000000D+00  0.000000D+00  0.000000D+00  0.000000D+00
     23  0.000000D+00  0.000000D+00  0.000000D+00  0.000000D+00  0.000000D+00
     24  0.000000D+00  0.000000D+00  0.000000D+00  0.000000D+00  0.000000D+00
     25  0.000000D+00  0.000000D+00  0.000000D+00  0.000000D+00  0.000000D+00
     26  0.000000D+00  0.000000D+00  0.000000D+00  0.000000D+00  0.000000D+00
               11            12            13            14            15 
     11  0.123540D+00
     12 -0.573855D-01  0.784582D-01
     13 -0.661548D-01 -0.210727D-01  0.872276D-01
     14 -0.106697D+00  0.440085D-01  0.626885D-01  0.191786D+00
     15  0.457584D-01 -0.970048D-02 -0.360579D-01 -0.151747D+00  0.221388D+00
     16  0.324665D-02 -0.125308D-01  0.928416D-02  0.621959D-01 -0.145353D+00
     17  0.000000D+00  0.000000D+00  0.000000D+00  0.000000D+00  0.000000D+00
     18  0.000000D+00  0.000000D+00  0.000000D+00  0.000000D+00  0.000000D+00
     19  0.000000D+00  0.000000D+00  0.000000D+00  0.000000D+00  0.000000D+00
     20  0.000000D+00  0.000000D+00  0.000000D+00  0.000000D+00  0.000000D+00
     21  0.000000D+00  0.000000D+00  0.000000D+00  0.000000D+00  0.000000D+00
     22  0.000000D+00  0.000000D+00  0.000000D+00  0.000000D+00  0.000000D+00
     23  0.000000D+00  0.000000D+00  0.000000D+00  0.000000D+00  0.000000D+00
     24  0.000000D+00  0.000000D+00  0.000000D+00  0.000000D+00  0.000000D+00
     25  0.000000D+00  0.000000D+00  0.000000D+00  0.000000D+00  0.000000D+00
     26  0.000000D+00  0.000000D+00  0.000000D+00  0.000000D+00  0.000000D+00
               16            17            18            19            20 
     16  0.169127D+00
     17  0.000000D+00  0.245655D-01
     18  0.000000D+00  0.932486D-02  0.118422D-01
     19  0.000000D+00  0.786987D-02 -0.353056D-02  0.133240D-01
     20  0.000000D+00 -0.737079D-02 -0.101317D-02  0.192354D-02  0.828116D-02
     21  0.000000D+00 -0.197135D-01 -0.111826D-01 -0.264159D-02  0.588931D-02
     22  0.000000D+00 -0.290732D-02  0.175792D-02 -0.813180D-02 -0.346655D-02
     23  0.000000D+00 -0.186963D-01 -0.314831D-02 -0.991087D-02  0.563714D-02
     24  0.000000D+00 -0.535790D-02 -0.535149D-02  0.666261D-04  0.730383D-04
     25  0.000000D+00  0.644160D-02 -0.387092D-02  0.833594D-02 -0.197658D-02
     26  0.000000D+00  0.804955D-02  0.947444D-02 -0.379562D-02 -0.237073D-02
               21            22            23            24            25 
     21  0.238155D-01
     22  0.663053D-02  0.118896D-01
     23  0.646949D-02 -0.237412D-02  0.233382D-01
     24 -0.996637D-03 -0.645708D-02  0.973073D-02  0.972512D-02
     25  0.848140D-02  0.657452D-02 -0.194725D-01 -0.104471D-01  0.249946D-01
     26 -0.203326D-01 -0.840897D-02  0.868075D-02  0.743371D-02 -0.215740D-01
               26 
     26  0.267080D-01
 Leave Link  716 at Mon Dec 16 15:02:29 2013, MaxMem=   436000000 cpu:         0.2
 (Enter /usr/local/gaussian/g09.d01.em64t.legacy.linda/g09/l103.exe)

 GradGradGradGradGradGradGradGradGradGradGradGradGradGradGradGradGradGrad
 Berny optimization.
 Red2BG is reusing G-inverse.
 Internal  Forces:  Max     0.000398065 RMS     0.000129179
 Search for a local minimum.
 Step number   1 out of a maximum of    2
 All quantities printed in internal units (Hartrees-Bohrs-Radians)
 Second derivative matrix not updated -- analytic derivatives used.
 ITU=  0
     Eigenvalues ---    0.01051   0.02538   0.06873   0.07386   0.09481
     Eigenvalues ---    0.10196   0.12822   0.16251   0.29612   0.33410
     Eigenvalues ---    0.37854   0.41865   0.46383   0.50885   0.58674
 Angle between quadratic step and forces=  26.68 degrees.
 Linear search not attempted -- first point.
 Iteration  1 RMS(Cart)=  0.00047346 RMS(Int)=  0.00000017
 Iteration  2 RMS(Cart)=  0.00000014 RMS(Int)=  0.00000007
 ITry= 1 IFail=0 DXMaxC= 1.12D-03 DCOld= 1.00D+10 DXMaxT= 3.00D-01 DXLimC= 3.00D+00 Rises=F
 ClnCor:  largest displacement from symmetrization is 1.81D-12 for atom     7.
 Variable       Old X    -DE/DX   Delta X   Delta X   Delta X     New X
                                 (Linear)    (Quad)   (Total)
    R1        2.57938   0.00019   0.00000   0.00039   0.00039   2.57977
    R2        2.54061   0.00019   0.00000   0.00025   0.00025   2.54085
    R3        2.04593   0.00001   0.00000   0.00004   0.00004   2.04597
    R4        2.64937   0.00033   0.00000   0.00186   0.00186   2.65122
    R5        1.91852   0.00004   0.00000   0.00008   0.00008   1.91860
    R6        2.51700  -0.00040   0.00000  -0.00211  -0.00211   2.51489
    R7        2.68706   0.00021   0.00000   0.00161   0.00161   2.68868
    A1        1.90767  -0.00006   0.00000   0.00045   0.00045   1.90812
    A2        2.18311   0.00004   0.00000  -0.00009  -0.00009   2.18302
    A3        2.19241   0.00003   0.00000  -0.00036  -0.00036   2.19205
    A4        1.90408  -0.00011   0.00000  -0.00079  -0.00079   1.90329
    A5        2.28276   0.00006   0.00000   0.00062   0.00062   2.28338
    A6        2.09634   0.00005   0.00000   0.00017   0.00017   2.09651
    A7        1.83839   0.00013   0.00000   0.00047   0.00047   1.83886
    A8        1.93548   0.00005   0.00000   0.00041   0.00041   1.93589
    A9        1.83915   0.00000   0.00000  -0.00054  -0.00054   1.83862
    D1        0.00000   0.00000   0.00000   0.00000   0.00000   0.00000
    D2        3.14159   0.00000   0.00000   0.00000   0.00000   3.14159
    D3        3.14159   0.00000   0.00000   0.00000   0.00000   3.14159
    D4        0.00000   0.00000   0.00000   0.00000   0.00000   0.00000
    D5        0.00000   0.00000   0.00000   0.00000   0.00000   0.00000
    D6        3.14159   0.00000   0.00000   0.00000   0.00000   3.14159
    D7        0.00000   0.00000   0.00000   0.00000   0.00000   0.00000
    D8        3.14159   0.00000   0.00000   0.00000   0.00000   3.14159
    D9        0.00000   0.00000   0.00000   0.00000   0.00000   0.00000
   D10        0.00000   0.00000   0.00000   0.00000   0.00000   0.00000
         Item               Value     Threshold  Converged?
 Maximum Force            0.000398     0.000450     YES
 RMS     Force            0.000129     0.000300     YES
 Maximum Displacement     0.001116     0.001800     YES
 RMS     Displacement     0.000473     0.001200     YES
 Predicted change in Energy=-1.052055D-06
 Optimization completed.
    -- Stationary point found.
                           ----------------------------
                           !   Optimized Parameters   !
                           ! (Angstroms and Degrees)  !
 --------------------------                            --------------------------
 ! Name  Definition              Value          Derivative Info.                !
 --------------------------------------------------------------------------------
 ! R1    R(1,2)                  1.365          -DE/DX =    0.0002              !
 ! R2    R(1,5)                  1.3444         -DE/DX =    0.0002              !
 ! R3    R(1,6)                  1.0827         -DE/DX =    0.0                 !
 ! R4    R(2,3)                  1.402          -DE/DX =    0.0003              !
 ! R5    R(2,7)                  1.0152         -DE/DX =    0.0                 !
 ! R6    R(3,4)                  1.3319         -DE/DX =   -0.0004              !
 ! R7    R(4,5)                  1.4219         -DE/DX =    0.0002              !
 ! A1    A(2,1,5)              109.3014         -DE/DX =   -0.0001              !
 ! A2    A(2,1,6)              125.0828         -DE/DX =    0.0                 !
 ! A3    A(5,1,6)              125.6158         -DE/DX =    0.0                 !
 ! A4    A(1,2,3)              109.0957         -DE/DX =   -0.0001              !
 ! A5    A(1,2,7)              130.7926         -DE/DX =    0.0001              !
 ! A6    A(3,2,7)              120.1117         -DE/DX =    0.0001              !
 ! A7    A(2,3,4)              105.3321         -DE/DX =    0.0001              !
 ! A8    A(3,4,5)              110.895          -DE/DX =    0.0001              !
 ! A9    A(1,5,4)              105.3758         -DE/DX =    0.0                 !
 ! D1    D(5,1,2,3)              0.0            -DE/DX =    0.0                 !
 ! D2    D(5,1,2,7)            180.0            -DE/DX =    0.0                 !
 ! D3    D(6,1,2,3)            180.0            -DE/DX =    0.0                 !
 ! D4    D(6,1,2,7)              0.0            -DE/DX =    0.0                 !
 ! D5    D(2,1,5,4)              0.0            -DE/DX =    0.0                 !
 ! D6    D(6,1,5,4)            180.0            -DE/DX =    0.0                 !
 ! D7    D(1,2,3,4)              0.0            -DE/DX =    0.0                 !
 ! D8    D(7,2,3,4)            180.0            -DE/DX =    0.0                 !
 ! D9    D(2,3,4,5)              0.0            -DE/DX =    0.0                 !
 ! D10   D(3,4,5,1)              0.0            -DE/DX =    0.0                 !
 --------------------------------------------------------------------------------
 GradGradGradGradGradGradGradGradGradGradGradGradGradGradGradGradGradGrad

 Leave Link  103 at Mon Dec 16 15:02:29 2013, MaxMem=   436000000 cpu:         0.1
 (Enter /usr/local/gaussian/g09.d01.em64t.legacy.linda/g09/l9999.exe)
 1\1\GINC-N929\Freq\RPBEPBE\6-31G\C1H2N4\RDJ3\16-Dec-2013\0\\#P Geom=Al
 lCheck Guess=TCheck SCRF=Check GenChk RPBEPBE/6-31G Freq\\1H-tetrazole
  CH2N4 casno=288948 state=1 config=1 method=61 basis=9\\0,1\C,1.030754
 3455,0.0040151619,0.\N,0.4022875861,-1.2076458014,0.\N,-0.9849447424,-
 1.0047950827,0.\N,-1.1475649501,0.3171816714,0.\N,0.1089986375,0.98271
 86635,0.\H,2.1037353144,0.1484748008,0.\H,0.7791905969,-2.1503307677,0
 .\\Version=EM64L-G09RevD.01\State=1-A'\HF=-257.8691252\RMSD=3.364e-09\
 RMSF=2.142e-04\ZeroPoint=0.0445434\Thermal=0.0481228\Dipole=1.7775976,
 -1.3361875,0.\DipoleDeriv=0.1293418,0.0495172,0.,-0.1091729,0.3482396,
 0.,0.,0.,0.0594567,-0.2985936,0.2555421,0.,0.1966903,-0.3601514,0.,0.,
 0.,-0.2358103,0.1759727,-0.2843867,0.,-0.2847922,-0.1339659,0.,0.,0.,-
 0.0755141,0.1189755,0.0554026,0.,0.1535446,-0.062137,0.,0.,0.,-0.16854
 19,-0.4023276,-0.0743533,0.,0.031423,-0.1671354,0.,0.,0.,-0.1789411,0.
 073135,0.0008483,0.,0.0173464,0.1335944,0.,0.,0.,0.195718,0.2034962,-0
 .0025702,0.,-0.0050392,0.2415556,0.,0.,0.,0.4036326\Polar=40.2970887,-
 0.5755737,38.3734125,0.,0.,14.1168016\PG=CS [SG(C1H2N4)]\NImag=0\\0.90
 238690,0.03302583,0.53228390,0.,0.,0.13255351,-0.15167844,-0.05572981,
 0.,0.45409562,-0.09266395,-0.24890489,0.,-0.11388019,0.92910746,0.,0.,
 -0.06305827,0.,0.,0.10232620,-0.09045423,-0.08855249,0.,-0.12693790,-0
 .03417138,0.,0.33087858,-0.00269855,-0.02147684,0.,-0.00604991,-0.0890
 2994,0.,0.08841396,0.43106800,0.,0.,0.02032180,0.,0.,-0.06454524,0.,0.
 ,0.09974916,-0.11648262,0.06104968,0.,-0.08070637,0.03551231,0.,-0.080
 79642,-0.02193851,0.,0.38005846,-0.01981307,0.01351611,0.,0.09947188,-
 0.08847600,0.,0.04442505,-0.22089221,0.,-0.10823884,0.35920398,0.,0.,0
 .01696868,0.,0.,0.02245617,0.,0.,-0.08312851,0.,0.,0.10685846,-0.19762
 857,0.11183388,0.,0.02123291,0.07392603,0.,-0.03680462,-0.09409790,0.,
 -0.09071423,-0.01960220,0.,0.31744852,0.10702376,-0.21702730,0.,-0.024
 13029,-0.09850460,0.,-0.00589274,-0.09699459,0.,0.03479581,-0.06228661
 ,0.,-0.09707736,0.46848350,0.,0.,-0.07233782,0.,0.,0.02012248,0.,0.,0.
 03050665,0.,0.,-0.07830488,0.,0.,0.09746621,-0.36172687,-0.04563185,0.
 ,-0.00089810,0.00360702,0.,0.00123907,0.00373526,0.,-0.00024182,-0.000
 75866,0.,-0.00977876,-0.00484883,0.,0.37172448,-0.04162564,-0.05418029
 ,0.,-0.03248881,0.00038104,0.,-0.00012214,-0.00659052,0.,0.00553268,-0
 .00300557,0.,0.02384061,0.00884591,0.,0.04469788,0.05501551,0.,0.,-0.0
 2814641,0.,0.,-0.00210977,0.,0.,0.00526454,0.,0.,0.00842792,0.,0.,-0.0
 0452021,0.,0.,0.02173137,0.01558383,-0.01599524,0.,-0.11510773,0.12767
 016,0.,0.00287551,0.03263567,0.,-0.01111699,0.00451583,0.,-0.00375524,
 -0.00987035,0.,-0.00031799,0.00016542,0.,0.11183861,0.01675163,-0.0042
 1070,0.,0.13280712,-0.40457306,0.,-0.00410026,0.00391610,0.,-0.0067131
 3,0.00194029,0.,0.00117693,-0.00251631,0.,-0.00080080,-0.00046608,0.,-
 0.13912149,0.40590976,0.,0.,-0.00630149,0.,0.,-0.01519157,0.,0.,-0.008
 16841,0.,0.,0.00672216,0.,0.,0.00706757,0.,0.,-0.00064744,0.,0.,0.0165
 1918\\-0.00020850,-0.00006214,0.,-0.00024464,0.00029963,0.,0.00033144,
 -0.00055259,0.,0.00016114,0.00051926,0.,-0.00001647,-0.00023120,0.,-0.
 00000670,-0.00001216,0.,-0.00001627,0.00003920,0.\\\@


 THERE ONCE WAS A GIRL NAMED IRENE,
 WHO LIVED ON DISTILLED KEROSENE,
      BUT SHE STARTED ABSORBIN'
      A NEW HYDROCARBON,
 AND SINCE THEN HAS NEVER BENZENE.
 Job cpu time:       0 days  0 hours  0 minutes 29.1 seconds.
 File lengths (MBytes):  RWF=      5 Int=      0 D2E=      0 Chk=      1 Scr=      1
 Normal termination of Gaussian 09 at Mon Dec 16 15:02:29 2013.
