 Entering Gaussian System, Link 0=g09
 Initial command:
 /usr/local/gaussian/g09.d01.em64t.legacy.linda/g09/l1.exe "/tmp/rdj3/g09-31683/Gau-7761.inp" -scrdir="/tmp/rdj3/g09-31683/"
 Entering Link 1 = /usr/local/gaussian/g09.d01.em64t.legacy.linda/g09/l1.exe PID=      7762.
  
 Copyright (c) 1988,1990,1992,1993,1995,1998,2003,2009,2013,
            Gaussian, Inc.  All Rights Reserved.
  
 This is part of the Gaussian(R) 09 program.  It is based on
 the Gaussian(R) 03 system (copyright 2003, Gaussian, Inc.),
 the Gaussian(R) 98 system (copyright 1998, Gaussian, Inc.),
 the Gaussian(R) 94 system (copyright 1995, Gaussian, Inc.),
 the Gaussian 92(TM) system (copyright 1992, Gaussian, Inc.),
 the Gaussian 90(TM) system (copyright 1990, Gaussian, Inc.),
 the Gaussian 88(TM) system (copyright 1988, Gaussian, Inc.),
 the Gaussian 86(TM) system (copyright 1986, Carnegie Mellon
 University), and the Gaussian 82(TM) system (copyright 1983,
 Carnegie Mellon University). Gaussian is a federally registered
 trademark of Gaussian, Inc.
  
 This software contains proprietary and confidential information,
 including trade secrets, belonging to Gaussian, Inc.
  
 This software is provided under written license and may be
 used, copied, transmitted, or stored only in accord with that
 written license.
  
 The following legend is applicable only to US Government
 contracts under FAR:
  
                    RESTRICTED RIGHTS LEGEND
  
 Use, reproduction and disclosure by the US Government is
 subject to restrictions as set forth in subparagraphs (a)
 and (c) of the Commercial Computer Software - Restricted
 Rights clause in FAR 52.227-19.
  
 Gaussian, Inc.
 340 Quinnipiac St., Bldg. 40, Wallingford CT 06492
  
  
 ---------------------------------------------------------------
 Warning -- This program may not be used in any manner that
 competes with the business of Gaussian, Inc. or will provide
 assistance to any competitor of Gaussian, Inc.  The licensee
 of this program is prohibited from giving any competitor of
 Gaussian, Inc. access to this program.  By using this program,
 the user acknowledges that Gaussian, Inc. is engaged in the
 business of creating and licensing software in the field of
 computational chemistry and represents and warrants to the
 licensee that it is not a competitor of Gaussian, Inc. and that
 it will not use this program in any manner prohibited above.
 ---------------------------------------------------------------
  

 Cite this work as:
 Gaussian 09, Revision D.01,
 M. J. Frisch, G. W. Trucks, H. B. Schlegel, G. E. Scuseria, 
 M. A. Robb, J. R. Cheeseman, G. Scalmani, V. Barone, B. Mennucci, 
 G. A. Petersson, H. Nakatsuji, M. Caricato, X. Li, H. P. Hratchian, 
 A. F. Izmaylov, J. Bloino, G. Zheng, J. L. Sonnenberg, M. Hada, 
 M. Ehara, K. Toyota, R. Fukuda, J. Hasegawa, M. Ishida, T. Nakajima, 
 Y. Honda, O. Kitao, H. Nakai, T. Vreven, J. A. Montgomery, Jr., 
 J. E. Peralta, F. Ogliaro, M. Bearpark, J. J. Heyd, E. Brothers, 
 K. N. Kudin, V. N. Staroverov, T. Keith, R. Kobayashi, J. Normand, 
 K. Raghavachari, A. Rendell, J. C. Burant, S. S. Iyengar, J. Tomasi, 
 M. Cossi, N. Rega, J. M. Millam, M. Klene, J. E. Knox, J. B. Cross, 
 V. Bakken, C. Adamo, J. Jaramillo, R. Gomperts, R. E. Stratmann, 
 O. Yazyev, A. J. Austin, R. Cammi, C. Pomelli, J. W. Ochterski, 
 R. L. Martin, K. Morokuma, V. G. Zakrzewski, G. A. Voth, 
 P. Salvador, J. J. Dannenberg, S. Dapprich, A. D. Daniels, 
 O. Farkas, J. B. Foresman, J. V. Ortiz, J. Cioslowski, 
 and D. J. Fox, Gaussian, Inc., Wallingford CT, 2013.
 
 ******************************************
 Gaussian 09:  EM64L-G09RevD.01 24-Apr-2013
                25-Nov-2013 
 ******************************************
 %Nproc=8
 Will use up to    8 processors via shared memory.
 %mem=436000000
 -------------------------------------
 #PBEPBE/6-311G(d,p) opt=z-matrix freq
 -------------------------------------
 1/10=7,14=-1,18=40,26=3,38=1/1,3;
 2/12=2,17=6,18=5,29=3,40=1/2;
 3/5=4,6=6,7=101,11=2,16=1,25=1,30=1,71=1,74=1009/1,2,3;
 4//1;
 5/5=2,38=5/2;
 6/7=2,8=2,9=2,10=2,28=1/1;
 7/29=1/1,2,3,16;
 1/10=7,14=-1,18=40,26=3/3(2);
 2/29=3/2;
 99//99;
 2/29=3/2;
 3/5=4,6=6,7=101,11=2,16=1,25=1,30=1,71=1,74=1009/1,2,3;
 4/5=5,16=3,69=1/1;
 5/5=2,38=5/2;
 7//1,2,3,16;
 1/14=-1,18=40,26=3/3(-5);
 2/29=3/2;
 6/7=2,8=2,9=2,10=2,19=2,28=1/1;
 99/9=1/99;
 Leave Link    1 at Mon Nov 25 17:29:04 2013, MaxMem=   436000000 cpu:         0.4
 (Enter /usr/local/gaussian/g09.d01.em64t.legacy.linda/g09/l101.exe)
 -------------------------------------------------------------------
 1H-tetrazole CH2N4 casno=288948 state=1 config=1 method=61 basis=21
 -------------------------------------------------------------------
 Symbolic Z-matrix:
 Charge =  0 Multiplicity = 1
 X
 X                    1     1. 
 C                    1     1.       2     90. 
 N                    1    rn1      2     90.      3    an1      0
 N                    1    rn2      2     90.      3    an2      0
 N                    1    rn3      2     90.      3    an3      0
 N                    1    rn4      2     90.      3    an4      0
 H                    3    rch      4    ach      5     180.     0
 H                    4    rnh      5    anh      6     180.     0
       Variables:
  rn1                   1.2426                   
  rn2                   1.333                    
  rn3                   1.1146                   
  rn4                   0.9264                   
  rch                   1.0678                   
  rnh                   0.9941                   
  an1                  71.8427                   
  an2                 133.7028                   
  an3                 194.4597                   
  an4                 276.0768                   
  ach                 125.0248                   
  anh                 120.7626                   
 
 NAtoms=      7 NQM=        7 NQMF=       0 NMMI=      0 NMMIF=      0
                NMic=       0 NMicF=      0.
                    Isotopes and Nuclear Properties:
 (Nuclear quadrupole moments (NQMom) in fm**2, nuclear magnetic moments (NMagM)
  in nuclear magnetons)

  Atom         1           2           3           4           5           6           7
 IAtWgt=          12          14          14          14          14           1           1
 AtmWgt=  12.0000000  14.0030740  14.0030740  14.0030740  14.0030740   1.0078250   1.0078250
 NucSpn=           0           2           2           2           2           1           1
 AtZEff=   0.0000000   0.0000000   0.0000000   0.0000000   0.0000000   0.0000000   0.0000000
 NQMom=    0.0000000   2.0440000   2.0440000   2.0440000   2.0440000   0.0000000   0.0000000
 NMagM=    0.0000000   0.4037610   0.4037610   0.4037610   0.4037610   2.7928460   2.7928460
 AtZNuc=   6.0000000   7.0000000   7.0000000   7.0000000   7.0000000   1.0000000   1.0000000
 Leave Link  101 at Mon Nov 25 17:29:04 2013, MaxMem=   436000000 cpu:         0.7
 (Enter /usr/local/gaussian/g09.d01.em64t.legacy.linda/g09/l103.exe)

 GradGradGradGradGradGradGradGradGradGradGradGradGradGradGradGradGradGrad
 Berny optimization.
 Initialization pass.
                       ----------------------------
                       !    Initial Parameters    !
                       ! (Angstroms and Degrees)  !
 ----------------------                            ----------------------
 !      Name          Value   Derivative information (Atomic Units)     !
 ------------------------------------------------------------------------
 !       rn1         1.2426   estimate D2E/DX2                          !
 !       rn2         1.333    estimate D2E/DX2                          !
 !       rn3         1.1146   estimate D2E/DX2                          !
 !       rn4         0.9264   estimate D2E/DX2                          !
 !       rch         1.0678   estimate D2E/DX2                          !
 !       rnh         0.9941   estimate D2E/DX2                          !
 !       an1        71.8427   estimate D2E/DX2                          !
 !       an2       133.7028   estimate D2E/DX2                          !
 !       an3       194.4597   estimate D2E/DX2                          !
 !       an4       276.0768   estimate D2E/DX2                          !
 !       ach       125.0248   estimate D2E/DX2                          !
 !       anh       120.7626   estimate D2E/DX2                          !
 ------------------------------------------------------------------------
 Trust Radius=3.00D-01 FncErr=1.00D-07 GrdErr=1.00D-06
 Number of steps in this run=     22 maximum allowed number of steps=    100.
 GradGradGradGradGradGradGradGradGradGradGradGradGradGradGradGradGradGrad

 Leave Link  103 at Mon Nov 25 17:29:04 2013, MaxMem=   436000000 cpu:         0.1
 (Enter /usr/local/gaussian/g09.d01.em64t.legacy.linda/g09/l202.exe)
 ---------------------------------------------------------------------------------------------------
                            Z-MATRIX (ANGSTROMS AND DEGREES)
   CD    Cent   Atom    N1       Length/X        N2       Alpha/Y        N3        Beta/Z          J
 ---------------------------------------------------------------------------------------------------
      1         X 
      2         X        1   1.000000(     1)
      3      1  C        1   1.000000(     2)      2   90.000(     9)
      4      2  N        1   1.242600(     3)      2   90.000(    10)      3   71.843(    16)      0
      5      3  N        1   1.333000(     4)      2   90.000(    11)      3  133.703(    17)      0
      6      4  N        1   1.114600(     5)      2   90.000(    12)      3  194.460(    18)      0
      7      5  N        1   0.926400(     6)      2   90.000(    13)      3  276.077(    19)      0
      8      6  H        3   1.067800(     7)      4  125.025(    14)      5  180.000(    20)      0
      9      7  H        4   0.994100(     8)      5  120.763(    15)      6  180.000(    21)      0
 ---------------------------------------------------------------------------------------------------
                         Z-Matrix orientation:                         
 ---------------------------------------------------------------------
 Center     Atomic      Atomic             Coordinates (Angstroms)
 Number     Number       Type             X           Y           Z
 ---------------------------------------------------------------------
      1         -1           0        0.000000    0.000000    0.000000
      2         -1           0        0.000000    0.000000    1.000000
      3          6           0        1.000000    0.000000    0.000000
      4          7           0        0.387228   -1.180724    0.000000
      5          7           0       -0.920993   -0.963670    0.000000
      6          7           0       -1.079293    0.278314    0.000000
      7          7           0        0.098070    0.921194    0.000000
      8          1           0        2.058429    0.141157    0.000000
      9          1           0        0.749017   -2.106652    0.000000
 ---------------------------------------------------------------------
                    Distance matrix (angstroms):
                    1          2          3          4          5
     1  X    0.000000
     2  X    1.000000   0.000000
     3  C    1.000000   1.414214   0.000000
     4  N    1.242600   1.595009   1.330263   0.000000
     5  N    1.333000   1.666400   2.149157   1.326105   0.000000
     6  N    1.114600   1.497442   2.097837   2.068690   1.252032
     7  N    0.926400   1.363164   1.289216   2.121715   2.142710
     8  H    2.063263   2.292827   1.067800   2.130794   3.177672
     9  H    2.235847   2.449288   2.121551   0.994100   2.023695
                    6          7          8          9
     6  N    0.000000
     7  N    1.341447   0.000000
     8  H    3.140719   2.109850   0.000000
     9  H    3.005127   3.097029   2.601385   0.000000
 Stoichiometry    CH2N4
 Framework group  CS[SG(CH2N4)]
 Deg. of freedom    11
 Full point group                 CS      NOp   2
 Largest Abelian subgroup         CS      NOp   2
 Largest concise Abelian subgroup C1      NOp   1
                         Standard orientation:                         
 ---------------------------------------------------------------------
 Center     Atomic      Atomic             Coordinates (Angstroms)
 Number     Number       Type             X           Y           Z
 ---------------------------------------------------------------------
      1          6           0        1.052733    0.225621    0.000000
      2          7           0        0.000000    1.038857    0.000000
      3          7           0       -1.095416    0.291448    0.000000
      4          7           0       -0.716382   -0.901832    0.000000
      5          7           0        0.622191   -0.989579    0.000000
      6          1           0        2.072287    0.542964    0.000000
      7          1           0       -0.061439    2.031056    0.000000
 ---------------------------------------------------------------------
 Rotational constants (GHZ):     10.9201517     10.7345054      5.4132664
 Leave Link  202 at Mon Nov 25 17:29:04 2013, MaxMem=   436000000 cpu:         0.0
 (Enter /usr/local/gaussian/g09.d01.em64t.legacy.linda/g09/l301.exe)
 Standard basis: 6-311G(d,p) (5D, 7F)
 Ernie: Thresh=  0.10000D-02 Tol=  0.10000D-05 Strict=F.
 There are    80 symmetry adapted cartesian basis functions of A'  symmetry.
 There are    27 symmetry adapted cartesian basis functions of A"  symmetry.
 There are    75 symmetry adapted basis functions of A'  symmetry.
 There are    27 symmetry adapted basis functions of A"  symmetry.
   102 basis functions,   176 primitive gaussians,   107 cartesian basis functions
    18 alpha electrons       18 beta electrons
       nuclear repulsion energy       169.8308489506 Hartrees.
 IExCor= 1009 DFT=T Ex=PBE Corr=PBE ExCW=0 ScaHFX=  0.000000
 ScaDFX=  1.000000  1.000000  1.000000  1.000000 ScalE2=  1.000000  1.000000
 IRadAn=      0 IRanWt=     -1 IRanGd=            0 ICorTp=0 IEmpDi=  4
 NAtoms=    7 NActive=    7 NUniq=    7 SFac= 1.00D+00 NAtFMM=   60 NAOKFM=F Big=F
 Integral buffers will be    131072 words long.
 Raffenetti 2 integral format.
 Two-electron integral symmetry is turned on.
 Leave Link  301 at Mon Nov 25 17:29:04 2013, MaxMem=   436000000 cpu:         0.3
 (Enter /usr/local/gaussian/g09.d01.em64t.legacy.linda/g09/l302.exe)
 NPDir=0 NMtPBC=     1 NCelOv=     1 NCel=       1 NClECP=     1 NCelD=      1
         NCelK=      1 NCelE2=     1 NClLst=     1 CellRange=     0.0.
 One-electron integrals computed using PRISM.
 NBasis=   102 RedAO= T EigKep=  4.05D-03  NBF=    75    27
 NBsUse=   102 1.00D-06 EigRej= -1.00D+00 NBFU=    75    27
 Precomputing XC quadrature grid using
 IXCGrd= 4 IRadAn=           0 IRanWt=          -1 IRanGd=           0 AccXCQ= 0.00D+00.
 Generated NRdTot=       0 NPtTot=           0 NUsed=           0 NTot=          32
 NSgBfM=   107   107   107   107   107 MxSgAt=     7 MxSgA2=     7.
 Leave Link  302 at Mon Nov 25 17:29:05 2013, MaxMem=   436000000 cpu:         1.3
 (Enter /usr/local/gaussian/g09.d01.em64t.legacy.linda/g09/l303.exe)
 DipDrv:  MaxL=1.
 Leave Link  303 at Mon Nov 25 17:29:05 2013, MaxMem=   436000000 cpu:         0.2
 (Enter /usr/local/gaussian/g09.d01.em64t.legacy.linda/g09/l401.exe)
 ExpMin= 1.03D-01 ExpMax= 6.29D+03 ExpMxC= 9.49D+02 IAcc=1 IRadAn=         1 AccDes= 0.00D+00
 Harris functional with IExCor= 1009 and IRadAn=       1 diagonalized for initial guess.
 HarFok:  IExCor= 1009 AccDes= 0.00D+00 IRadAn=         1 IDoV= 1 UseB2=F ITyADJ=14
 ICtDFT=  3500011 ScaDFX=  1.000000  1.000000  1.000000  1.000000
 FoFCou: FMM=F IPFlag=           0 FMFlag=      100000 FMFlg1=           0
         NFxFlg=           0 DoJE=T BraDBF=F KetDBF=T FulRan=T
         wScrn=  0.000000 ICntrl=     500 IOpCl=  0 I1Cent=   200000004 NGrid=           0
         NMat0=    1 NMatS0=      1 NMatT0=    0 NMatD0=    1 NMtDS0=    0 NMtDT0=    0
 Petite list used in FoFCou.
 Harris En= -258.036822840724    
 JPrj=0 DoOrth=F DoCkMO=F.
 Initial guess orbital symmetries:
       Occupied  (A') (A') (A') (A') (A') (A') (A') (A') (A') (A')
                 (A') (A') (A") (A') (A") (A') (A") (A')
       Virtual   (A") (A") (A') (A') (A') (A') (A') (A') (A') (A')
                 (A") (A') (A') (A') (A') (A") (A') (A") (A') (A')
                 (A') (A") (A") (A') (A') (A') (A') (A') (A') (A")
                 (A') (A") (A') (A') (A") (A') (A") (A") (A') (A')
                 (A") (A') (A") (A') (A') (A') (A') (A') (A") (A")
                 (A') (A') (A') (A") (A') (A") (A') (A') (A") (A")
                 (A') (A') (A') (A') (A') (A') (A") (A') (A") (A')
                 (A") (A") (A') (A') (A') (A') (A') (A') (A') (A')
                 (A') (A') (A') (A')
 The electronic state of the initial guess is 1-A'.
 Leave Link  401 at Mon Nov 25 17:29:05 2013, MaxMem=   436000000 cpu:         1.3
 (Enter /usr/local/gaussian/g09.d01.em64t.legacy.linda/g09/l502.exe)
 Closed shell SCF:
 Using DIIS extrapolation, IDIIS=  1040.
 Integral symmetry usage will be decided dynamically.
 Keep J ints in memory in symmetry-blocked form, NReq=21129077.
 IVT=       54581 IEndB=       54581 NGot=   436000000 MDV=   428670657
 LenX=   428670657 LenY=   428658767
 Requested convergence on RMS density matrix=1.00D-08 within 128 cycles.
 Requested convergence on MAX density matrix=1.00D-06.
 Requested convergence on             energy=1.00D-06.
 No special actions if energy rises.
 FoFCou: FMM=F IPFlag=           0 FMFlag=           0 FMFlg1=           0
         NFxFlg=           0 DoJE=F BraDBF=F KetDBF=F FulRan=T
         wScrn=  0.000000 ICntrl=     600 IOpCl=  0 I1Cent=           0 NGrid=           0
         NMat0=    1 NMatS0=   5253 NMatT0=    0 NMatD0=    1 NMtDS0=    0 NMtDT0=    0
 Petite list used in FoFCou.
 Integral accuracy reduced to 1.0D-05 until final iterations.

 Cycle   1  Pass 0  IDiag  1:
 E= -257.992912982973    
 DIIS: error= 1.81D-02 at cycle   1 NSaved=   1.
 NSaved= 1 IEnMin= 1 EnMin= -257.992912982973     IErMin= 1 ErrMin= 1.81D-02
 ErrMax= 1.81D-02  0.00D+00 EMaxC= 1.00D-01 BMatC= 5.73D-02 BMatP= 5.73D-02
 IDIUse=3 WtCom= 8.19D-01 WtEn= 1.81D-01
 Coeff-Com:  0.100D+01
 Coeff-En:   0.100D+01
 Coeff:      0.100D+01
 Gap=     0.159 Goal=   None    Shift=    0.000
 GapD=    0.159 DampG=1.000 DampE=0.500 DampFc=0.5000 IDamp=-1.
 Damping current iteration by 5.00D-01
 RMSDP=6.17D-03 MaxDP=1.46D-01              OVMax= 1.90D-01

 Cycle   2  Pass 0  IDiag  1:
 E= -257.994640877595     Delta-E=       -0.001727894622 Rises=F Damp=T
 DIIS: error= 1.51D-02 at cycle   2 NSaved=   2.
 NSaved= 2 IEnMin= 2 EnMin= -257.994640877595     IErMin= 2 ErrMin= 1.51D-02
 ErrMax= 1.51D-02  0.00D+00 EMaxC= 1.00D-01 BMatC= 2.03D-02 BMatP= 5.73D-02
 IDIUse=3 WtCom= 8.49D-01 WtEn= 1.51D-01
 Coeff-Com:  0.274D+00 0.726D+00
 Coeff-En:   0.483D+00 0.517D+00
 Coeff:      0.306D+00 0.694D+00
 Gap=     0.209 Goal=   None    Shift=    0.000
 RMSDP=2.08D-03 MaxDP=2.85D-02 DE=-1.73D-03 OVMax= 1.74D-01

 Cycle   3  Pass 0  IDiag  1:
 E= -258.016272846983     Delta-E=       -0.021631969388 Rises=F Damp=F
 DIIS: error= 1.99D-02 at cycle   3 NSaved=   3.
 NSaved= 3 IEnMin= 3 EnMin= -258.016272846983     IErMin= 2 ErrMin= 1.51D-02
 ErrMax= 1.99D-02  0.00D+00 EMaxC= 1.00D-01 BMatC= 2.33D-02 BMatP= 2.03D-02
 IDIUse=2 WtCom= 0.00D+00 WtEn= 1.00D+00
 Coeff-En:   0.000D+00 0.278D+00 0.722D+00
 Coeff:      0.000D+00 0.278D+00 0.722D+00
 Gap=     0.177 Goal=   None    Shift=    0.000
 RMSDP=2.41D-03 MaxDP=3.18D-02 DE=-2.16D-02 OVMax= 1.26D-01

 Cycle   4  Pass 0  IDiag  1:
 E= -257.994641275805     Delta-E=        0.021631571178 Rises=F Damp=F
 DIIS: error= 3.33D-02 at cycle   4 NSaved=   4.
 NSaved= 4 IEnMin= 3 EnMin= -258.016272846983     IErMin= 2 ErrMin= 1.51D-02
 ErrMax= 3.33D-02  0.00D+00 EMaxC= 1.00D-01 BMatC= 4.78D-02 BMatP= 2.03D-02
 IDIUse=2 WtCom= 0.00D+00 WtEn= 1.00D+00
 Coeff-En:   0.000D+00 0.000D+00 0.624D+00 0.376D+00
 Coeff:      0.000D+00 0.000D+00 0.624D+00 0.376D+00
 Gap=     0.185 Goal=   None    Shift=    0.000
 RMSDP=1.36D-03 MaxDP=1.65D-02 DE= 2.16D-02 OVMax= 6.78D-02

 Cycle   5  Pass 0  IDiag  1:
 E= -258.034954706092     Delta-E=       -0.040313430287 Rises=F Damp=F
 DIIS: error= 4.72D-03 at cycle   5 NSaved=   5.
 NSaved= 5 IEnMin= 5 EnMin= -258.034954706092     IErMin= 5 ErrMin= 4.72D-03
 ErrMax= 4.72D-03  0.00D+00 EMaxC= 1.00D-01 BMatC= 1.40D-03 BMatP= 2.03D-02
 IDIUse=3 WtCom= 9.53D-01 WtEn= 4.72D-02
 Coeff-Com:  0.347D-01-0.373D-01 0.342D+00 0.214D+00 0.446D+00
 Coeff-En:   0.000D+00 0.000D+00 0.473D-01 0.000D+00 0.953D+00
 Coeff:      0.331D-01-0.355D-01 0.328D+00 0.204D+00 0.470D+00
 Gap=     0.190 Goal=   None    Shift=    0.000
 RMSDP=3.26D-04 MaxDP=4.11D-03 DE=-4.03D-02 OVMax= 1.39D-02

 Cycle   6  Pass 0  IDiag  1:
 E= -258.036066817232     Delta-E=       -0.001112111140 Rises=F Damp=F
 DIIS: error= 9.55D-04 at cycle   6 NSaved=   6.
 NSaved= 6 IEnMin= 6 EnMin= -258.036066817232     IErMin= 6 ErrMin= 9.55D-04
 ErrMax= 9.55D-04  0.00D+00 EMaxC= 1.00D-01 BMatC= 7.44D-05 BMatP= 1.40D-03
 IDIUse=3 WtCom= 9.90D-01 WtEn= 9.55D-03
 Coeff-Com:  0.940D-02-0.211D-01 0.122D+00 0.676D-01 0.290D+00 0.532D+00
 Coeff-En:   0.000D+00 0.000D+00 0.000D+00 0.000D+00 0.361D-02 0.996D+00
 Coeff:      0.931D-02-0.209D-01 0.121D+00 0.669D-01 0.287D+00 0.537D+00
 Gap=     0.188 Goal=   None    Shift=    0.000
 RMSDP=6.90D-05 MaxDP=1.08D-03 DE=-1.11D-03 OVMax= 3.08D-03

 Cycle   7  Pass 0  IDiag  1:
 E= -258.036124367568     Delta-E=       -0.000057550336 Rises=F Damp=F
 DIIS: error= 2.64D-04 at cycle   7 NSaved=   7.
 NSaved= 7 IEnMin= 7 EnMin= -258.036124367568     IErMin= 7 ErrMin= 2.64D-04
 ErrMax= 2.64D-04  0.00D+00 EMaxC= 1.00D-01 BMatC= 4.07D-06 BMatP= 7.44D-05
 IDIUse=3 WtCom= 9.97D-01 WtEn= 2.64D-03
 Coeff-Com:  0.217D-02-0.567D-02 0.405D-01 0.184D-01 0.124D+00 0.298D+00
 Coeff-Com:  0.522D+00
 Coeff-En:   0.000D+00 0.000D+00 0.000D+00 0.000D+00 0.000D+00 0.000D+00
 Coeff-En:   0.100D+01
 Coeff:      0.217D-02-0.566D-02 0.404D-01 0.184D-01 0.123D+00 0.298D+00
 Coeff:      0.524D+00
 Gap=     0.188 Goal=   None    Shift=    0.000
 RMSDP=1.93D-05 MaxDP=3.13D-04 DE=-5.76D-05 OVMax= 1.02D-03

 Cycle   8  Pass 0  IDiag  1:
 E= -258.036126361245     Delta-E=       -0.000001993676 Rises=F Damp=F
 DIIS: error= 1.48D-04 at cycle   8 NSaved=   8.
 NSaved= 8 IEnMin= 8 EnMin= -258.036126361245     IErMin= 8 ErrMin= 1.48D-04
 ErrMax= 1.48D-04  0.00D+00 EMaxC= 1.00D-01 BMatC= 1.57D-06 BMatP= 4.07D-06
 IDIUse=3 WtCom= 9.99D-01 WtEn= 1.48D-03
 Coeff-Com: -0.549D-03 0.913D-03 0.467D-02-0.948D-03 0.309D-01 0.109D+00
 Coeff-Com:  0.401D+00 0.455D+00
 Coeff-En:   0.000D+00 0.000D+00 0.000D+00 0.000D+00 0.000D+00 0.000D+00
 Coeff-En:   0.322D+00 0.678D+00
 Coeff:     -0.548D-03 0.911D-03 0.466D-02-0.947D-03 0.309D-01 0.108D+00
 Coeff:      0.401D+00 0.455D+00
 Gap=     0.188 Goal=   None    Shift=    0.000
 RMSDP=8.91D-06 MaxDP=1.30D-04 DE=-1.99D-06 OVMax= 4.81D-04

 Initial convergence to 1.0D-05 achieved.  Increase integral accuracy.
 Cycle   9  Pass 1  IDiag  1:
 E= -258.036132552771     Delta-E=       -0.000006191526 Rises=F Damp=F
 DIIS: error= 2.02D-05 at cycle   1 NSaved=   1.
 NSaved= 1 IEnMin= 1 EnMin= -258.036132552771     IErMin= 1 ErrMin= 2.02D-05
 ErrMax= 2.02D-05  0.00D+00 EMaxC= 1.00D-01 BMatC= 4.15D-08 BMatP= 4.15D-08
 IDIUse=1 WtCom= 1.00D+00 WtEn= 0.00D+00
 Coeff-Com:  0.100D+01
 Coeff:      0.100D+01
 Gap=     0.188 Goal=   None    Shift=    0.000
 RMSDP=8.91D-06 MaxDP=1.30D-04 DE=-6.19D-06 OVMax= 2.15D-04

 Cycle  10  Pass 1  IDiag  1:
 E= -258.036132495169     Delta-E=        0.000000057602 Rises=F Damp=F
 DIIS: error= 3.96D-05 at cycle   2 NSaved=   2.
 NSaved= 2 IEnMin= 1 EnMin= -258.036132552771     IErMin= 1 ErrMin= 2.02D-05
 ErrMax= 3.96D-05  0.00D+00 EMaxC= 1.00D-01 BMatC= 1.07D-07 BMatP= 4.15D-08
 IDIUse=1 WtCom= 1.00D+00 WtEn= 0.00D+00
 Coeff-Com:  0.629D+00 0.371D+00
 Coeff:      0.629D+00 0.371D+00
 Gap=     0.188 Goal=   None    Shift=    0.000
 RMSDP=2.52D-06 MaxDP=5.41D-05 DE= 5.76D-08 OVMax= 1.85D-04

 Cycle  11  Pass 1  IDiag  1:
 E= -258.036132588413     Delta-E=       -0.000000093244 Rises=F Damp=F
 DIIS: error= 1.01D-05 at cycle   3 NSaved=   3.
 NSaved= 3 IEnMin= 3 EnMin= -258.036132588413     IErMin= 3 ErrMin= 1.01D-05
 ErrMax= 1.01D-05  0.00D+00 EMaxC= 1.00D-01 BMatC= 4.43D-09 BMatP= 4.15D-08
 IDIUse=1 WtCom= 1.00D+00 WtEn= 0.00D+00
 Coeff-Com:  0.110D+00 0.182D+00 0.708D+00
 Coeff:      0.110D+00 0.182D+00 0.708D+00
 Gap=     0.188 Goal=   None    Shift=    0.000
 RMSDP=7.24D-07 MaxDP=1.01D-05 DE=-9.32D-08 OVMax= 4.42D-05

 Cycle  12  Pass 1  IDiag  1:
 E= -258.036132590621     Delta-E=       -0.000000002208 Rises=F Damp=F
 DIIS: error= 5.69D-06 at cycle   4 NSaved=   4.
 NSaved= 4 IEnMin= 4 EnMin= -258.036132590621     IErMin= 4 ErrMin= 5.69D-06
 ErrMax= 5.69D-06  0.00D+00 EMaxC= 1.00D-01 BMatC= 2.52D-09 BMatP= 4.43D-09
 IDIUse=1 WtCom= 1.00D+00 WtEn= 0.00D+00
 Coeff-Com:  0.115D-01 0.953D-01 0.526D+00 0.367D+00
 Coeff:      0.115D-01 0.953D-01 0.526D+00 0.367D+00
 Gap=     0.188 Goal=   None    Shift=    0.000
 RMSDP=3.17D-07 MaxDP=6.81D-06 DE=-2.21D-09 OVMax= 1.60D-05

 Cycle  13  Pass 1  IDiag  1:
 E= -258.036132592610     Delta-E=       -0.000000001989 Rises=F Damp=F
 DIIS: error= 7.95D-07 at cycle   5 NSaved=   5.
 NSaved= 5 IEnMin= 5 EnMin= -258.036132592610     IErMin= 5 ErrMin= 7.95D-07
 ErrMax= 7.95D-07  0.00D+00 EMaxC= 1.00D-01 BMatC= 4.34D-11 BMatP= 2.52D-09
 IDIUse=1 WtCom= 1.00D+00 WtEn= 0.00D+00
 Coeff-Com: -0.747D-03 0.379D-01 0.233D+00 0.186D+00 0.544D+00
 Coeff:     -0.747D-03 0.379D-01 0.233D+00 0.186D+00 0.544D+00
 Gap=     0.188 Goal=   None    Shift=    0.000
 RMSDP=7.56D-08 MaxDP=1.22D-06 DE=-1.99D-09 OVMax= 2.97D-06

 Cycle  14  Pass 1  IDiag  1:
 E= -258.036132592635     Delta-E=       -0.000000000025 Rises=F Damp=F
 DIIS: error= 7.46D-07 at cycle   6 NSaved=   6.
 NSaved= 6 IEnMin= 6 EnMin= -258.036132592635     IErMin= 6 ErrMin= 7.46D-07
 ErrMax= 7.46D-07  0.00D+00 EMaxC= 1.00D-01 BMatC= 1.42D-11 BMatP= 4.34D-11
 IDIUse=1 WtCom= 1.00D+00 WtEn= 0.00D+00
 Coeff-Com: -0.103D-02 0.221D-01 0.140D+00 0.112D+00 0.398D+00 0.329D+00
 Coeff:     -0.103D-02 0.221D-01 0.140D+00 0.112D+00 0.398D+00 0.329D+00
 Gap=     0.188 Goal=   None    Shift=    0.000
 RMSDP=2.93D-08 MaxDP=4.78D-07 DE=-2.48D-11 OVMax= 1.43D-06

 Cycle  15  Pass 1  IDiag  1:
 E= -258.036132592647     Delta-E=       -0.000000000012 Rises=F Damp=F
 DIIS: error= 1.06D-07 at cycle   7 NSaved=   7.
 NSaved= 7 IEnMin= 7 EnMin= -258.036132592647     IErMin= 7 ErrMin= 1.06D-07
 ErrMax= 1.06D-07  0.00D+00 EMaxC= 1.00D-01 BMatC= 5.79D-13 BMatP= 1.42D-11
 IDIUse=1 WtCom= 1.00D+00 WtEn= 0.00D+00
 Coeff-Com: -0.549D-03 0.839D-02 0.548D-01 0.429D-01 0.176D+00 0.203D+00
 Coeff-Com:  0.516D+00
 Coeff:     -0.549D-03 0.839D-02 0.548D-01 0.429D-01 0.176D+00 0.203D+00
 Coeff:      0.516D+00
 Gap=     0.188 Goal=   None    Shift=    0.000
 RMSDP=8.22D-09 MaxDP=1.12D-07 DE=-1.24D-11 OVMax= 3.95D-07

 SCF Done:  E(RPBE-PBE) =  -258.036132593     A.U. after   15 cycles
            NFock= 15  Conv=0.82D-08     -V/T= 2.0003
 KE= 2.579512531542D+02 PE=-9.435211583692D+02 EE= 2.577029236718D+02
 Leave Link  502 at Mon Nov 25 17:29:07 2013, MaxMem=   436000000 cpu:        11.9
 (Enter /usr/local/gaussian/g09.d01.em64t.legacy.linda/g09/l601.exe)
 Copying SCF densities to generalized density rwf, IOpCl= 0 IROHF=0.

 **********************************************************************

            Population analysis using the SCF density.

 **********************************************************************

 Orbital symmetries:
       Occupied  (A') (A') (A') (A') (A') (A') (A') (A') (A') (A')
                 (A') (A") (A') (A') (A") (A") (A') (A')
       Virtual   (A") (A") (A') (A') (A') (A') (A') (A') (A') (A")
                 (A') (A') (A') (A') (A') (A") (A') (A") (A') (A')
                 (A') (A") (A") (A') (A') (A') (A') (A') (A') (A")
                 (A') (A") (A') (A") (A') (A') (A") (A") (A') (A')
                 (A') (A") (A") (A') (A') (A') (A') (A') (A") (A")
                 (A') (A') (A') (A") (A') (A") (A') (A') (A") (A")
                 (A') (A') (A') (A') (A') (A') (A") (A') (A") (A')
                 (A") (A") (A') (A') (A') (A') (A') (A') (A') (A')
                 (A') (A') (A') (A')
 The electronic state is 1-A'.
 Alpha  occ. eigenvalues --  -14.08786 -14.04550 -14.02749 -14.00146  -9.96159
 Alpha  occ. eigenvalues --   -1.08502  -0.88261  -0.83371  -0.63029  -0.61920
 Alpha  occ. eigenvalues --   -0.55474  -0.46535  -0.45855  -0.33433  -0.30496
 Alpha  occ. eigenvalues --   -0.28786  -0.25529  -0.23845
 Alpha virt. eigenvalues --   -0.05022  -0.01627   0.00157   0.04676   0.13709
 Alpha virt. eigenvalues --    0.15753   0.18927   0.25426   0.29577   0.35034
 Alpha virt. eigenvalues --    0.36838   0.39814   0.45502   0.51027   0.51685
 Alpha virt. eigenvalues --    0.52299   0.55664   0.55787   0.57853   0.60851
 Alpha virt. eigenvalues --    0.63572   0.64916   0.69296   0.69312   0.78591
 Alpha virt. eigenvalues --    0.80614   0.87929   0.92242   0.96261   0.98515
 Alpha virt. eigenvalues --    1.12006   1.14695   1.16658   1.28684   1.29360
 Alpha virt. eigenvalues --    1.43534   1.51450   1.55463   1.55692   1.69121
 Alpha virt. eigenvalues --    1.72189   1.72970   1.80079   1.81553   1.99293
 Alpha virt. eigenvalues --    2.05869   2.16734   2.18561   2.24803   2.26863
 Alpha virt. eigenvalues --    2.32572   2.39505   2.43722   2.44477   2.51197
 Alpha virt. eigenvalues --    2.54960   2.58522   2.69622   2.69976   2.71924
 Alpha virt. eigenvalues --    2.75472   2.80618   3.03732   3.08102   3.27442
 Alpha virt. eigenvalues --    3.39783   3.42825   3.48620   3.54565   3.69510
 Alpha virt. eigenvalues --    3.74390   3.83728   3.86680   3.89824   4.34065
 Alpha virt. eigenvalues --    4.49874   4.74191   4.89630   5.67519  23.67538
 Alpha virt. eigenvalues --   34.92815  35.18889  35.27061  35.33542
          Condensed to atoms (all electrons):
               1          2          3          4          5          6
     1  C    4.855161   0.355759  -0.124741  -0.145794   0.476113   0.404859
     2  N    0.355759   6.522864   0.209862  -0.065799  -0.068494  -0.032615
     3  N   -0.124741   0.209862   6.769202   0.289560  -0.098807   0.005042
     4  N   -0.145794  -0.065799   0.289560   6.684764   0.311165   0.003348
     5  N    0.476113  -0.068494  -0.098807   0.311165   6.616472  -0.020301
     6  H    0.404859  -0.032615   0.005042   0.003348  -0.020301   0.501041
     7  H   -0.033936   0.335691  -0.024615   0.009127   0.010457  -0.000797
               7
     1  C   -0.033936
     2  N    0.335691
     3  N   -0.024615
     4  N    0.009127
     5  N    0.010457
     6  H   -0.000797
     7  H    0.460330
 Mulliken charges:
               1
     1  C    0.212579
     2  N   -0.257267
     3  N   -0.025502
     4  N   -0.086371
     5  N   -0.226605
     6  H    0.139423
     7  H    0.243743
 Sum of Mulliken charges =   0.00000
 Mulliken charges with hydrogens summed into heavy atoms:
               1
     1  C    0.352002
     2  N   -0.013524
     3  N   -0.025502
     4  N   -0.086371
     5  N   -0.226605
 Electronic spatial extent (au):  <R**2>=            244.3423
 Charge=              0.0000 electrons
 Dipole moment (field-independent basis, Debye):
    X=              2.3687    Y=              4.6364    Z=              0.0000  Tot=              5.2065
 Quadrupole moment (field-independent basis, Debye-Ang):
   XX=            -28.9475   YY=            -26.4518   ZZ=            -27.9400
   XY=              1.6805   XZ=              0.0000   YZ=              0.0000
 Traceless Quadrupole moment (field-independent basis, Debye-Ang):
   XX=             -1.1677   YY=              1.3279   ZZ=             -0.1602
   XY=              1.6805   XZ=              0.0000   YZ=              0.0000
 Octapole moment (field-independent basis, Debye-Ang**2):
  XXX=             10.9739  YYY=             21.2770  ZZZ=              0.0000  XYY=             -0.6381
  XXY=              4.2660  XXZ=              0.0000  XZZ=             -0.8261  YZZ=              0.4609
  YYZ=              0.0000  XYZ=              0.0000
 Hexadecapole moment (field-independent basis, Debye-Ang**3):
 XXXX=           -139.6345 YYYY=           -118.6751 ZZZZ=            -24.7173 XXXY=              6.0810
 XXXZ=              0.0000 YYYX=             -0.5577 YYYZ=              0.0000 ZZZX=              0.0000
 ZZZY=              0.0000 XXYY=            -52.2846 XXZZ=            -29.6151 YYZZ=            -27.8101
 XXYZ=              0.0000 YYXZ=              0.0000 ZZXY=             -0.1729
 N-N= 1.698308489506D+02 E-N=-9.435211637269D+02  KE= 2.579512531542D+02
 Symmetry A'   KE= 2.482874822723D+02
 Symmetry A"   KE= 9.663770881861D+00
 No NMR shielding tensors so no spin-rotation constants.
 Leave Link  601 at Mon Nov 25 17:29:07 2013, MaxMem=   436000000 cpu:         1.3
 (Enter /usr/local/gaussian/g09.d01.em64t.legacy.linda/g09/l701.exe)
 Compute integral first derivatives.
 ... and contract with generalized density number  0.
 Leave Link  701 at Mon Nov 25 17:29:07 2013, MaxMem=   436000000 cpu:         1.4
 (Enter /usr/local/gaussian/g09.d01.em64t.legacy.linda/g09/l702.exe)
 L702 exits ... SP integral derivatives will be done elsewhere.
 Leave Link  702 at Mon Nov 25 17:29:07 2013, MaxMem=   436000000 cpu:         0.2
 (Enter /usr/local/gaussian/g09.d01.em64t.legacy.linda/g09/l703.exe)
 Compute integral first derivatives, UseDBF=F ICtDFT=           0.
 Integral derivatives from FoFJK, PRISM(SPDF).
 Calling FoFJK, ICntrl=      2527 FMM=F ISym2X=1 I1Cent= 0 IOpClX= 0 NMat=1 NMatS=1 NMatT=0.
 FoFJK:  IHMeth= 1 ICntrl=    2527 DoSepK=F KAlg= 0 I1Cent=   0 FoldK=F
 IRaf=         0 NMat=   1 IRICut=       1 DoRegI=T DoRafI=F ISym2E= 1.
 FoFCou: FMM=F IPFlag=           0 FMFlag=      100000 FMFlg1=         800
         NFxFlg=           0 DoJE=F BraDBF=F KetDBF=F FulRan=T
         wScrn=  0.000000 ICntrl=    2527 IOpCl=  0 I1Cent=           0 NGrid=           0
         NMat0=    1 NMatS0=      1 NMatT0=    0 NMatD0=    1 NMtDS0=    0 NMtDT0=    0
 Petite list used in FoFCou.
 Leave Link  703 at Mon Nov 25 17:29:08 2013, MaxMem=   436000000 cpu:         5.5
 (Enter /usr/local/gaussian/g09.d01.em64t.legacy.linda/g09/l716.exe)
 Dipole        = 9.31915684D-01 1.82411579D+00 1.26271101D-32
 ***** Axes restored to original set *****
 -------------------------------------------------------------------
 Center     Atomic                   Forces (Hartrees/Bohr)
 Number     Number              X              Y              Z
 -------------------------------------------------------------------
      1        6           0.027580261   -0.004705532    0.000000000
      2        7           0.011138319   -0.010409509    0.000000000
      3        7          -0.025738139   -0.052458132    0.000000000
      4        7          -0.031750178    0.041442250    0.000000000
      5        7          -0.001231815    0.043627891    0.000000000
      6        1           0.012658782    0.001555336    0.000000000
      7        1           0.007342770   -0.019052304    0.000000000
 -------------------------------------------------------------------
 Cartesian Forces:  Max     0.052458132 RMS     0.021424902
 -----------------------------------------------------------------------------------------------
                       Internal Coordinate Forces (Hartree/Bohr or radian)
  Cent   Atom   N1       Length/X         N2         Alpha/Y        N3         Beta/Z          J
 -----------------------------------------------------------------------------------------------
         X 
         X        1   0.000000(     1)
      1  C        1   0.040333(     2)      2   0.000000(     9)
      2  N        1   0.033741(     3)      2   0.000000(    10)      3  -0.019426(    16)     0
      3  N        1   0.055648(     4)      2   0.000000(    11)      3  -0.044328(    17)     0
      4  N        1   0.041093(     5)      2   0.000000(    12)      3   0.067826(    18)     0
      5  N        1   0.043252(     6)      2   0.000000(    13)      3  -0.010230(    19)     0
      6  H        3   0.012753(     7)      4  -0.000266(    14)      5   0.000000(    20)     0
      7  H        4   0.020418(     8)      5  -0.000178(    15)      6   0.000000(    21)     0
 -----------------------------------------------------------------------------------------------
 Internal  Forces:  Max     0.067825695 RMS     0.028492468
 Force constants in Cartesian coordinates: 
                1             2             3             4             5 
      1  0.105205D+01
      2 -0.646119D-01  0.104049D+01
      3  0.000000D+00  0.000000D+00  0.194544D+00
      4 -0.280194D+00 -0.176039D+00  0.000000D+00  0.101741D+01
      5 -0.150825D+00 -0.509438D+00  0.000000D+00 -0.272076D-01  0.109828D+01
      6  0.000000D+00  0.000000D+00 -0.107133D+00  0.000000D+00  0.000000D+00
      7 -0.576538D-02  0.299212D-02  0.000000D+00 -0.597238D+00  0.343359D-01
      8 -0.347489D-01  0.180340D-01  0.000000D+00  0.832617D-01 -0.153968D+00
      9  0.000000D+00  0.000000D+00  0.901327D-02  0.000000D+00  0.000000D+00
     10 -0.138620D-01 -0.135721D-01  0.000000D+00  0.684604D-02  0.412622D-01
     11  0.253867D-01  0.248558D-01  0.000000D+00  0.872578D-03  0.525917D-02
     12  0.000000D+00  0.000000D+00  0.334526D-03  0.000000D+00  0.000000D+00
     13 -0.409698D+00  0.299688D+00  0.000000D+00  0.258890D-01 -0.134359D-01
     14  0.248008D+00 -0.447517D+00  0.000000D+00  0.253476D-01 -0.131549D-01
     15  0.000000D+00  0.000000D+00 -0.487885D-01  0.000000D+00  0.000000D+00
     16 -0.370541D+00 -0.339213D-01  0.000000D+00  0.370098D-02 -0.192074D-02
     17 -0.341529D-01 -0.120744D+00  0.000000D+00 -0.277509D-01  0.144022D-01
     18  0.000000D+00  0.000000D+00 -0.763460D-01  0.000000D+00  0.000000D+00
     19  0.280100D-01 -0.145366D-01  0.000000D+00 -0.176415D+00  0.117791D+00
     20  0.109444D-01 -0.567992D-02  0.000000D+00  0.121515D+00 -0.441384D+00
     21  0.000000D+00  0.000000D+00  0.283759D-01  0.000000D+00  0.000000D+00
                6             7             8             9            10 
      6  0.203276D+00
      7  0.000000D+00  0.705746D+00
      8  0.000000D+00 -0.130737D+00  0.942136D+00
      9 -0.489441D-01  0.000000D+00  0.000000D+00  0.501769D-01
     10  0.000000D+00 -0.127739D+00  0.484692D-01  0.000000D+00  0.596756D+00
     11  0.000000D+00  0.127675D+00 -0.813779D+00  0.000000D+00  0.805094D-01
     12  0.357783D-02  0.000000D+00  0.000000D+00 -0.334173D-01  0.000000D+00
     13  0.000000D+00  0.198157D-01  0.252566D-02  0.000000D+00 -0.462001D+00
     14  0.000000D+00 -0.362903D-01 -0.462547D-02  0.000000D+00 -0.156669D+00
     15  0.755838D-02  0.000000D+00  0.000000D+00  0.115249D-01  0.000000D+00
     16  0.000000D+00  0.000000D+00  0.000000D+00  0.000000D+00  0.000000D+00
     17  0.000000D+00  0.000000D+00  0.000000D+00  0.000000D+00  0.000000D+00
     18  0.257218D-01  0.000000D+00  0.000000D+00  0.663842D-02  0.000000D+00
     19  0.000000D+00  0.518145D-02  0.312295D-01  0.000000D+00  0.000000D+00
     20  0.000000D+00  0.202456D-02  0.122023D-01  0.000000D+00  0.000000D+00
     21 -0.840561D-01  0.000000D+00  0.000000D+00  0.500793D-02  0.000000D+00
               11            12            13            14            15 
     11  0.994476D+00
     12  0.000000D+00  0.468287D-01
     13 -0.234443D+00  0.000000D+00  0.829068D+00
     14 -0.210811D+00  0.000000D+00 -0.773865D-01  0.653539D+00
     15  0.000000D+00 -0.315440D-01  0.000000D+00  0.000000D+00  0.483742D-01
     16  0.000000D+00  0.000000D+00 -0.307428D-02 -0.300999D-02  0.000000D+00
     17  0.000000D+00  0.000000D+00  0.230518D-01  0.225697D-01  0.000000D+00
     18  0.000000D+00  0.800918D-02  0.000000D+00  0.000000D+00  0.488095D-02
     19  0.000000D+00  0.000000D+00  0.000000D+00  0.000000D+00  0.000000D+00
     20  0.000000D+00  0.000000D+00  0.000000D+00  0.000000D+00  0.000000D+00
     21  0.000000D+00  0.621095D-02  0.000000D+00  0.000000D+00  0.799404D-02
               16            17            18            19            20 
     16  0.369914D+00
     17  0.388521D-01  0.837724D-01
     18  0.000000D+00  0.000000D+00  0.422935D-01
     19  0.000000D+00  0.000000D+00  0.000000D+00  0.143223D+00
     20  0.000000D+00  0.000000D+00  0.000000D+00 -0.134484D+00  0.434861D+00
     21  0.000000D+00  0.000000D+00 -0.111979D-01  0.000000D+00  0.000000D+00
               21 
     21  0.476652D-01
 Force constants in internal coordinates: 
                1             2             3             4             5 
      1  0.000000D+00
      2  0.000000D+00  0.714021D+00
      3  0.000000D+00  0.239904D-01  0.651862D+00
      4  0.000000D+00  0.477314D-01  0.131790D-01  0.698688D+00
      5  0.000000D+00  0.197619D-01  0.347199D-01  0.733418D-01  0.582621D+00
      6  0.000000D+00  0.182039D+00  0.368833D-01  0.266152D-01  0.139672D+00
      7  0.000000D+00  0.000000D+00  0.000000D+00  0.000000D+00  0.000000D+00
      8  0.000000D+00  0.000000D+00  0.000000D+00  0.000000D+00  0.000000D+00
      9  0.000000D+00  0.000000D+00  0.000000D+00  0.000000D+00  0.000000D+00
     10  0.000000D+00  0.000000D+00  0.000000D+00  0.000000D+00  0.000000D+00
     11  0.000000D+00  0.000000D+00  0.000000D+00  0.000000D+00  0.000000D+00
     12  0.000000D+00  0.000000D+00  0.000000D+00  0.000000D+00  0.000000D+00
     13  0.000000D+00  0.000000D+00  0.000000D+00  0.000000D+00  0.000000D+00
     14  0.000000D+00 -0.103420D+00  0.454635D-01  0.000000D+00  0.000000D+00
     15  0.000000D+00  0.564930D-01 -0.102057D+00  0.527553D-01  0.000000D+00
     16  0.000000D+00  0.664361D+00  0.201189D-01 -0.750165D+00  0.425816D-01
     17  0.000000D+00 -0.819650D-01  0.721191D+00 -0.312336D+00 -0.718649D+00
     18  0.000000D+00  0.444874D-01 -0.291364D-01  0.104797D+01  0.541201D-01
     19  0.000000D+00 -0.789797D+00  0.532811D-01 -0.322785D-01  0.658511D+00
     20  0.000000D+00  0.000000D+00  0.000000D+00  0.000000D+00  0.000000D+00
     21  0.000000D+00  0.000000D+00  0.000000D+00  0.000000D+00  0.000000D+00
                6             7             8             9            10 
      6  0.639214D+00
      7  0.000000D+00  0.375095D+00
      8  0.000000D+00  0.000000D+00  0.487409D+00
      9  0.000000D+00  0.000000D+00  0.000000D+00  0.249630D+00
     10  0.000000D+00  0.000000D+00  0.000000D+00 -0.303690D+00  0.497296D+00
     11  0.000000D+00  0.000000D+00  0.000000D+00  0.196026D+00 -0.464723D+00
     12  0.000000D+00  0.000000D+00  0.000000D+00  0.227135D-03  0.185783D+00
     13  0.000000D+00  0.000000D+00  0.000000D+00 -0.141268D+00  0.791447D-01
     14  0.506551D-01  0.000000D+00  0.000000D+00  0.000000D+00  0.000000D+00
     15  0.000000D+00  0.000000D+00  0.000000D+00  0.000000D+00  0.000000D+00
     16 -0.848555D-01  0.000000D+00  0.000000D+00  0.000000D+00  0.000000D+00
     17  0.543562D-01  0.000000D+00  0.000000D+00  0.000000D+00  0.000000D+00
     18 -0.585825D+00  0.000000D+00  0.000000D+00  0.000000D+00  0.000000D+00
     19 -0.100092D+00  0.000000D+00  0.000000D+00  0.000000D+00  0.000000D+00
     20  0.000000D+00  0.000000D+00  0.000000D+00 -0.737111D-01  0.121332D+00
     21  0.000000D+00  0.000000D+00  0.000000D+00  0.439636D-01 -0.122492D+00
               11            12            13            14            15 
     11  0.555967D+00
     12 -0.331843D+00  0.275779D+00
     13  0.542972D-01 -0.137309D+00  0.148255D+00
     14  0.000000D+00  0.000000D+00  0.000000D+00  0.320000D+00
     15  0.000000D+00  0.000000D+00  0.000000D+00  0.000000D+00  0.320000D+00
     16  0.000000D+00  0.000000D+00  0.000000D+00 -0.104596D+00  0.351877D-01
     17  0.000000D+00  0.000000D+00  0.000000D+00  0.000000D+00 -0.905921D-01
     18  0.000000D+00  0.000000D+00  0.000000D+00  0.000000D+00  0.000000D+00
     19  0.000000D+00  0.000000D+00  0.000000D+00  0.731756D-01  0.000000D+00
     20 -0.118756D+00  0.556353D-01  0.141196D-01  0.000000D+00  0.000000D+00
     21  0.153088D+00 -0.943140D-01  0.225909D-01  0.000000D+00  0.000000D+00
               16            17            18            19            20 
     16  0.453257D+01
     17 -0.268051D+01  0.602300D+01
     18 -0.357339D-01 -0.319618D+01  0.447465D+01
     19 -0.122581D+00 -0.659222D-01 -0.116042D+01  0.258479D+01
     20  0.000000D+00  0.000000D+00  0.000000D+00  0.000000D+00  0.115483D+00
     21  0.000000D+00  0.000000D+00  0.000000D+00  0.000000D+00 -0.298696D-01
               21 
     21  0.124206D+00
 Leave Link  716 at Mon Nov 25 17:29:08 2013, MaxMem=   436000000 cpu:         0.2
 (Enter /usr/local/gaussian/g09.d01.em64t.legacy.linda/g09/l103.exe)

 GradGradGradGradGradGradGradGradGradGradGradGradGradGradGradGradGradGrad
 Berny optimization.
 Search for a local minimum.
 Step number   1 out of a maximum of   22
 All quantities printed in internal units (Hartrees-Bohrs-Radians)
 Second derivative matrix not updated -- first step.
 The second derivative matrix:
                          rn1       rn2       rn3       rn4       rch
           rn1          0.65186
           rn2          0.01318   0.69869
           rn3          0.03472   0.07334   0.58262
           rn4          0.03688   0.02662   0.13967   0.63921
           rch          0.00000   0.00000   0.00000   0.00000   0.37510
           rnh          0.00000   0.00000   0.00000   0.00000   0.00000
           an1          0.02012  -0.75016   0.04258  -0.08486   0.00000
           an2          0.72119  -0.31234  -0.71865   0.05436   0.00000
           an3         -0.02914   1.04797   0.05412  -0.58583   0.00000
           an4          0.05328  -0.03228   0.65851  -0.10009   0.00000
           ach          0.04546   0.00000   0.00000   0.05066   0.00000
           anh         -0.10206   0.05276   0.00000   0.00000   0.00000
                          rnh       an1       an2       an3       an4
           rnh          0.48741
           an1          0.00000   4.53257
           an2          0.00000  -2.68051   6.02300
           an3          0.00000  -0.03573  -3.19618   4.47465
           an4          0.00000  -0.12258  -0.06592  -1.16042   2.58479
           ach          0.00000  -0.10460   0.00000   0.00000   0.07318
           anh          0.00000   0.03519  -0.09059   0.00000   0.00000
                          ach       anh
           ach          0.32000
           anh          0.00000   0.32000
 ITU=  0
     Eigenvalues ---    0.00000   0.13346   0.26445   0.33044   0.37510
     Eigenvalues ---    0.40158   0.48741   0.75609   1.20990   2.99509
     Eigenvalues ---    5.09563   9.64077
 Eigenvalue     1 is  -6.96D-16 should be greater than     0.000000 Eigenvector:
                          rn4       an3       rn1       an2       rn2
   1                    0.46996   0.46737  -0.44908   0.37973  -0.34167
                          an4       an1       rn3       ach       rnh
   1                    0.22152   0.18738   0.11801   0.00000   0.00000
 RFO step:  Lambda=-1.18233681D-02 EMin=-6.95624114D-16
 Linear search not attempted -- first point.
 Variable       Old X    -DE/DX   Delta X   Delta X   Delta X     New X
                                 (Linear)    (Quad)   (Total)
   rn1        2.34817   0.03374   0.00000   0.03065   0.03065   2.37882
   rn2        2.51900   0.05565   0.00000   0.07960   0.07960   2.59861
   rn3        2.10629   0.04109   0.00000   0.07836   0.07836   2.18465
   rn4        1.75064   0.04325   0.00000   0.04879   0.04879   1.79943
   rch        2.01785   0.01275   0.00000   0.03296   0.03296   2.05081
   rnh        1.87858   0.02042   0.00000   0.04090   0.04090   1.91948
   an1        1.25389  -0.01943   0.00000   0.01544   0.01544   1.26933
   an2        2.33355  -0.04433   0.00000   0.01191   0.01191   2.34547
   an3        3.39396   0.06783   0.00000   0.00619   0.00619   3.40015
   an4        4.81845  -0.01023   0.00000  -0.01767  -0.01767   4.80078
   ach        2.18209  -0.00027   0.00000  -0.00369  -0.00369   2.17841
   anh        2.10770  -0.00018   0.00000  -0.00215  -0.00215   2.10556
         Item               Value     Threshold  Converged?
 Maximum Force            0.067826     0.000450     NO 
 RMS     Force            0.035849     0.000300     NO 
 Maximum Displacement     0.079602     0.001800     NO 
 RMS     Displacement     0.040109     0.001200     NO 
 Predicted change in Energy=-6.025808D-03
 Lowest energy point so far.  Saving SCF results.
 GradGradGradGradGradGradGradGradGradGradGradGradGradGradGradGradGradGrad

 Leave Link  103 at Mon Nov 25 17:29:08 2013, MaxMem=   436000000 cpu:         0.3
 (Enter /usr/local/gaussian/g09.d01.em64t.legacy.linda/g09/l202.exe)
 ---------------------------------------------------------------------------------------------------
                            Z-MATRIX (ANGSTROMS AND DEGREES)
   CD    Cent   Atom    N1       Length/X        N2       Alpha/Y        N3        Beta/Z          J
 ---------------------------------------------------------------------------------------------------
      1         X 
      2         X        1   1.000000(     1)
      3      1  C        1   1.000000(     2)      2   90.000(     9)
      4      2  N        1   1.258818(     3)      2   90.000(    10)      3   72.727(    16)      0
      5      3  N        1   1.375123(     4)      2   90.000(    11)      3  134.385(    17)      0
      6      4  N        1   1.156066(     5)      2   90.000(    12)      3  194.814(    18)      0
      7      5  N        1   0.952219(     6)      2   90.000(    13)      3  275.064(    19)      0
      8      6  H        3   1.085242(     7)      4  124.814(    14)      5  180.000(    20)      0
      9      7  H        4   1.015743(     8)      5  120.639(    15)      6  180.000(    21)      0
 ---------------------------------------------------------------------------------------------------
                         Z-Matrix orientation:                         
 ---------------------------------------------------------------------
 Center     Atomic      Atomic             Coordinates (Angstroms)
 Number     Number       Type             X           Y           Z
 ---------------------------------------------------------------------
      1         -1           0        0.000000    0.000000    0.000000
      2         -1           0        0.000000    0.000000    1.000000
      3          6           0        1.000000    0.000000    0.000000
      4          7           0        0.373770   -1.202047    0.000000
      5          7           0       -0.961872   -0.982734    0.000000
      6          7           0       -1.117638    0.295590    0.000000
      7          7           0        0.084057    0.948501    0.000000
      8          1           0        2.076457    0.137812    0.000000
      9          1           0        0.742982   -2.148312    0.000000
 ---------------------------------------------------------------------
                    Distance matrix (angstroms):
                    1          2          3          4          5
     1  X    0.000000
     2  X    1.000000   0.000000
     3  C    1.000000   1.414214   0.000000
     4  N    1.258818   1.607676   1.355390   0.000000
     5  N    1.375123   1.700284   2.194245   1.353529   0.000000
     6  N    1.156066   1.528558   2.138169   2.113579   1.287779
     7  N    0.952219   1.380841   1.318562   2.169975   2.196278
     8  H    2.081025   2.308823   1.085242   2.166648   3.238374
     9  H    2.273162   2.483398   2.163632   1.015743   2.065212
                    6          7          8          9
     6  N    0.000000
     7  N    1.367613   0.000000
     8  H    3.197989   2.151017   0.000000
     9  H    3.071574   3.166139   2.646604   0.000000
 Stoichiometry    CH2N4
 Framework group  CS[SG(CH2N4)]
 Deg. of freedom    11
 Full point group                 CS      NOp   2
 RotChk:  IX=0 Diff= 3.31D-03
 Largest Abelian subgroup         CS      NOp   2
 Largest concise Abelian subgroup C1      NOp   1
                         Standard orientation:                         
 ---------------------------------------------------------------------
 Center     Atomic      Atomic             Coordinates (Angstroms)
 Number     Number       Type             X           Y           Z
 ---------------------------------------------------------------------
      1          6           0        1.071977    0.231311    0.000000
      2          7           0        0.000000    1.060736    0.000000
      3          7           0       -1.121117    0.302358    0.000000
      4          7           0       -0.727359   -0.923746    0.000000
      5          7           0        0.637303   -1.013544    0.000000
      6          1           0        2.107241    0.556855    0.000000
      7          1           0       -0.060893    2.074652    0.000000
 ---------------------------------------------------------------------
 Rotational constants (GHZ):     10.4689202     10.2727183      5.1849456
 Leave Link  202 at Mon Nov 25 17:29:08 2013, MaxMem=   436000000 cpu:         0.0
 (Enter /usr/local/gaussian/g09.d01.em64t.legacy.linda/g09/l301.exe)
 Standard basis: 6-311G(d,p) (5D, 7F)
 Ernie: Thresh=  0.10000D-02 Tol=  0.10000D-05 Strict=F.
 There are    80 symmetry adapted cartesian basis functions of A'  symmetry.
 There are    27 symmetry adapted cartesian basis functions of A"  symmetry.
 There are    75 symmetry adapted basis functions of A'  symmetry.
 There are    27 symmetry adapted basis functions of A"  symmetry.
   102 basis functions,   176 primitive gaussians,   107 cartesian basis functions
    18 alpha electrons       18 beta electrons
       nuclear repulsion energy       166.1963556657 Hartrees.
 IExCor= 1009 DFT=T Ex=PBE Corr=PBE ExCW=0 ScaHFX=  0.000000
 ScaDFX=  1.000000  1.000000  1.000000  1.000000 ScalE2=  1.000000  1.000000
 IRadAn=      0 IRanWt=     -1 IRanGd=            0 ICorTp=0 IEmpDi=  4
 NAtoms=    7 NActive=    7 NUniq=    7 SFac= 1.00D+00 NAtFMM=   60 NAOKFM=F Big=F
 Integral buffers will be    131072 words long.
 Raffenetti 2 integral format.
 Two-electron integral symmetry is turned on.
 Leave Link  301 at Mon Nov 25 17:29:08 2013, MaxMem=   436000000 cpu:         0.3
 (Enter /usr/local/gaussian/g09.d01.em64t.legacy.linda/g09/l302.exe)
 NPDir=0 NMtPBC=     1 NCelOv=     1 NCel=       1 NClECP=     1 NCelD=      1
         NCelK=      1 NCelE2=     1 NClLst=     1 CellRange=     0.0.
 One-electron integrals computed using PRISM.
 NBasis=   102 RedAO= T EigKep=  4.61D-03  NBF=    75    27
 NBsUse=   102 1.00D-06 EigRej= -1.00D+00 NBFU=    75    27
 Precomputing XC quadrature grid using
 IXCGrd= 4 IRadAn=           0 IRanWt=          -1 IRanGd=           0 AccXCQ= 0.00D+00.
 Generated NRdTot=       0 NPtTot=           0 NUsed=           0 NTot=          32
 NSgBfM=   107   107   107   107   107 MxSgAt=     7 MxSgA2=     7.
 Leave Link  302 at Mon Nov 25 17:29:08 2013, MaxMem=   436000000 cpu:         1.3
 (Enter /usr/local/gaussian/g09.d01.em64t.legacy.linda/g09/l303.exe)
 DipDrv:  MaxL=1.
 Leave Link  303 at Mon Nov 25 17:29:08 2013, MaxMem=   436000000 cpu:         0.2
 (Enter /usr/local/gaussian/g09.d01.em64t.legacy.linda/g09/l401.exe)
 Initial guess from the checkpoint file:  "/tmp/rdj3/g09-31683/Gau-7762.chk"
 B after Tr=     0.000000    0.000000    0.000000
         Rot=    1.000000    0.000000    0.000000   -0.000245 Ang=  -0.03 deg.
 Guess basis will be translated and rotated to current coordinates.
 JPrj=2 DoOrth=T DoCkMO=T.
 Initial guess orbital symmetries:
       Occupied  (A') (A') (A') (A') (A') (A') (A') (A') (A') (A')
                 (A') (A") (A') (A') (A") (A") (A') (A')
       Virtual   (A') (A') (A') (A') (A') (A') (A') (A') (A') (A')
                 (A') (A') (A') (A') (A') (A') (A') (A') (A') (A')
                 (A') (A') (A') (A') (A') (A') (A') (A') (A') (A')
                 (A') (A') (A') (A') (A') (A') (A') (A') (A') (A')
                 (A') (A') (A') (A') (A') (A') (A') (A') (A') (A')
                 (A') (A') (A') (A') (A') (A') (A') (A') (A') (A')
                 (A") (A") (A") (A") (A") (A") (A") (A") (A") (A")
                 (A") (A") (A") (A") (A") (A") (A") (A") (A") (A")
                 (A") (A") (A") (A")
 The electronic state of the initial guess is 1-A'.
 Generating alternative initial guess.
 ExpMin= 1.03D-01 ExpMax= 6.29D+03 ExpMxC= 9.49D+02 IAcc=1 IRadAn=         1 AccDes= 0.00D+00
 Harris functional with IExCor= 1009 and IRadAn=       1 diagonalized for initial guess.
 HarFok:  IExCor= 1009 AccDes= 0.00D+00 IRadAn=         1 IDoV= 1 UseB2=F ITyADJ=14
 ICtDFT=  3500011 ScaDFX=  1.000000  1.000000  1.000000  1.000000
 FoFCou: FMM=F IPFlag=           0 FMFlag=      100000 FMFlg1=           0
         NFxFlg=           0 DoJE=T BraDBF=F KetDBF=T FulRan=T
         wScrn=  0.000000 ICntrl=     500 IOpCl=  0 I1Cent=   200000004 NGrid=           0
         NMat0=    1 NMatS0=      1 NMatT0=    0 NMatD0=    1 NMtDS0=    0 NMtDT0=    0
 Petite list used in FoFCou.
 Harris En= -258.037279161991    
 Leave Link  401 at Mon Nov 25 17:29:08 2013, MaxMem=   436000000 cpu:         1.8
 (Enter /usr/local/gaussian/g09.d01.em64t.legacy.linda/g09/l502.exe)
 Closed shell SCF:
 Using DIIS extrapolation, IDIIS=  1040.
 Integral symmetry usage will be decided dynamically.
 Keep J ints in memory in symmetry-blocked form, NReq=21129077.
 IVT=       54581 IEndB=       54581 NGot=   436000000 MDV=   428670657
 LenX=   428670657 LenY=   428658767
 Requested convergence on RMS density matrix=1.00D-08 within 128 cycles.
 Requested convergence on MAX density matrix=1.00D-06.
 Requested convergence on             energy=1.00D-06.
 No special actions if energy rises.
 FoFCou: FMM=F IPFlag=           0 FMFlag=           0 FMFlg1=           0
         NFxFlg=           0 DoJE=F BraDBF=F KetDBF=F FulRan=T
         wScrn=  0.000000 ICntrl=     600 IOpCl=  0 I1Cent=           0 NGrid=           0
         NMat0=    1 NMatS0=   5253 NMatT0=    0 NMatD0=    1 NMtDS0=    0 NMtDT0=    0
 Petite list used in FoFCou.
 Integral accuracy reduced to 1.0D-05 until final iterations.

 Cycle   1  Pass 0  IDiag  1:
 E= -258.040648551593    
 DIIS: error= 4.66D-03 at cycle   1 NSaved=   1.
 NSaved= 1 IEnMin= 1 EnMin= -258.040648551593     IErMin= 1 ErrMin= 4.66D-03
 ErrMax= 4.66D-03  0.00D+00 EMaxC= 1.00D-01 BMatC= 1.97D-03 BMatP= 1.97D-03
 IDIUse=3 WtCom= 9.53D-01 WtEn= 4.66D-02
 Coeff-Com:  0.100D+01
 Coeff-En:   0.100D+01
 Coeff:      0.100D+01
 Gap=     0.862 Goal=   None    Shift=    0.000
 GapD=    0.862 DampG=2.000 DampE=1.000 DampFc=2.0000 IDamp=-1.
 RMSDP=6.61D-04 MaxDP=1.15D-02              OVMax= 1.60D-02

 Cycle   2  Pass 0  IDiag  1:
 E= -258.042243938819     Delta-E=       -0.001595387226 Rises=F Damp=F
 DIIS: error= 2.24D-03 at cycle   2 NSaved=   2.
 NSaved= 2 IEnMin= 2 EnMin= -258.042243938819     IErMin= 2 ErrMin= 2.24D-03
 ErrMax= 2.24D-03  0.00D+00 EMaxC= 1.00D-01 BMatC= 3.60D-04 BMatP= 1.97D-03
 IDIUse=3 WtCom= 9.78D-01 WtEn= 2.24D-02
 Coeff-Com:  0.240D+00 0.760D+00
 Coeff-En:   0.000D+00 0.100D+01
 Coeff:      0.235D+00 0.765D+00
 Gap=     0.184 Goal=   None    Shift=    0.000
 RMSDP=2.36D-04 MaxDP=4.38D-03 DE=-1.60D-03 OVMax= 6.61D-03

 Cycle   3  Pass 0  IDiag  1:
 E= -258.042369246583     Delta-E=       -0.000125307763 Rises=F Damp=F
 DIIS: error= 1.36D-03 at cycle   3 NSaved=   3.
 NSaved= 3 IEnMin= 3 EnMin= -258.042369246583     IErMin= 3 ErrMin= 1.36D-03
 ErrMax= 1.36D-03  0.00D+00 EMaxC= 1.00D-01 BMatC= 2.16D-04 BMatP= 3.60D-04
 IDIUse=3 WtCom= 9.86D-01 WtEn= 1.36D-02
 Coeff-Com:  0.382D-01 0.437D+00 0.525D+00
 Coeff-En:   0.000D+00 0.379D+00 0.621D+00
 Coeff:      0.377D-01 0.436D+00 0.526D+00
 Gap=     0.186 Goal=   None    Shift=    0.000
 RMSDP=1.34D-04 MaxDP=2.80D-03 DE=-1.25D-04 OVMax= 6.62D-03

 Cycle   4  Pass 0  IDiag  1:
 E= -258.042493595203     Delta-E=       -0.000124348620 Rises=F Damp=F
 DIIS: error= 1.28D-03 at cycle   4 NSaved=   4.
 NSaved= 4 IEnMin= 4 EnMin= -258.042493595203     IErMin= 4 ErrMin= 1.28D-03
 ErrMax= 1.28D-03  0.00D+00 EMaxC= 1.00D-01 BMatC= 6.77D-05 BMatP= 2.16D-04
 IDIUse=3 WtCom= 9.87D-01 WtEn= 1.28D-02
 Coeff-Com:  0.110D-01 0.274D+00 0.398D+00 0.317D+00
 Coeff-En:   0.000D+00 0.000D+00 0.237D+00 0.763D+00
 Coeff:      0.108D-01 0.271D+00 0.396D+00 0.322D+00
 Gap=     0.185 Goal=   None    Shift=    0.000
 RMSDP=6.65D-05 MaxDP=8.30D-04 DE=-1.24D-04 OVMax= 3.71D-03

 Cycle   5  Pass 0  IDiag  1:
 E= -258.042550553079     Delta-E=       -0.000056957876 Rises=F Damp=F
 DIIS: error= 3.06D-04 at cycle   5 NSaved=   5.
 NSaved= 5 IEnMin= 5 EnMin= -258.042550553079     IErMin= 5 ErrMin= 3.06D-04
 ErrMax= 3.06D-04  0.00D+00 EMaxC= 1.00D-01 BMatC= 2.77D-06 BMatP= 6.77D-05
 IDIUse=3 WtCom= 9.97D-01 WtEn= 3.06D-03
 Coeff-Com:  0.276D-02 0.115D+00 0.180D+00 0.208D+00 0.494D+00
 Coeff-En:   0.000D+00 0.000D+00 0.000D+00 0.280D-01 0.972D+00
 Coeff:      0.275D-02 0.115D+00 0.180D+00 0.207D+00 0.496D+00
 Gap=     0.186 Goal=   None    Shift=    0.000
 RMSDP=1.59D-05 MaxDP=2.23D-04 DE=-5.70D-05 OVMax= 9.17D-04

 Cycle   6  Pass 0  IDiag  1:
 E= -258.042552493522     Delta-E=       -0.000001940443 Rises=F Damp=F
 DIIS: error= 1.25D-04 at cycle   6 NSaved=   6.
 NSaved= 6 IEnMin= 6 EnMin= -258.042552493522     IErMin= 6 ErrMin= 1.25D-04
 ErrMax= 1.25D-04  0.00D+00 EMaxC= 1.00D-01 BMatC= 8.29D-07 BMatP= 2.77D-06
 IDIUse=3 WtCom= 9.99D-01 WtEn= 1.25D-03
 Coeff-Com:  0.241D-03 0.366D-01 0.634D-01 0.101D+00 0.388D+00 0.411D+00
 Coeff-En:   0.000D+00 0.000D+00 0.000D+00 0.000D+00 0.229D+00 0.771D+00
 Coeff:      0.240D-03 0.365D-01 0.633D-01 0.101D+00 0.388D+00 0.412D+00
 Gap=     0.185 Goal=   None    Shift=    0.000
 RMSDP=5.86D-06 MaxDP=1.23D-04 DE=-1.94D-06 OVMax= 3.85D-04

 Initial convergence to 1.0D-05 achieved.  Increase integral accuracy.
 Cycle   7  Pass 1  IDiag  1:
 E= -258.042560595283     Delta-E=       -0.000008101761 Rises=F Damp=F
 DIIS: error= 2.52D-05 at cycle   1 NSaved=   1.
 NSaved= 1 IEnMin= 1 EnMin= -258.042560595283     IErMin= 1 ErrMin= 2.52D-05
 ErrMax= 2.52D-05  0.00D+00 EMaxC= 1.00D-01 BMatC= 4.67D-08 BMatP= 4.67D-08
 IDIUse=1 WtCom= 1.00D+00 WtEn= 0.00D+00
 Coeff-Com:  0.100D+01
 Coeff:      0.100D+01
 Gap=     0.185 Goal=   None    Shift=    0.000
 RMSDP=5.86D-06 MaxDP=1.23D-04 DE=-8.10D-06 OVMax= 3.00D-04

 Cycle   8  Pass 1  IDiag  1:
 E= -258.042560432927     Delta-E=        0.000000162357 Rises=F Damp=F
 DIIS: error= 6.72D-05 at cycle   2 NSaved=   2.
 NSaved= 2 IEnMin= 1 EnMin= -258.042560595283     IErMin= 1 ErrMin= 2.52D-05
 ErrMax= 6.72D-05  0.00D+00 EMaxC= 1.00D-01 BMatC= 2.18D-07 BMatP= 4.67D-08
 IDIUse=1 WtCom= 1.00D+00 WtEn= 0.00D+00
 Coeff-Com:  0.700D+00 0.300D+00
 Coeff:      0.700D+00 0.300D+00
 Gap=     0.185 Goal=   None    Shift=    0.000
 RMSDP=3.89D-06 MaxDP=5.21D-05 DE= 1.62D-07 OVMax= 2.38D-04

 Cycle   9  Pass 1  IDiag  1:
 E= -258.042560641325     Delta-E=       -0.000000208399 Rises=F Damp=F
 DIIS: error= 8.30D-06 at cycle   3 NSaved=   3.
 NSaved= 3 IEnMin= 3 EnMin= -258.042560641325     IErMin= 3 ErrMin= 8.30D-06
 ErrMax= 8.30D-06  0.00D+00 EMaxC= 1.00D-01 BMatC= 3.52D-09 BMatP= 4.67D-08
 IDIUse=1 WtCom= 1.00D+00 WtEn= 0.00D+00
 Coeff-Com:  0.112D+00 0.126D+00 0.762D+00
 Coeff:      0.112D+00 0.126D+00 0.762D+00
 Gap=     0.185 Goal=   None    Shift=    0.000
 RMSDP=5.34D-07 MaxDP=8.38D-06 DE=-2.08D-07 OVMax= 2.08D-05

 Cycle  10  Pass 1  IDiag  1:
 E= -258.042560643421     Delta-E=       -0.000000002096 Rises=F Damp=F
 DIIS: error= 4.33D-06 at cycle   4 NSaved=   4.
 NSaved= 4 IEnMin= 4 EnMin= -258.042560643421     IErMin= 4 ErrMin= 4.33D-06
 ErrMax= 4.33D-06  0.00D+00 EMaxC= 1.00D-01 BMatC= 1.13D-09 BMatP= 3.52D-09
 IDIUse=1 WtCom= 1.00D+00 WtEn= 0.00D+00
 Coeff-Com:  0.196D-01 0.600D-01 0.482D+00 0.439D+00
 Coeff:      0.196D-01 0.600D-01 0.482D+00 0.439D+00
 Gap=     0.185 Goal=   None    Shift=    0.000
 RMSDP=2.57D-07 MaxDP=4.55D-06 DE=-2.10D-09 OVMax= 1.46D-05

 Cycle  11  Pass 1  IDiag  1:
 E= -258.042560644255     Delta-E=       -0.000000000834 Rises=F Damp=F
 DIIS: error= 1.44D-06 at cycle   5 NSaved=   5.
 NSaved= 5 IEnMin= 5 EnMin= -258.042560644255     IErMin= 5 ErrMin= 1.44D-06
 ErrMax= 1.44D-06  0.00D+00 EMaxC= 1.00D-01 BMatC= 1.43D-10 BMatP= 1.13D-09
 IDIUse=1 WtCom= 1.00D+00 WtEn= 0.00D+00
 Coeff-Com:  0.110D-02 0.276D-01 0.243D+00 0.292D+00 0.436D+00
 Coeff:      0.110D-02 0.276D-01 0.243D+00 0.292D+00 0.436D+00
 Gap=     0.185 Goal=   None    Shift=    0.000
 RMSDP=8.89D-08 MaxDP=1.50D-06 DE=-8.34D-10 OVMax= 5.68D-06

 Cycle  12  Pass 1  IDiag  1:
 E= -258.042560644354     Delta-E=       -0.000000000099 Rises=F Damp=F
 DIIS: error= 6.69D-07 at cycle   6 NSaved=   6.
 NSaved= 6 IEnMin= 6 EnMin= -258.042560644354     IErMin= 6 ErrMin= 6.69D-07
 ErrMax= 6.69D-07  0.00D+00 EMaxC= 1.00D-01 BMatC= 2.20D-11 BMatP= 1.43D-10
 IDIUse=1 WtCom= 1.00D+00 WtEn= 0.00D+00
 Coeff-Com: -0.575D-03 0.147D-01 0.132D+00 0.171D+00 0.324D+00 0.358D+00
 Coeff:     -0.575D-03 0.147D-01 0.132D+00 0.171D+00 0.324D+00 0.358D+00
 Gap=     0.185 Goal=   None    Shift=    0.000
 RMSDP=4.14D-08 MaxDP=5.68D-07 DE=-9.88D-11 OVMax= 2.24D-06

 Cycle  13  Pass 1  IDiag  1:
 E= -258.042560644371     Delta-E=       -0.000000000017 Rises=F Damp=F
 DIIS: error= 2.19D-07 at cycle   7 NSaved=   7.
 NSaved= 7 IEnMin= 7 EnMin= -258.042560644371     IErMin= 7 ErrMin= 2.19D-07
 ErrMax= 2.19D-07  0.00D+00 EMaxC= 1.00D-01 BMatC= 2.27D-12 BMatP= 2.20D-11
 IDIUse=1 WtCom= 1.00D+00 WtEn= 0.00D+00
 Coeff-Com: -0.793D-03 0.656D-02 0.596D-01 0.797D-01 0.169D+00 0.259D+00
 Coeff-Com:  0.427D+00
 Coeff:     -0.793D-03 0.656D-02 0.596D-01 0.797D-01 0.169D+00 0.259D+00
 Coeff:      0.427D+00
 Gap=     0.185 Goal=   None    Shift=    0.000
 RMSDP=1.08D-08 MaxDP=2.02D-07 DE=-1.72D-11 OVMax= 5.63D-07

 Cycle  14  Pass 1  IDiag  1:
 E= -258.042560644374     Delta-E=       -0.000000000003 Rises=F Damp=F
 DIIS: error= 4.39D-08 at cycle   8 NSaved=   8.
 NSaved= 8 IEnMin= 8 EnMin= -258.042560644374     IErMin= 8 ErrMin= 4.39D-08
 ErrMax= 4.39D-08  0.00D+00 EMaxC= 1.00D-01 BMatC= 9.70D-14 BMatP= 2.27D-12
 IDIUse=1 WtCom= 1.00D+00 WtEn= 0.00D+00
 Coeff-Com: -0.420D-03 0.303D-02 0.279D-01 0.375D-01 0.817D-01 0.136D+00
 Coeff-Com:  0.259D+00 0.456D+00
 Coeff:     -0.420D-03 0.303D-02 0.279D-01 0.375D-01 0.817D-01 0.136D+00
 Coeff:      0.259D+00 0.456D+00
 Gap=     0.185 Goal=   None    Shift=    0.000
 RMSDP=2.73D-09 MaxDP=4.98D-08 DE=-2.50D-12 OVMax= 1.42D-07

 SCF Done:  E(RPBE-PBE) =  -258.042560644     A.U. after   14 cycles
            NFock= 14  Conv=0.27D-08     -V/T= 2.0020
 KE= 2.575155061544D+02 PE=-9.360151430767D+02 EE= 2.542607206121D+02
 Leave Link  502 at Mon Nov 25 17:29:10 2013, MaxMem=   436000000 cpu:        11.8
 (Enter /usr/local/gaussian/g09.d01.em64t.legacy.linda/g09/l701.exe)
 Compute integral first derivatives.
 ... and contract with generalized density number  0.
 Leave Link  701 at Mon Nov 25 17:29:10 2013, MaxMem=   436000000 cpu:         1.5
 (Enter /usr/local/gaussian/g09.d01.em64t.legacy.linda/g09/l702.exe)
 L702 exits ... SP integral derivatives will be done elsewhere.
 Leave Link  702 at Mon Nov 25 17:29:10 2013, MaxMem=   436000000 cpu:         0.2
 (Enter /usr/local/gaussian/g09.d01.em64t.legacy.linda/g09/l703.exe)
 Compute integral first derivatives, UseDBF=F ICtDFT=           0.
 Integral derivatives from FoFJK, PRISM(SPDF).
 Calling FoFJK, ICntrl=      2527 FMM=F ISym2X=1 I1Cent= 0 IOpClX= 0 NMat=1 NMatS=1 NMatT=0.
 FoFJK:  IHMeth= 1 ICntrl=    2527 DoSepK=F KAlg= 0 I1Cent=   0 FoldK=F
 IRaf=         0 NMat=   1 IRICut=       1 DoRegI=T DoRafI=F ISym2E= 1.
 FoFCou: FMM=F IPFlag=           0 FMFlag=      100000 FMFlg1=         800
         NFxFlg=           0 DoJE=F BraDBF=F KetDBF=F FulRan=T
         wScrn=  0.000000 ICntrl=    2527 IOpCl=  0 I1Cent=           0 NGrid=           0
         NMat0=    1 NMatS0=      1 NMatT0=    0 NMatD0=    1 NMtDS0=    0 NMtDT0=    0
 Petite list used in FoFCou.
 Leave Link  703 at Mon Nov 25 17:29:11 2013, MaxMem=   436000000 cpu:         5.4
 (Enter /usr/local/gaussian/g09.d01.em64t.legacy.linda/g09/l716.exe)
 Dipole        = 9.46824310D-01 1.83277245D+00-4.10259977D-32
 ***** Axes restored to original set *****
 -------------------------------------------------------------------
 Center     Atomic                   Forces (Hartrees/Bohr)
 Number     Number              X              Y              Z
 -------------------------------------------------------------------
      1        6           0.002996349   -0.002816379    0.000000000
      2        7           0.004300556    0.002958372    0.000000000
      3        7          -0.004960302   -0.011844310    0.000000000
      4        7          -0.004665784    0.008373121    0.000000000
      5        7           0.002093812    0.004030048    0.000000000
      6        1           0.000083192   -0.000071843    0.000000000
      7        1           0.000152178   -0.000629008    0.000000000
 -------------------------------------------------------------------
 Cartesian Forces:  Max     0.011844310 RMS     0.003915683
 -----------------------------------------------------------------------------------------------
                       Internal Coordinate Forces (Hartree/Bohr or radian)
  Cent   Atom   N1       Length/X         N2         Alpha/Y        N3         Beta/Z          J
 -----------------------------------------------------------------------------------------------
         X 
         X        1   0.000000(     1)
      1  C        1   0.003138(     2)      2   0.000000(     9)
      2  N        1  -0.000890(     3)      2   0.000000(    10)      3  -0.011580(    16)     0
      3  N        1   0.011881(     4)      2   0.000000(    11)      3  -0.012220(    17)     0
      4  N        1   0.006652(     5)      2   0.000000(    12)      3   0.015078(    18)     0
      5  N        1   0.004199(     6)      2   0.000000(    13)      3   0.003113(    19)     0
      6  H        3   0.000073(     7)      4  -0.000168(    14)      5   0.000000(    20)     0
      7  H        4   0.000641(     8)      5  -0.000167(    15)      6   0.000000(    21)     0
 -----------------------------------------------------------------------------------------------
 Internal  Forces:  Max     0.015078049 RMS     0.005914463
 Leave Link  716 at Mon Nov 25 17:29:11 2013, MaxMem=   436000000 cpu:         0.2
 (Enter /usr/local/gaussian/g09.d01.em64t.legacy.linda/g09/l103.exe)

 GradGradGradGradGradGradGradGradGradGradGradGradGradGradGradGradGradGrad
 Berny optimization.
 Search for a local minimum.
 Step number   2 out of a maximum of   22
 All quantities printed in internal units (Hartrees-Bohrs-Radians)
 Update second derivatives using D2CorN and points    1    2
 DE= -6.43D-03 DEPred=-6.03D-03 R= 1.07D+00
 TightC=F SS=  1.41D+00  RLast= 1.39D-01 DXNew= 5.0454D-01 4.1682D-01
 Trust test= 1.07D+00 RLast= 1.39D-01 DXMaxT set to 4.17D-01
 The second derivative matrix:
                          rn1       rn2       rn3       rn4       rch
           rn1          0.65385
           rn2          0.00708   0.65358
           rn3          0.03272   0.03934   0.55938
           rn4          0.03559   0.00532   0.12509   0.63006
           rch          0.00132  -0.00869  -0.00425  -0.00269   0.37564
           rnh          0.00120  -0.01191  -0.00638  -0.00404   0.00020
           an1          0.02996  -0.73029   0.06416  -0.07144   0.01017
           an2          0.73139  -0.29023  -0.69533   0.06886   0.01065
           an3         -0.04085   1.01528   0.02275  -0.60537  -0.01276
           an4          0.05007  -0.03412   0.65439  -0.10263  -0.00298
           ach          0.04544   0.00130   0.00080   0.05116   0.00008
           anh         -0.10201   0.05366   0.00061   0.00038   0.00010
                          rnh       an1       an2       an3       an4
           rnh          0.48707
           an1          0.01240   4.54198
           an2          0.01305  -2.67194   6.03063
           an3         -0.01592  -0.03985  -3.19883   4.46984
           an4         -0.00345  -0.12929  -0.07260  -1.15409   2.58783
           ach          0.00015  -0.10567  -0.00114   0.00145   0.07344
           anh          0.00016   0.03459  -0.09124   0.00086   0.00012
                          ach       anh
           ach          0.31998
           anh         -0.00002   0.31998
 ITU=  1  0
     Eigenvalues ---    0.00001   0.12820   0.26474   0.32825   0.37525
     Eigenvalues ---    0.39498   0.48691   0.72913   1.20985   2.99069
     Eigenvalues ---    5.08512   9.63669
 RFO step:  Lambda=-1.50489626D-04 EMin= 5.94088228D-06
 Quartic linear search produced a step of  0.15030.
 Variable       Old X    -DE/DX   Delta X   Delta X   Delta X     New X
                                 (Linear)    (Quad)   (Total)
   rn1        2.37882  -0.00089   0.00461  -0.02126  -0.01665   2.36217
   rn2        2.59861   0.01188   0.01196   0.00335   0.01532   2.61392
   rn3        2.18465   0.00665   0.01178   0.00755   0.01933   2.20398
   rn4        1.79943   0.00420   0.00733   0.00742   0.01475   1.81418
   rch        2.05081   0.00007   0.00495  -0.00377   0.00118   2.05199
   rnh        1.91948   0.00064   0.00615  -0.00371   0.00244   1.92192
   an1        1.26933  -0.01158   0.00232   0.00433   0.00665   1.27598
   an2        2.34547  -0.01222   0.00179   0.00945   0.01124   2.35671
   an3        3.40015   0.01508   0.00093   0.00984   0.01077   3.41092
   an4        4.80078   0.00311  -0.00266   0.00558   0.00292   4.80370
   ach        2.17841  -0.00017  -0.00055   0.00135   0.00080   2.17921
   anh        2.10556  -0.00017  -0.00032  -0.00574  -0.00606   2.09950
         Item               Value     Threshold  Converged?
 Maximum Force            0.015078     0.000450     NO 
 RMS     Force            0.007771     0.000300     NO 
 Maximum Displacement     0.019330     0.001800     NO 
 RMS     Displacement     0.010966     0.001200     NO 
 Predicted change in Energy=-1.539455D-04
 Lowest energy point so far.  Saving SCF results.
 GradGradGradGradGradGradGradGradGradGradGradGradGradGradGradGradGradGrad

 Leave Link  103 at Mon Nov 25 17:29:11 2013, MaxMem=   436000000 cpu:         0.1
 (Enter /usr/local/gaussian/g09.d01.em64t.legacy.linda/g09/l202.exe)
 ---------------------------------------------------------------------------------------------------
                            Z-MATRIX (ANGSTROMS AND DEGREES)
   CD    Cent   Atom    N1       Length/X        N2       Alpha/Y        N3        Beta/Z          J
 ---------------------------------------------------------------------------------------------------
      1         X 
      2         X        1   1.000000(     1)
      3      1  C        1   1.000000(     2)      2   90.000(     9)
      4      2  N        1   1.250007(     3)      2   90.000(    10)      3   73.108(    16)      0
      5      3  N        1   1.383229(     4)      2   90.000(    11)      3  135.029(    17)      0
      6      4  N        1   1.166295(     5)      2   90.000(    12)      3  195.431(    18)      0
      7      5  N        1   0.960025(     6)      2   90.000(    13)      3  275.232(    19)      0
      8      6  H        3   1.085869(     7)      4  124.860(    14)      5  180.000(    20)      0
      9      7  H        4   1.017035(     8)      5  120.292(    15)      6  180.000(    21)      0
 ---------------------------------------------------------------------------------------------------
                         Z-Matrix orientation:                         
 ---------------------------------------------------------------------
 Center     Atomic      Atomic             Coordinates (Angstroms)
 Number     Number       Type             X           Y           Z
 ---------------------------------------------------------------------
      1         -1           0        0.000000    0.000000    0.000000
      2         -1           0        0.000000    0.000000    1.000000
      3          6           0        1.000000    0.000000    0.000000
      4          7           0        0.363208   -1.196076    0.000000
      5          7           0       -0.978594   -0.977587    0.000000
      6          7           0       -1.124250    0.310334    0.000000
      7          7           0        0.087539    0.956026    0.000000
      8          1           0        2.078166    0.129110    0.000000
      9          1           0        0.728407   -2.145281    0.000000
 ---------------------------------------------------------------------
                    Distance matrix (angstroms):
                    1          2          3          4          5
     1  X    0.000000
     2  X    1.000000   0.000000
     3  C    1.000000   1.414214   0.000000
     4  N    1.250007   1.600787   1.355028   0.000000
     5  N    1.383229   1.706846   2.206923   1.359474   0.000000
     6  N    1.166295   1.536309   2.146798   2.117027   1.296131
     7  N    0.960025   1.386235   1.321579   2.169686   2.208053
     8  H    2.082173   2.309858   1.085869   2.167302   3.250932
     9  H    2.265570   2.476451   2.162405   1.017035   2.068178
                    6          7          8          9
     6  N    0.000000
     7  N    1.373081   0.000000
     8  H    3.207539   2.155547   0.000000
     9  H    3.076098   3.166831   2.644751   0.000000
 Stoichiometry    CH2N4
 Framework group  CS[SG(CH2N4)]
 Deg. of freedom    11
 Full point group                 CS      NOp   2
 RotChk:  IX=0 Diff= 5.41D-03
 Largest Abelian subgroup         CS      NOp   2
 Largest concise Abelian subgroup C1      NOp   1
                         Standard orientation:                         
 ---------------------------------------------------------------------
 Center     Atomic      Atomic             Coordinates (Angstroms)
 Number     Number       Type             X           Y           Z
 ---------------------------------------------------------------------
      1          6           0        1.075928    0.235578    0.000000
      2          7           0        0.000000    1.059277    0.000000
      3          7           0       -1.129953    0.303382    0.000000
      4          7           0       -0.727702   -0.928750    0.000000
      5          7           0        0.642791   -1.013006    0.000000
      6          1           0        2.110372    0.565788    0.000000
      7          1           0       -0.061889    2.074427    0.000000
 ---------------------------------------------------------------------
 Rotational constants (GHZ):     10.4225697     10.1905414      5.1526248
 Leave Link  202 at Mon Nov 25 17:29:11 2013, MaxMem=   436000000 cpu:         0.0
 (Enter /usr/local/gaussian/g09.d01.em64t.legacy.linda/g09/l301.exe)
 Standard basis: 6-311G(d,p) (5D, 7F)
 Ernie: Thresh=  0.10000D-02 Tol=  0.10000D-05 Strict=F.
 There are    80 symmetry adapted cartesian basis functions of A'  symmetry.
 There are    27 symmetry adapted cartesian basis functions of A"  symmetry.
 There are    75 symmetry adapted basis functions of A'  symmetry.
 There are    27 symmetry adapted basis functions of A"  symmetry.
   102 basis functions,   176 primitive gaussians,   107 cartesian basis functions
    18 alpha electrons       18 beta electrons
       nuclear repulsion energy       165.6699557458 Hartrees.
 IExCor= 1009 DFT=T Ex=PBE Corr=PBE ExCW=0 ScaHFX=  0.000000
 ScaDFX=  1.000000  1.000000  1.000000  1.000000 ScalE2=  1.000000  1.000000
 IRadAn=      0 IRanWt=     -1 IRanGd=            0 ICorTp=0 IEmpDi=  4
 NAtoms=    7 NActive=    7 NUniq=    7 SFac= 1.00D+00 NAtFMM=   60 NAOKFM=F Big=F
 Integral buffers will be    131072 words long.
 Raffenetti 2 integral format.
 Two-electron integral symmetry is turned on.
 Leave Link  301 at Mon Nov 25 17:29:11 2013, MaxMem=   436000000 cpu:         0.3
[...]
     X                                                                                          X      X       X                     
     X                                                                                          X      X       X                     
     X                                                                                          X              X                     
     X                                                                                                         X                     
     X                                                                                                         X                     
     X                                                                                                         X                     
     X                                                                                                         X                     
     X                                                                                                         X                     
     X                                                                                                         X                     
     X                                                                                                         X                     
     X                                                                                                         X                     
     X                                                                                                         X                     
     X                                                                                                         X                     
     X                                                                                                         X                     
                                                                                                               X                     
                                                                                                               X                     
 
 ***** Axes restored to original set *****
 -------------------------------------------------------------------
 Center     Atomic                   Forces (Hartrees/Bohr)
 Number     Number              X              Y              Z
 -------------------------------------------------------------------
      1        6          -0.000017793    0.000038765    0.000000000
      2        7           0.000026052   -0.000020352    0.000000000
      3        7          -0.000049689    0.000012891    0.000000000
      4        7          -0.000017095   -0.000078530    0.000000000
      5        7           0.000058645    0.000046516    0.000000000
      6        1           0.000000630    0.000004932    0.000000000
      7        1          -0.000000750   -0.000004222    0.000000000
 -------------------------------------------------------------------
 Cartesian Forces:  Max     0.000078530 RMS     0.000028993
 -----------------------------------------------------------------------------------------------
                       Internal Coordinate Forces (Hartree/Bohr or radian)
  Cent   Atom   N1       Length/X         N2         Alpha/Y        N3         Beta/Z          J
 -----------------------------------------------------------------------------------------------
         X 
         X        1   0.000000(     1)
      1  C        1  -0.000021(     2)      2   0.000000(     9)
      2  N        1   0.000035(     3)      2   0.000000(    10)      3  -0.000046(    16)     0
      3  N        1   0.000027(     4)      2   0.000000(    11)      3   0.000112(    17)     0
      4  N        1  -0.000010(     5)      2   0.000000(    12)      3  -0.000177(    18)     0
      5  N        1   0.000053(     6)      2   0.000000(    13)      3   0.000099(    19)     0
      6  H        3   0.000001(     7)      4   0.000010(    14)      5   0.000000(    20)     0
      7  H        4   0.000004(     8)      5  -0.000004(    15)      6   0.000000(    21)     0
 -----------------------------------------------------------------------------------------------
 Internal  Forces:  Max     0.000177181 RMS     0.000054025
 Force constants in Cartesian coordinates: 
                1             2             3             4             5 
      1  0.894880D+00
      2  0.663882D-02  0.564399D+00
      3  0.000000D+00  0.000000D+00  0.129132D+00
      4 -0.162116D+00 -0.718950D-01  0.000000D+00  0.510342D+00
      5 -0.103320D+00 -0.253411D+00  0.000000D+00 -0.881788D-01  0.946304D+00
      6  0.000000D+00  0.000000D+00 -0.584332D-01  0.000000D+00  0.000000D+00
      7 -0.915131D-01 -0.864943D-01  0.000000D+00 -0.195868D+00 -0.288922D-01
      8  0.601517D-02 -0.181347D-01  0.000000D+00 -0.433575D-03 -0.962179D-01
      9  0.000000D+00  0.000000D+00  0.199628D-01  0.000000D+00  0.000000D+00
     10 -0.112280D+00  0.721409D-01  0.000000D+00 -0.685817D-01  0.355049D-01
     11 -0.234105D-01  0.204947D-01  0.000000D+00  0.107579D+00 -0.982952D-01
     12  0.000000D+00  0.000000D+00  0.181564D-01  0.000000D+00  0.000000D+00
     13 -0.202047D+00  0.122135D+00  0.000000D+00  0.204159D-01  0.752647D-01
     14  0.126115D+00 -0.256961D+00  0.000000D+00 -0.292983D-01 -0.100402D+00
     15  0.000000D+00  0.000000D+00 -0.738241D-01  0.000000D+00  0.000000D+00
     16 -0.343272D+00 -0.303290D-01  0.000000D+00 -0.327616D-02  0.339113D-02
     17 -0.256161D-01 -0.517727D-01  0.000000D+00 -0.300057D-01  0.317081D-02
     18  0.000000D+00  0.000000D+00 -0.265141D-01  0.000000D+00  0.000000D+00
     19  0.163477D-01 -0.121962D-01  0.000000D+00 -0.100916D+00  0.106230D+00
     20  0.135777D-01 -0.461440D-02  0.000000D+00  0.112232D+00 -0.401149D+00
     21  0.000000D+00  0.000000D+00 -0.847995D-02  0.000000D+00  0.000000D+00
                6             7             8             9            10 
      6  0.898715D-01
      7  0.000000D+00  0.417865D+00
      8  0.000000D+00  0.819573D-01  0.512110D+00
      9 -0.646633D-01  0.000000D+00  0.000000D+00  0.108003D+00
     10  0.000000D+00 -0.100824D+00 -0.147410D-01  0.000000D+00  0.453045D+00
     11  0.000000D+00  0.435170D-01 -0.301160D+00  0.000000D+00 -0.960545D-01
     12  0.244027D-01  0.000000D+00  0.000000D+00 -0.912903D-01  0.000000D+00
     13  0.000000D+00 -0.335264D-01 -0.107579D+00  0.000000D+00 -0.158344D+00
     14  0.000000D+00 -0.886523D-02 -0.917584D-01  0.000000D+00  0.146058D-02
     15  0.199550D-01  0.000000D+00  0.000000D+00  0.335260D-01  0.000000D+00
     16  0.000000D+00  0.163210D-03  0.255324D-02  0.000000D+00 -0.141210D-02
     17  0.000000D+00 -0.148012D-02 -0.674106D-02  0.000000D+00  0.616849D-02
     18 -0.280942D-02  0.000000D+00  0.000000D+00  0.570176D-02  0.000000D+00
     19  0.000000D+00  0.370344D-02  0.322281D-01  0.000000D+00 -0.116037D-01
     20  0.000000D+00  0.257573D-03  0.190154D-02  0.000000D+00 -0.447934D-02
     21 -0.832323D-02  0.000000D+00  0.000000D+00 -0.112402D-01  0.000000D+00
               11            12            13            14            15 
     11  0.474664D+00
     12  0.000000D+00  0.117507D+00
     13 -0.374752D-01  0.000000D+00  0.387767D+00
     14 -0.935292D-01  0.000000D+00 -0.761500D-01  0.536945D+00
     15  0.000000D+00 -0.850171D-01  0.000000D+00  0.000000D+00  0.103398D+00
     16 -0.375902D-03  0.000000D+00 -0.107010D-01 -0.324034D-02  0.000000D+00
     17 -0.324815D-02  0.000000D+00  0.223450D-01  0.944612D-02  0.000000D+00
     18  0.000000D+00  0.850952D-02  0.000000D+00  0.000000D+00 -0.510688D-02
     19  0.621962D-02  0.000000D+00 -0.356468D-02 -0.100212D-01  0.000000D+00
     20  0.107377D-02  0.000000D+00  0.145997D-02 -0.374042D-02  0.000000D+00
     21  0.000000D+00  0.773184D-02  0.000000D+00  0.000000D+00  0.706868D-02
               16            17            18            19            20 
     16  0.358972D+00
     17  0.284837D-01  0.493633D-01
     18  0.000000D+00  0.000000D+00  0.210125D-01
     19 -0.473571D-03  0.104719D-03  0.000000D+00  0.965071D-01
     20 -0.482860D-03 -0.218408D-03  0.000000D+00 -0.122565D+00  0.406747D+00
     21  0.000000D+00  0.000000D+00 -0.793416D-03  0.000000D+00  0.000000D+00
               21 
     21  0.140362D-01
 Force constants in internal coordinates: 
                1             2             3             4             5 
      1  0.000000D+00
      2  0.000000D+00  0.587883D+00
      3  0.000000D+00  0.201899D-01  0.548762D+00
      4  0.000000D+00  0.695232D-01 -0.448239D-01  0.533047D+00
      5  0.000000D+00  0.104469D+00  0.760970D-01 -0.160720D-01  0.514852D+00
      6  0.000000D+00  0.873443D-01  0.950635D-01  0.728849D-01 -0.150465D-01
      7  0.000000D+00  0.149160D-01 -0.353368D-02 -0.170201D-02  0.610682D-03
      8  0.000000D+00 -0.729237D-02  0.128555D-01 -0.684116D-02 -0.514013D-04
      9  0.000000D+00  0.000000D+00  0.000000D+00  0.000000D+00  0.000000D+00
     10  0.000000D+00  0.000000D+00  0.000000D+00  0.000000D+00  0.000000D+00
     11  0.000000D+00  0.000000D+00  0.000000D+00  0.000000D+00  0.000000D+00
     12  0.000000D+00  0.000000D+00  0.000000D+00  0.000000D+00  0.000000D+00
     13  0.000000D+00  0.000000D+00  0.000000D+00  0.000000D+00  0.000000D+00
     14  0.000000D+00 -0.637044D-01  0.331743D-01  0.119067D-01 -0.142984D-01
     15  0.000000D+00  0.369712D-01 -0.479028D-01  0.169910D-01  0.264855D-01
     16  0.000000D+00  0.366223D+00  0.119909D+00 -0.320172D+00 -0.214468D+00
     17  0.000000D+00  0.158799D+00  0.217541D+00 -0.119694D+00 -0.365474D+00
     18  0.000000D+00 -0.131134D+00  0.219237D+00  0.420168D+00  0.182407D+00
     19  0.000000D+00 -0.454103D+00 -0.124727D+00  0.163819D+00  0.263790D+00
     20  0.000000D+00  0.000000D+00  0.000000D+00  0.000000D+00  0.000000D+00
     21  0.000000D+00  0.000000D+00  0.000000D+00  0.000000D+00  0.000000D+00
                6             7             8             9            10 
      6  0.516289D+00
      7 -0.345855D-02  0.361564D+00
      8 -0.776157D-04  0.319861D-03  0.449325D+00
      9  0.000000D+00  0.000000D+00  0.000000D+00  0.341680D+00
     10  0.000000D+00  0.000000D+00  0.000000D+00 -0.319583D+00  0.482154D+00
     11  0.000000D+00  0.000000D+00  0.000000D+00  0.109610D+00 -0.445421D+00
     12  0.000000D+00  0.000000D+00  0.000000D+00  0.148117D+00  0.162828D+00
     13  0.000000D+00  0.000000D+00  0.000000D+00 -0.284917D+00  0.112926D+00
     14  0.255284D-01  0.286591D-02  0.438634D-03  0.000000D+00  0.000000D+00
     15 -0.210686D-01 -0.115556D-02 -0.671265D-03  0.000000D+00  0.000000D+00
     16  0.132433D+00  0.107171D-01 -0.118348D-01  0.000000D+00  0.000000D+00
     17 -0.163406D+00  0.435979D-02  0.154722D-01  0.000000D+00  0.000000D+00
     18 -0.217329D+00 -0.201035D-02  0.246552D-02  0.000000D+00  0.000000D+00
     19 -0.173050D+00 -0.157494D-01 -0.481885D-02  0.000000D+00  0.000000D+00
     20  0.000000D+00  0.000000D+00  0.000000D+00 -0.178784D-02  0.226704D-01
     21  0.000000D+00  0.000000D+00  0.000000D+00 -0.296372D-01  0.309272D-01
               11            12            13            14            15 
     11  0.677286D+00
     12 -0.516798D+00  0.559906D+00
     13  0.196063D+00 -0.375903D+00  0.366159D+00
     14  0.000000D+00  0.000000D+00  0.000000D+00  0.196760D+00
     15  0.000000D+00  0.000000D+00  0.000000D+00  0.312550D-03  0.199072D+00
     16  0.000000D+00  0.000000D+00  0.000000D+00  0.606890D-02 -0.320765D-01
     17  0.000000D+00  0.000000D+00  0.000000D+00 -0.219905D-01 -0.171969D-01
     18  0.000000D+00  0.000000D+00  0.000000D+00 -0.442874D-02  0.771464D-02
     19  0.000000D+00  0.000000D+00  0.000000D+00  0.842507D-01 -0.563963D-02
     20 -0.399360D-01  0.339068D-01 -0.161849D-01  0.000000D+00  0.000000D+00
     21 -0.153112D-01 -0.777724D-02  0.220502D-01  0.000000D+00  0.000000D+00
               16            17            18            19            20 
     16  0.212961D+01
     17 -0.794711D+00  0.250258D+01
     18 -0.288094D+00 -0.125735D+01  0.203552D+01
     19 -0.244113D+00 -0.234445D+00 -0.317232D+00  0.144603D+01
     20  0.000000D+00  0.000000D+00  0.000000D+00  0.000000D+00  0.596110D-01
     21  0.000000D+00  0.000000D+00  0.000000D+00  0.000000D+00 -0.221560D-02
               21 
     21  0.385870D-01
 Leave Link  716 at Mon Nov 25 17:30:15 2013, MaxMem=   436000000 cpu:         0.3
 (Enter /usr/local/gaussian/g09.d01.em64t.legacy.linda/g09/l103.exe)

 GradGradGradGradGradGradGradGradGradGradGradGradGradGradGradGradGradGrad
 Berny optimization.
 Search for a local minimum.
 Step number   1 out of a maximum of    2
 All quantities printed in internal units (Hartrees-Bohrs-Radians)
 Second derivative matrix not updated -- analytic derivatives used.
 The second derivative matrix:
                          rn1       rn2       rn3       rn4       rch
           rn1          0.54876
           rn2         -0.04482   0.53305
           rn3          0.07610  -0.01607   0.51485
           rn4          0.09506   0.07288  -0.01505   0.51629
           rch         -0.00353  -0.00170   0.00061  -0.00346   0.36156
           rnh          0.01286  -0.00684  -0.00005  -0.00008   0.00032
           an1          0.11991  -0.32017  -0.21447   0.13243   0.01072
           an2          0.21754  -0.11969  -0.36547  -0.16341   0.00436
           an3          0.21924   0.42017   0.18241  -0.21733  -0.00201
           an4         -0.12473   0.16382   0.26379  -0.17305  -0.01575
           ach          0.03317   0.01191  -0.01430   0.02553   0.00287
           anh         -0.04790   0.01699   0.02649  -0.02107  -0.00116
                          rnh       an1       an2       an3       an4
           rnh          0.44932
           an1         -0.01183   2.12961
           an2          0.01547  -0.79471   2.50258
           an3          0.00247  -0.28809  -1.25735   2.03552
           an4         -0.00482  -0.24411  -0.23445  -0.31723   1.44603
           ach          0.00044   0.00607  -0.02199  -0.00443   0.08425
           anh         -0.00067  -0.03208  -0.01720   0.00771  -0.00564
                          ach       anh
           ach          0.19676
           anh          0.00031   0.19907
 ITU=  0
     Eigenvalues ---    0.00005   0.14766   0.19529   0.25216   0.36167
     Eigenvalues ---    0.44850   0.57846   0.63442   0.75527   1.77933
     Eigenvalues ---    2.54632   3.73428
 Quadratic step=4.957D-01 exceeds max=3.000D-01 adjusted using Lamda=-3.236D-05.
 Angle between NR and scaled steps=   0.01 degrees.
 Angle between quadratic step and forces=  84.25 degrees.
 Linear search not attempted -- first point.
 Variable       Old X    -DE/DX   Delta X   Delta X   Delta X     New X
                                 (Linear)    (Quad)   (Total)
   rn1        2.30166   0.00003   0.00000   0.13722   0.13722   2.43888
   rn2        2.56462   0.00003   0.00000   0.09559   0.09559   2.66021
   rn3        2.22045  -0.00001   0.00000  -0.04663  -0.04663   2.17382
   rn4        1.88156   0.00005   0.00000  -0.14125  -0.14125   1.74031
   rch        2.05106   0.00000   0.00000   0.00004   0.00004   2.05110
   rnh        1.92125   0.00000   0.00000   0.00001   0.00001   1.92126
   an1        1.29888  -0.00005   0.00000  -0.05877  -0.05877   1.24011
   an2        2.40619   0.00011   0.00000  -0.11657  -0.11657   2.28962
   an3        3.47551  -0.00018   0.00000  -0.13611  -0.13611   3.33940
   an4        4.83466   0.00010   0.00000  -0.06600  -0.06600   4.76866
   ach        2.17805   0.00001   0.00000   0.00005   0.00005   2.17811
   anh        2.10057   0.00000   0.00000  -0.00004  -0.00004   2.10053
         Item               Value     Threshold  Converged?
 Maximum Force            0.000177     0.000450     YES
 RMS     Force            0.000071     0.000300     YES
 Maximum Displacement     0.141246     0.001800     NO 
 RMS     Displacement     0.086609     0.001200     NO 
 Predicted change in Energy=-5.162128D-06
 GradGradGradGradGradGradGradGradGradGradGradGradGradGradGradGradGradGrad

 Leave Link  103 at Mon Nov 25 17:30:15 2013, MaxMem=   436000000 cpu:         0.1
 (Enter /usr/local/gaussian/g09.d01.em64t.legacy.linda/g09/l9999.exe)
 1\1\GINC-N238\Freq\RPBEPBE\6-311G(d,p)\C1H2N4\RDJ3\25-Nov-2013\1\\#P G
 eom=AllCheck Guess=TCheck SCRF=Check GenChk RPBEPBE/6-311G(d,p) Freq\\
 1H-tetrazole CH2N4 casno=288948 state=1 config=1 method=61 basis=21\\0
 ,1\X\X,1,1.\C,1,1.,2,90.\N,1,rn1,2,90.,3,an1,0\N,1,rn2,2,90.,3,an2,0\N
 ,1,rn3,2,90.,3,an3,0\N,1,rn4,2,90.,3,an4,0\H,3,rch,4,ach,5,180.,0\H,4,
 rnh,5,anh,6,180.,0\\rn1=1.21798526\rn2=1.35713899\rn3=1.17501065\rn4=0
 .99567919\rch=1.08537444\rnh=1.01668091\an1=74.42031122\an2=137.864335
 06\an3=199.13194663\an4=277.00563199\ach=124.79333473\anh=120.35371826
 \\Version=EM64L-G09RevD.01\State=1-A'\HF=-258.0427572\RMSD=3.138e-09\R
 MSF=2.899e-05\ZeroPoint=0.0453489\Thermal=0.0488755\Dipole=1.5832704,-
 1.3295733,0.\DipoleDeriv=0.1531134,0.0637246,0.,-0.0620288,0.4204545,0
 .,0.,0.,0.0584902,-0.1713,0.275803,0.,0.199108,-0.3160515,0.,0.,0.,-0.
 1233413,0.0875886,-0.3797203,0.,-0.3373545,-0.1329733,0.,0.,0.,-0.0958
 768,0.0337551,0.1526536,0.,0.2188656,-0.0285763,0.,0.,0.,-0.1500598,-0
 .335166,-0.1079913,0.,-0.0268046,-0.2989045,0.,0.,0.,-0.193183,0.04600
 51,0.0121369,0.,0.0085447,0.1175181,0.,0.,0.,0.174183,0.1860038,-0.016
 6065,0.,-0.0003304,0.238533,0.,0.,0.,0.3297878\Polar=41.3178496,-0.613
 6104,39.4223359,0.,0.,17.9664108\PG=CS [SG(C1H2N4)]\NImag=0\\0.8948802
 4,0.00663882,0.56439920,0.,0.,0.12913209,-0.16211596,-0.07189504,0.,0.
 51034210,-0.10331969,-0.25341072,0.,-0.08817885,0.94630426,0.,0.,-0.05
 843318,0.,0.,0.08987146,-0.09151313,-0.08649433,0.,-0.19586796,-0.0288
 9224,0.,0.41786467,0.00601517,-0.01813474,0.,-0.00043357,-0.09621794,0
 .,0.08195731,0.51211035,0.,0.,0.01996280,0.,0.,-0.06466327,0.,0.,0.108
 00325,-0.11227961,0.07214088,0.,-0.06858169,0.03550486,0.,-0.10082381,
 -0.01474102,0.,0.45304466,-0.02341048,0.02049474,0.,0.10757938,-0.0982
 9516,0.,0.04351704,-0.30115970,0.,-0.09605445,0.47466373,0.,0.,0.01815
 645,0.,0.,0.02440269,0.,0.,-0.09129035,0.,0.,0.11750697,-0.20204688,0.
 12213490,0.,0.02041591,0.07526469,0.,-0.03352642,-0.10757926,0.,-0.158
 34371,-0.03747521,0.,0.38776678,0.12611458,-0.25696142,0.,-0.02929832,
 -0.10040176,0.,-0.00886523,-0.09175844,0.,0.00146058,-0.09352924,0.,-0
 .07615004,0.53694518,0.,0.,-0.07382409,0.,0.,0.01995495,0.,0.,0.033525
 97,0.,0.,-0.08501711,0.,0.,0.10339848,-0.34327238,-0.03032900,0.,-0.00
 327616,0.00339113,0.,0.00016321,0.00255324,0.,-0.00141210,-0.00037590,
 0.,-0.01070100,-0.00324034,0.,0.35897199,-0.02561613,-0.05177266,0.,-0
 .03000566,0.00317081,0.,-0.00148012,-0.00674106,0.,0.00616849,-0.00324
 815,0.,0.02234496,0.00944612,0.,0.02848373,0.04936334,0.,0.,-0.0265141
 2,0.,0.,-0.00280942,0.,0.,0.00570176,0.,0.,0.00850952,0.,0.,-0.0051068
 8,0.,0.,0.02101255,0.01634771,-0.01219622,0.,-0.10091625,0.10623010,0.
 ,0.00370344,0.03222813,0.,-0.01160375,0.00621962,0.,-0.00356468,-0.010
 02122,0.,-0.00047357,0.00010472,0.,0.09650709,0.01357773,-0.00461440,0
 .,0.11223206,-0.40114949,0.,0.00025757,0.00190154,0.,-0.00447934,0.001
 07377,0.,0.00145997,-0.00374042,0.,-0.00048286,-0.00021841,0.,-0.12256
 513,0.40674742,0.,0.,-0.00847995,0.,0.,-0.00832323,0.,0.,-0.01124016,0
 .,0.,0.00773184,0.,0.,0.00706868,0.,0.,-0.00079342,0.,0.,0.01403624\\0
 .00001779,-0.00003877,0.,-0.00002605,0.00002035,0.,0.00004969,-0.00001
 289,0.,0.00001709,0.00007853,0.,-0.00005865,-0.00004652,0.,-0.00000063
 ,-0.00000493,0.,0.00000075,0.00000422,0.\\\@


 A SCIENTIST IS SOMEONE WHOSE CURIOSITY SURVIVES
 EDUCATION'S ASSAULTS ON IT.
                          - SIR HERMANN BONDI
 Job cpu time:       0 days  0 hours  1 minutes 33.6 seconds.
 File lengths (MBytes):  RWF=     13 Int=      0 D2E=      0 Chk=      2 Scr=      1
 Normal termination of Gaussian 09 at Mon Nov 25 17:30:15 2013.
