 Entering Gaussian System, Link 0=g09
 Initial command:
 /usr/local/gaussian/g09.d01.em64t.legacy.linda/g09/l1.exe "/tmp/rdj3/g09-31683/Gau-12873.inp" -scrdir="/tmp/rdj3/g09-31683/"
 Entering Link 1 = /usr/local/gaussian/g09.d01.em64t.legacy.linda/g09/l1.exe PID=     12874.
  
 Copyright (c) 1988,1990,1992,1993,1995,1998,2003,2009,2013,
            Gaussian, Inc.  All Rights Reserved.
  
 This is part of the Gaussian(R) 09 program.  It is based on
 the Gaussian(R) 03 system (copyright 2003, Gaussian, Inc.),
 the Gaussian(R) 98 system (copyright 1998, Gaussian, Inc.),
 the Gaussian(R) 94 system (copyright 1995, Gaussian, Inc.),
 the Gaussian 92(TM) system (copyright 1992, Gaussian, Inc.),
 the Gaussian 90(TM) system (copyright 1990, Gaussian, Inc.),
 the Gaussian 88(TM) system (copyright 1988, Gaussian, Inc.),
 the Gaussian 86(TM) system (copyright 1986, Carnegie Mellon
 University), and the Gaussian 82(TM) system (copyright 1983,
 Carnegie Mellon University). Gaussian is a federally registered
 trademark of Gaussian, Inc.
  
 This software contains proprietary and confidential information,
 including trade secrets, belonging to Gaussian, Inc.
  
 This software is provided under written license and may be
 used, copied, transmitted, or stored only in accord with that
 written license.
  
 The following legend is applicable only to US Government
 contracts under FAR:
  
                    RESTRICTED RIGHTS LEGEND
  
 Use, reproduction and disclosure by the US Government is
 subject to restrictions as set forth in subparagraphs (a)
 and (c) of the Commercial Computer Software - Restricted
 Rights clause in FAR 52.227-19.
  
 Gaussian, Inc.
 340 Quinnipiac St., Bldg. 40, Wallingford CT 06492
  
  
 ---------------------------------------------------------------
 Warning -- This program may not be used in any manner that
 competes with the business of Gaussian, Inc. or will provide
 assistance to any competitor of Gaussian, Inc.  The licensee
 of this program is prohibited from giving any competitor of
 Gaussian, Inc. access to this program.  By using this program,
 the user acknowledges that Gaussian, Inc. is engaged in the
 business of creating and licensing software in the field of
 computational chemistry and represents and warrants to the
 licensee that it is not a competitor of Gaussian, Inc. and that
 it will not use this program in any manner prohibited above.
 ---------------------------------------------------------------
  

 Cite this work as:
 Gaussian 09, Revision D.01,
 M. J. Frisch, G. W. Trucks, H. B. Schlegel, G. E. Scuseria, 
 M. A. Robb, J. R. Cheeseman, G. Scalmani, V. Barone, B. Mennucci, 
 G. A. Petersson, H. Nakatsuji, M. Caricato, X. Li, H. P. Hratchian, 
 A. F. Izmaylov, J. Bloino, G. Zheng, J. L. Sonnenberg, M. Hada, 
 M. Ehara, K. Toyota, R. Fukuda, J. Hasegawa, M. Ishida, T. Nakajima, 
 Y. Honda, O. Kitao, H. Nakai, T. Vreven, J. A. Montgomery, Jr., 
 J. E. Peralta, F. Ogliaro, M. Bearpark, J. J. Heyd, E. Brothers, 
 K. N. Kudin, V. N. Staroverov, T. Keith, R. Kobayashi, J. Normand, 
 K. Raghavachari, A. Rendell, J. C. Burant, S. S. Iyengar, J. Tomasi, 
 M. Cossi, N. Rega, J. M. Millam, M. Klene, J. E. Knox, J. B. Cross, 
 V. Bakken, C. Adamo, J. Jaramillo, R. Gomperts, R. E. Stratmann, 
 O. Yazyev, A. J. Austin, R. Cammi, C. Pomelli, J. W. Ochterski, 
 R. L. Martin, K. Morokuma, V. G. Zakrzewski, G. A. Voth, 
 P. Salvador, J. J. Dannenberg, S. Dapprich, A. D. Daniels, 
 O. Farkas, J. B. Foresman, J. V. Ortiz, J. Cioslowski, 
 and D. J. Fox, Gaussian, Inc., Wallingford CT, 2013.
 
 ******************************************
 Gaussian 09:  EM64L-G09RevD.01 24-Apr-2013
                25-Nov-2013 
 ******************************************
 %Nproc=8
 Will use up to    8 processors via shared memory.
 %mem=436000000
 ------------------------------
 #MP3/cc-pVTZ opt=z-matrix freq
 ------------------------------
 1/10=7,18=40,38=1/1,3;
 2/12=2,17=6,18=5,29=3,40=1/2;
 3/5=16,6=1,11=9,16=1,25=1,30=1,71=1/1,2,3;
 4//1;
 5/5=2,38=5/2;
 8/6=4,9=120000,10=1/1,4;
 9/5=2,15=1/13;
 11/28=-10,29=200,42=3/11;
 10/5=8/2;
 6/7=2,8=2,9=2,10=2/1;
 7/12=3,29=1/1,2,3,16;
 1/10=7,18=40/3(2);
 2/29=3/2;
 99//99;
 2/29=3/2;
 3/5=16,6=1,11=9,16=1,25=1,30=1,71=1/1,2,3;
 4/5=5,16=3,69=1/1;
 5/5=2,38=5/2;
 8/6=4,9=120000,10=1/1,4;
 9/5=2,15=1/13;
 11/28=-10,29=200,42=3/11;
 10/5=8/2;
 7/12=3/1,2,3,16;
 1/18=40/3(-9);
 2/29=3/2;
 6/7=2,8=2,9=2,10=2/1;
 99//99;
 ------------------------------------------------------------------
 1H-tetrazole CH2N4 casno=288948 state=1 config=1 method=62 basis=6
 ------------------------------------------------------------------
 Symbolic Z-matrix:
 Charge =  0 Multiplicity = 1
 X
 X                    1     1. 
 C                    1     1.       2     90. 
 N                    1    rn1      2     90.      3    an1      0
 N                    1    rn2      2     90.      3    an2      0
 N                    1    rn3      2     90.      3    an3      0
 N                    1    rn4      2     90.      3    an4      0
 H                    3    rch      4    ach      5     180.     0
 H                    4    rnh      5    anh      6     180.     0
       Variables:
  rn1                   1.2426                   
  rn2                   1.333                    
  rn3                   1.1146                   
  rn4                   0.9264                   
  rch                   1.0678                   
  rnh                   0.9941                   
  an1                  71.8427                   
  an2                 133.7028                   
  an3                 194.4597                   
  an4                 276.0768                   
  ach                 125.0248                   
  anh                 120.7626                   
 

 GradGradGradGradGradGradGradGradGradGradGradGradGradGradGradGradGradGrad
 Berny optimization.
 Initialization pass.
                       ----------------------------
                       !    Initial Parameters    !
                       ! (Angstroms and Degrees)  !
 ----------------------                            ----------------------
 !      Name          Value   Derivative information (Atomic Units)     !
 ------------------------------------------------------------------------
 !       rn1         1.2426   estimate D2E/DX2                          !
 !       rn2         1.333    estimate D2E/DX2                          !
 !       rn3         1.1146   estimate D2E/DX2                          !
 !       rn4         0.9264   estimate D2E/DX2                          !
 !       rch         1.0678   estimate D2E/DX2                          !
 !       rnh         0.9941   estimate D2E/DX2                          !
 !       an1        71.8427   estimate D2E/DX2                          !
 !       an2       133.7028   estimate D2E/DX2                          !
 !       an3       194.4597   estimate D2E/DX2                          !
 !       an4       276.0768   estimate D2E/DX2                          !
 !       ach       125.0248   estimate D2E/DX2                          !
 !       anh       120.7626   estimate D2E/DX2                          !
 ------------------------------------------------------------------------
 Trust Radius=3.00D-01 FncErr=1.00D-07 GrdErr=1.00D-07
 Number of steps in this run=     22 maximum allowed number of steps=    100.
 GradGradGradGradGradGradGradGradGradGradGradGradGradGradGradGradGradGrad

 ---------------------------------------------------------------------------------------------------
                            Z-MATRIX (ANGSTROMS AND DEGREES)
   CD    Cent   Atom    N1       Length/X        N2       Alpha/Y        N3        Beta/Z          J
 ---------------------------------------------------------------------------------------------------
      1         X 
      2         X        1   1.000000(     1)
      3      1  C        1   1.000000(     2)      2   90.000(     9)
      4      2  N        1   1.242600(     3)      2   90.000(    10)      3   71.843(    16)      0
      5      3  N        1   1.333000(     4)      2   90.000(    11)      3  133.703(    17)      0
      6      4  N        1   1.114600(     5)      2   90.000(    12)      3  194.460(    18)      0
      7      5  N        1   0.926400(     6)      2   90.000(    13)      3  276.077(    19)      0
      8      6  H        3   1.067800(     7)      4  125.025(    14)      5  180.000(    20)      0
      9      7  H        4   0.994100(     8)      5  120.763(    15)      6  180.000(    21)      0
 ---------------------------------------------------------------------------------------------------
                         Z-Matrix orientation:                         
 ---------------------------------------------------------------------
 Center     Atomic      Atomic             Coordinates (Angstroms)
 Number     Number       Type             X           Y           Z
 ---------------------------------------------------------------------
      1         -1           0        0.000000    0.000000    0.000000
      2         -1           0        0.000000    0.000000    1.000000
      3          6           0        1.000000    0.000000    0.000000
      4          7           0        0.387228   -1.180724    0.000000
      5          7           0       -0.920993   -0.963670    0.000000
      6          7           0       -1.079293    0.278314    0.000000
      7          7           0        0.098070    0.921194    0.000000
      8          1           0        2.058429    0.141157    0.000000
      9          1           0        0.749017   -2.106652    0.000000
 ---------------------------------------------------------------------
                    Distance matrix (angstroms):
                    1          2          3          4          5
     1  X    0.000000
     2  X    1.000000   0.000000
     3  C    1.000000   1.414214   0.000000
     4  N    1.242600   1.595009   1.330263   0.000000
     5  N    1.333000   1.666400   2.149157   1.326105   0.000000
     6  N    1.114600   1.497442   2.097837   2.068690   1.252032
     7  N    0.926400   1.363164   1.289216   2.121715   2.142710
     8  H    2.063263   2.292827   1.067800   2.130794   3.177672
     9  H    2.235847   2.449288   2.121551   0.994100   2.023695
                    6          7          8          9
     6  N    0.000000
     7  N    1.341447   0.000000
     8  H    3.140719   2.109850   0.000000
     9  H    3.005127   3.097029   2.601385   0.000000
 Stoichiometry    CH2N4
 Framework group  CS[SG(CH2N4)]
 Deg. of freedom    11
 Full point group                 CS      NOp   2
 Largest Abelian subgroup         CS      NOp   2
 Largest concise Abelian subgroup C1      NOp   1
                         Standard orientation:                         
 ---------------------------------------------------------------------
 Center     Atomic      Atomic             Coordinates (Angstroms)
 Number     Number       Type             X           Y           Z
 ---------------------------------------------------------------------
      1          6           0        1.052733    0.225621    0.000000
      2          7           0        0.000000    1.038857    0.000000
      3          7           0       -1.095416    0.291448    0.000000
      4          7           0       -0.716382   -0.901832    0.000000
      5          7           0        0.622191   -0.989579    0.000000
      6          1           0        2.072287    0.542964    0.000000
      7          1           0       -0.061439    2.031056    0.000000
 ---------------------------------------------------------------------
 Rotational constants (GHZ):     10.9201517     10.7345054      5.4132664
 Standard basis: CC-pVTZ (5D, 7F)
 There are   142 symmetry adapted cartesian basis functions of A'  symmetry.
 There are    63 symmetry adapted cartesian basis functions of A"  symmetry.
 There are   120 symmetry adapted basis functions of A'  symmetry.
 There are    58 symmetry adapted basis functions of A"  symmetry.
   178 basis functions,   294 primitive gaussians,   205 cartesian basis functions
    18 alpha electrons       18 beta electrons
       nuclear repulsion energy       169.8308489506 Hartrees.
 NAtoms=    7 NActive=    7 NUniq=    7 SFac= 1.00D+00 NAtFMM=   60 NAOKFM=F Big=F
 Integral buffers will be    131072 words long.
 Raffenetti 1 integral format.
 Two-electron integral symmetry is turned on.
 One-electron integrals computed using PRISM.
 NBasis=   178 RedAO= T EigKep=  9.93D-04  NBF=   120    58
 NBsUse=   178 1.00D-06 EigRej= -1.00D+00 NBFU=   120    58
 ExpMin= 1.03D-01 ExpMax= 1.14D+04 ExpMxC= 3.89D+02 IAcc=1 IRadAn=         1 AccDes= 0.00D+00
 Harris functional with IExCor=  205 and IRadAn=       1 diagonalized for initial guess.
 HarFok:  IExCor=  205 AccDes= 0.00D+00 IRadAn=         1 IDoV= 1 UseB2=F ITyADJ=14
 ICtDFT=  3500011 ScaDFX=  1.000000  1.000000  1.000000  1.000000
 FoFCou: FMM=F IPFlag=           0 FMFlag=      100000 FMFlg1=           0
         NFxFlg=           0 DoJE=T BraDBF=F KetDBF=T FulRan=T
         wScrn=  0.000000 ICntrl=     500 IOpCl=  0 I1Cent=   200000004 NGrid=           0
         NMat0=    1 NMatS0=      1 NMatT0=    0 NMatD0=    1 NMtDS0=    0 NMtDT0=    0
 Petite list used in FoFCou.
 Initial guess orbital symmetries:
       Occupied  (A') (A') (A') (A') (A') (A') (A') (A') (A') (A')
                 (A') (A') (A") (A') (A") (A") (A') (A')
       Virtual   (A") (A") (A') (A') (A') (A') (A') (A') (A") (A')
                 (A') (A') (A') (A') (A') (A") (A') (A") (A') (A')
                 (A") (A') (A") (A') (A") (A') (A') (A') (A") (A')
                 (A") (A') (A') (A") (A') (A') (A") (A') (A') (A')
                 (A") (A") (A') (A") (A') (A') (A') (A") (A') (A')
                 (A') (A') (A') (A") (A") (A') (A") (A') (A') (A')
                 (A") (A') (A') (A') (A') (A') (A") (A") (A') (A")
                 (A') (A") (A") (A') (A") (A') (A") (A') (A') (A')
                 (A") (A') (A') (A") (A') (A') (A") (A') (A") (A")
                 (A") (A') (A') (A") (A') (A') (A') (A") (A") (A')
                 (A') (A') (A") (A') (A") (A') (A') (A') (A') (A')
                 (A') (A") (A') (A') (A") (A') (A") (A') (A") (A")
                 (A') (A") (A') (A") (A') (A") (A") (A') (A') (A')
                 (A") (A') (A") (A") (A') (A") (A') (A') (A') (A')
                 (A") (A') (A") (A') (A') (A") (A') (A') (A") (A')
                 (A') (A') (A') (A') (A') (A') (A') (A') (A') (A')
 The electronic state of the initial guess is 1-A'.
 Keep R1 ints in memory in symmetry-blocked form, NReq=191556701.
 Requested convergence on RMS density matrix=1.00D-08 within 128 cycles.
 Requested convergence on MAX density matrix=1.00D-06.
 Requested convergence on             energy=1.00D-06.
 No special actions if energy rises.
 SCF Done:  E(RHF) =  -256.848466948     A.U. after   14 cycles
            NFock= 14  Conv=0.51D-08     -V/T= 2.0006
 ExpMin= 1.03D-01 ExpMax= 1.14D+04 ExpMxC= 3.89D+02 IAcc=3 IRadAn=         5 AccDes= 0.00D+00
 HarFok:  IExCor=  205 AccDes= 0.00D+00 IRadAn=         5 IDoV=-2 UseB2=F ITyADJ=14
 ICtDFT= 12500011 ScaDFX=  1.000000  1.000000  1.000000  1.000000
 Range of M.O.s used for correlation:     6   178
 NBasis=   178 NAE=    18 NBE=    18 NFC=     5 NFV=     0
 NROrb=    173 NOA=    13 NOB=    13 NVA=   160 NVB=   160

 **** Warning!!: The largest alpha MO coefficient is  0.11231376D+02

 Semi-Direct transformation.
 ModeAB=           2 MOrb=            13 LenV=     435070154
 LASXX=     16250521 LTotXX=    16250521 LenRXX=    16250521
 LTotAB=    16563741 MaxLAS=    47487635 LenRXY=    47487635
 NonZer=    48483942 LenScr=    73495040 LnRSAI=           0
 LnScr1=           0 LExtra=           0 Total=    137233196
 MaxDsk=          -1 SrtSym=           F ITran=            4
 JobTyp=0 Pass  1:  I=   1 to  13.
 (rs|ai) integrals will be sorted in core.
 Spin components of T(2) and E(2):
     alpha-alpha T2 =       0.4025667509D-01 E2=     -0.1271546435D+00
     alpha-beta  T2 =       0.2046390060D+00 E2=     -0.6973423100D+00
     beta-beta   T2 =       0.4025667509D-01 E2=     -0.1271546435D+00
 ANorm=    0.1133645604D+01
 E2 =    -0.9516515969D+00 EUMP2 =    -0.25780011854461D+03
 Keep R2 and R3 ints in memory in symmetry-blocked form, NReq=193440570.
 DD1Dir will call FoFMem   1 times, MxPair=       182
 NAB=    91 NAA=     0 NBB=     0.
 E3=        0.69985253D-02        EUMP3=      -0.25779312002D+03
 Largest amplitude= 5.91D-02
 Discarding MO integrals.
          IDoAtm=1111111
          Differentiating once with respect to electric field.
                with respect to dipole field.
          Differentiating once with respect to nuclear coordinates.
 Keep R1 ints in memory in symmetry-blocked form, NReq=191410634.
          There are     1 degrees of freedom in the 1st order CPHF.  IDoFFX=0 NUNeed=     1.
 LinEq1:  Iter=  0 NonCon=     1 RMS=2.72D-03 Max=3.91D-02 NDo=     1
 AX will form     1 AO Fock derivatives at one time.
 LinEq1:  Iter=  1 NonCon=     1 RMS=8.69D-04 Max=1.36D-02 NDo=     1
 LinEq1:  Iter=  2 NonCon=     1 RMS=2.70D-04 Max=6.74D-03 NDo=     1
 LinEq1:  Iter=  3 NonCon=     1 RMS=8.68D-05 Max=1.39D-03 NDo=     1
 LinEq1:  Iter=  4 NonCon=     1 RMS=2.69D-05 Max=6.39D-04 NDo=     1
 LinEq1:  Iter=  5 NonCon=     1 RMS=1.05D-05 Max=2.20D-04 NDo=     1
 LinEq1:  Iter=  6 NonCon=     1 RMS=3.00D-06 Max=6.58D-05 NDo=     1
 LinEq1:  Iter=  7 NonCon=     1 RMS=1.75D-06 Max=4.03D-05 NDo=     1
 LinEq1:  Iter=  8 NonCon=     1 RMS=5.41D-07 Max=9.49D-06 NDo=     1
 LinEq1:  Iter=  9 NonCon=     1 RMS=2.21D-07 Max=3.40D-06 NDo=     1
 LinEq1:  Iter= 10 NonCon=     1 RMS=7.07D-08 Max=9.18D-07 NDo=     1
 LinEq1:  Iter= 11 NonCon=     1 RMS=2.06D-08 Max=2.57D-07 NDo=     1
 LinEq1:  Iter= 12 NonCon=     1 RMS=8.31D-09 Max=1.16D-07 NDo=     1
 LinEq1:  Iter= 13 NonCon=     1 RMS=2.49D-09 Max=3.41D-08 NDo=     1
 LinEq1:  Iter= 14 NonCon=     1 RMS=4.10D-10 Max=7.53D-09 NDo=     1
 LinEq1:  Iter= 15 NonCon=     1 RMS=7.89D-11 Max=1.62D-09 NDo=     1
 LinEq1:  Iter= 16 NonCon=     0 RMS=1.28D-11 Max=1.85D-10 NDo=     1
 Linear equations converged to 1.000D-10 1.000D-09 after    16 iterations.
 End of Minotr F.D. properties file   721 does not exist.
 End of Minotr F.D. properties file   722 does not exist.
 End of Minotr F.D. properties file   788 does not exist.

 **********************************************************************

            Population analysis using the SCF density.

 **********************************************************************

 Orbital symmetries:
       Occupied  (A') (A') (A') (A') (A') (A') (A') (A') (A') (A')
                 (A') (A") (A') (A') (A') (A') (A") (A")
       Virtual   (A') (A") (A') (A") (A') (A') (A') (A') (A") (A')
                 (A') (A') (A') (A') (A') (A") (A') (A") (A') (A')
                 (A") (A") (A') (A") (A') (A') (A') (A") (A') (A')
                 (A") (A') (A') (A") (A') (A') (A') (A") (A') (A')
                 (A") (A") (A') (A') (A") (A') (A') (A") (A') (A')
                 (A') (A') (A") (A') (A") (A') (A") (A') (A') (A')
                 (A") (A') (A') (A') (A') (A') (A") (A") (A') (A")
                 (A") (A') (A") (A') (A') (A") (A') (A") (A') (A')
                 (A") (A') (A') (A") (A') (A") (A') (A') (A") (A")
                 (A') (A") (A') (A") (A') (A') (A") (A") (A') (A')
                 (A') (A") (A') (A") (A') (A') (A') (A') (A') (A')
                 (A") (A') (A') (A') (A") (A') (A") (A') (A") (A')
                 (A") (A') (A") (A") (A') (A") (A') (A") (A') (A")
                 (A') (A') (A") (A") (A") (A') (A') (A') (A') (A")
                 (A') (A') (A") (A') (A") (A') (A') (A') (A") (A')
                 (A') (A') (A') (A') (A') (A') (A') (A') (A') (A')
 The electronic state is 1-A'.
 Alpha  occ. eigenvalues --  -15.67588 -15.65437 -15.63632 -15.59423 -11.32864
 Alpha  occ. eigenvalues --   -1.51766  -1.26418  -1.20733  -0.91273  -0.89513
 Alpha  occ. eigenvalues --   -0.80817  -0.68993  -0.68285  -0.57314  -0.47592
 Alpha  occ. eigenvalues --   -0.46529  -0.45889  -0.42452
 Alpha virt. eigenvalues --    0.11729   0.14193   0.15908   0.18973   0.27082
 Alpha virt. eigenvalues --    0.29297   0.36188   0.42114   0.42215   0.48125
 Alpha virt. eigenvalues --    0.51760   0.56071   0.56683   0.57784   0.59481
 Alpha virt. eigenvalues --    0.60966   0.63837   0.64038   0.68537   0.72007
 Alpha virt. eigenvalues --    0.73107   0.76529   0.77630   0.80250   0.80715
 Alpha virt. eigenvalues --    0.86062   0.88311   0.94910   0.96263   0.98914
 Alpha virt. eigenvalues --    1.00572   1.01506   1.10766   1.11035   1.17561
 Alpha virt. eigenvalues --    1.18871   1.21017   1.25126   1.34709   1.44433
 Alpha virt. eigenvalues --    1.46274   1.52646   1.55410   1.60317   1.62397
 Alpha virt. eigenvalues --    1.64533   1.69020   1.75288   1.77839   1.83032
 Alpha virt. eigenvalues --    1.87166   1.89979   1.92075   1.92162   1.99826
 Alpha virt. eigenvalues --    2.02808   2.17630   2.18766   2.19966   2.27045
 Alpha virt. eigenvalues --    2.39780   2.39870   2.56224   2.70233   2.76229
 Alpha virt. eigenvalues --    2.89032   2.99404   3.04890   3.08497   3.14816
 Alpha virt. eigenvalues --    3.18076   3.19475   3.21105   3.24229   3.29967
 Alpha virt. eigenvalues --    3.31975   3.39648   3.40592   3.46465   3.50979
 Alpha virt. eigenvalues --    3.51427   3.57060   3.60544   3.65350   3.70791
 Alpha virt. eigenvalues --    3.72194   3.75431   3.80806   3.81293   3.85789
 Alpha virt. eigenvalues --    3.89924   3.91306   3.95225   3.95624   3.98453
 Alpha virt. eigenvalues --    4.07371   4.09835   4.10602   4.11142   4.21712
 Alpha virt. eigenvalues --    4.26429   4.26832   4.29887   4.31133   4.36993
 Alpha virt. eigenvalues --    4.39418   4.43695   4.51575   4.59051   4.70575
 Alpha virt. eigenvalues --    4.73593   4.74501   4.83685   4.86905   4.90096
 Alpha virt. eigenvalues --    4.90713   5.00392   5.02148   5.07594   5.09481
 Alpha virt. eigenvalues --    5.11093   5.17009   5.18408   5.21730   5.26486
 Alpha virt. eigenvalues --    5.28008   5.29177   5.29672   5.37088   5.38940
 Alpha virt. eigenvalues --    5.39464   5.46690   5.56419   5.62476   5.69253
 Alpha virt. eigenvalues --    5.70237   5.73278   5.77691   5.84574   5.92760
 Alpha virt. eigenvalues --    5.94476   5.99143   6.11913   6.18913   6.21945
 Alpha virt. eigenvalues --    6.29105   6.34280   6.38228   6.38273   6.55232
 Alpha virt. eigenvalues --    6.62516   6.75940   7.16664   7.38254   7.50245
 Alpha virt. eigenvalues --    8.51668  11.52196  12.88010  14.01827  14.68757
          Condensed to atoms (all electrons):
               1          2          3          4          5          6
     1  C    4.722471   0.487558  -0.094481  -0.105602   0.616325   0.425047
     2  N    0.487558   6.088704   0.313582  -0.110463  -0.104555  -0.028242
     3  N   -0.094481   0.313582   6.519983   0.457381  -0.099915   0.002174
     4  N   -0.105602  -0.110463   0.457381   6.468740   0.350052   0.001431
     5  N    0.616325  -0.104555  -0.099915   0.350052   6.443311  -0.018845
     6  H    0.425047  -0.028242   0.002174   0.001431  -0.018845   0.435248
     7  H   -0.028370   0.403253  -0.026001   0.004722   0.004543  -0.000856
               7
     1  C   -0.028370
     2  N    0.403253
     3  N   -0.026001
     4  N    0.004722
     5  N    0.004543
     6  H   -0.000856
     7  H    0.424066
 Mulliken charges:
               1
     1  C   -0.022947
     2  N   -0.049837
     3  N   -0.072723
     4  N   -0.066262
     5  N   -0.190915
     6  H    0.184043
     7  H    0.218642
 Sum of Mulliken charges =   0.00000
 Mulliken charges with hydrogens summed into heavy atoms:
               1
     1  C    0.161096
     2  N    0.168805
     3  N   -0.072723
     4  N   -0.066262
     5  N   -0.190915
 Electronic spatial extent (au):  <R**2>=            244.6053
 Charge=              0.0000 electrons
 Dipole moment (field-independent basis, Debye):
    X=              2.5866    Y=              4.8607    Z=              0.0000  Tot=              5.5061
 Quadrupole moment (field-independent basis, Debye-Ang):
   XX=            -28.6921   YY=            -26.5207   ZZ=            -28.4804
   XY=              1.9817   XZ=              0.0000   YZ=              0.0000
 Traceless Quadrupole moment (field-independent basis, Debye-Ang):
   XX=             -0.7944   YY=              1.3771   ZZ=             -0.5827
   XY=              1.9817   XZ=              0.0000   YZ=              0.0000
 Octapole moment (field-independent basis, Debye-Ang**2):
  XXX=             12.3641  YYY=             22.4934  ZZZ=              0.0000  XYY=             -0.7894
  XXY=              4.9703  XXZ=              0.0000  XZZ=             -0.6841  YZZ=              0.7010
  YYZ=              0.0000  XYZ=              0.0000
 Hexadecapole moment (field-independent basis, Debye-Ang**3):
 XXXX=           -138.7811 YYYY=           -117.5002 ZZZZ=            -26.0935 XXXY=              7.0308
 XXXZ=              0.0000 YYYX=             -0.0722 YYYZ=              0.0000 ZZZX=              0.0000
 ZZZY=              0.0000 XXYY=            -52.5900 XXZZ=            -29.9657 YYZZ=            -28.4240
 XXYZ=              0.0000 YYXZ=              0.0000 ZZXY=              0.0863
 N-N= 1.698308489506D+02 E-N=-9.415209767474D+02  KE= 2.566927445292D+02
 Symmetry A'   KE= 2.476747122927D+02
 Symmetry A"   KE= 9.018032236490D+00
 Calling FoFJK, ICntrl=  10002127 FMM=F ISym2X=1 I1Cent= 0 IOpClX= 0 NMat=1 NMatS=1 NMatT=0.
 ***** Axes restored to original set *****
 -------------------------------------------------------------------
 Center     Atomic                   Forces (Hartrees/Bohr)
 Number     Number              X              Y              Z
 -------------------------------------------------------------------
      1        6           0.016761613   -0.004654356    0.000000000
      2        7           0.005916136   -0.008995155    0.000000000
      3        7          -0.009227635   -0.034028768    0.000000000
      4        7          -0.019709664    0.026893195    0.000000000
      5        7           0.001117588    0.025695252    0.000000000
      6        1           0.003026879    0.000308069    0.000000000
      7        1           0.002115083   -0.005218238    0.000000000
 -------------------------------------------------------------------
 Cartesian Forces:  Max     0.034028768 RMS     0.012865244
 -----------------------------------------------------------------------------------------------
                       Internal Coordinate Forces (Hartree/Bohr or radian)
  Cent   Atom   N1       Length/X         N2         Alpha/Y        N3         Beta/Z          J
 -----------------------------------------------------------------------------------------------
         X 
         X        1   0.000000(     1)
      1  C        1   0.019856(     2)      2   0.000000(     9)
      2  N        1   0.015907(     3)      2   0.000000(    10)      3  -0.007452(    16)     0
      3  N        1   0.031020(     4)      2   0.000000(    11)      3  -0.042496(    17)     0
      4  N        1   0.025801(     5)      2   0.000000(    12)      3   0.044484(    18)     0
      5  N        1   0.025669(     6)      2   0.000000(    13)      3  -0.002816(    19)     0
      6  H        3   0.003041(     7)      4  -0.000191(    14)      5   0.000000(    20)     0
      7  H        4   0.005630(     8)      5   0.000133(    15)      6   0.000000(    21)     0
 -----------------------------------------------------------------------------------------------
 Internal  Forces:  Max     0.044484461 RMS     0.018025544

 GradGradGradGradGradGradGradGradGradGradGradGradGradGradGradGradGradGrad
 Berny optimization.
 Search for a local minimum.
 Step number   1 out of a maximum of   22
 All quantities printed in internal units (Hartrees-Bohrs-Radians)
 Second derivative matrix not updated -- first step.
 The second derivative matrix:
                          rn1       rn2       rn3       rn4       rch
           rn1          0.65186
           rn2          0.01318   0.69869
           rn3          0.03472   0.07334   0.58262
           rn4          0.03688   0.02662   0.13967   0.63921
           rch          0.00000   0.00000   0.00000   0.00000   0.37510
           rnh          0.00000   0.00000   0.00000   0.00000   0.00000
           an1          0.02012  -0.75016   0.04258  -0.08486   0.00000
           an2          0.72119  -0.31234  -0.71865   0.05436   0.00000
           an3         -0.02914   1.04797   0.05412  -0.58583   0.00000
           an4          0.05328  -0.03228   0.65851  -0.10009   0.00000
           ach          0.04546   0.00000   0.00000   0.05066   0.00000
           anh         -0.10206   0.05276   0.00000   0.00000   0.00000
                          rnh       an1       an2       an3       an4
           rnh          0.48741
           an1          0.00000   4.53257
           an2          0.00000  -2.68051   6.02300
           an3          0.00000  -0.03573  -3.19618   4.47465
           an4          0.00000  -0.12258  -0.06592  -1.16042   2.58479
           ach          0.00000  -0.10460   0.00000   0.00000   0.07318
           anh          0.00000   0.03519  -0.09059   0.00000   0.00000
                          ach       anh
           ach          0.32000
           anh          0.00000   0.32000
 ITU=  0
     Eigenvalues ---    0.00000   0.13346   0.26445   0.33044   0.37510
     Eigenvalues ---    0.40158   0.48741   0.75609   1.20990   2.99509
     Eigenvalues ---    5.09563   9.64077
 RFO step:  Lambda=-3.53986025D-03 EMin=-6.95624114D-16
 Linear search not attempted -- first point.
 Variable       Old X    -DE/DX   Delta X   Delta X   Delta X     New X
                                 (Linear)    (Quad)   (Total)
   rn1        2.34817   0.01591   0.00000   0.01811   0.01811   2.36628
   rn2        2.51900   0.03102   0.00000   0.03948   0.03948   2.55848
   rn3        2.10629   0.02580   0.00000   0.04132   0.04132   2.14760
   rn4        1.75064   0.02567   0.00000   0.03152   0.03152   1.78216
   rch        2.01785   0.00304   0.00000   0.00803   0.00803   2.02588
   rnh        1.87858   0.00563   0.00000   0.01147   0.01147   1.89004
   an1        1.25389  -0.00745   0.00000   0.00595   0.00595   1.25985
   an2        2.33355  -0.04250   0.00000   0.00208   0.00208   2.33564
   an3        3.39396   0.04448   0.00000   0.00388   0.00388   3.39784
   an4        4.81845  -0.00282   0.00000  -0.00806  -0.00806   4.81038
   ach        2.18209  -0.00019   0.00000  -0.00432  -0.00432   2.17777
   anh        2.10770   0.00013   0.00000  -0.00038  -0.00038   2.10733
         Item               Value     Threshold  Converged?
 Maximum Force            0.044484     0.000450     NO 
 RMS     Force            0.023146     0.000300     NO 
 Maximum Displacement     0.041316     0.001800     NO 
 RMS     Displacement     0.020251     0.001200     NO 
 Predicted change in Energy=-1.778640D-03
 GradGradGradGradGradGradGradGradGradGradGradGradGradGradGradGradGradGrad

 ---------------------------------------------------------------------------------------------------
                            Z-MATRIX (ANGSTROMS AND DEGREES)
   CD    Cent   Atom    N1       Length/X        N2       Alpha/Y        N3        Beta/Z          J
 ---------------------------------------------------------------------------------------------------
      1         X 
      2         X        1   1.000000(     1)
      3      1  C        1   1.000000(     2)      2   90.000(     9)
      4      2  N        1   1.252183(     3)      2   90.000(    10)      3   72.184(    16)      0
      5      3  N        1   1.353890(     4)      2   90.000(    11)      3  133.822(    17)      0
      6      4  N        1   1.136464(     5)      2   90.000(    12)      3  194.682(    18)      0
      7      5  N        1   0.943078(     6)      2   90.000(    13)      3  275.615(    19)      0
      8      6  H        3   1.072050(     7)      4  124.777(    14)      5  180.000(    20)      0
      9      7  H        4   1.000169(     8)      5  120.741(    15)      6  180.000(    21)      0
 ---------------------------------------------------------------------------------------------------
                         Z-Matrix orientation:                         
 ---------------------------------------------------------------------
 Center     Atomic      Atomic             Coordinates (Angstroms)
 Number     Number       Type             X           Y           Z
 ---------------------------------------------------------------------
      1         -1           0        0.000000    0.000000    0.000000
      2         -1           0        0.000000    0.000000    1.000000
      3          6           0        1.000000    0.000000    0.000000
      4          7           0        0.383123   -1.192132    0.000000
      5          7           0       -0.937463   -0.976822    0.000000
      6          7           0       -1.099355    0.288043    0.000000
      7          7           0        0.092270    0.938553    0.000000
      8          1           0        2.063079    0.138402    0.000000
      9          1           0        0.749376   -2.122829    0.000000
 ---------------------------------------------------------------------
                    Distance matrix (angstroms):
                    1          2          3          4          5
     1  X    0.000000
     2  X    1.000000   0.000000
     3  C    1.000000   1.414214   0.000000
     4  N    1.252183   1.602486   1.342280   0.000000
     5  N    1.353890   1.683157   2.169780   1.338023   0.000000
     6  N    1.136464   1.513786   2.119023   2.094912   1.275183
     7  N    0.943078   1.374553   1.305701   2.150445   2.174629
     8  H    2.067716   2.296835   1.072050   2.143028   3.201089
     9  H    2.251214   2.463324   2.137572   1.000169   2.039303
                    6          7          8          9
     6  N    0.000000
     7  N    1.357621   0.000000
     8  H    3.165972   2.127047   0.000000
     9  H    3.038109   3.131109   2.615144   0.000000
 Stoichiometry    CH2N4
 Framework group  CS[SG(CH2N4)]
 Deg. of freedom    11
 Full point group                 CS      NOp   2
 Largest Abelian subgroup         CS      NOp   2
 Largest concise Abelian subgroup C1      NOp   1
                         Standard orientation:                         
 ---------------------------------------------------------------------
 Center     Atomic      Atomic             Coordinates (Angstroms)
 Number     Number       Type             X           Y           Z
 ---------------------------------------------------------------------
      1          6           0        1.060909    0.228882    0.000000
      2          7           0        0.000000    1.051188    0.000000
      3          7           0       -1.107684    0.300627    0.000000
      4          7           0       -0.722796   -0.915084    0.000000
      5          7           0        0.631889   -1.004325    0.000000
      6          1           0        2.083658    0.550248    0.000000
      7          1           0       -0.058974    2.049616    0.000000
 ---------------------------------------------------------------------
 Rotational constants (GHZ):     10.6720795     10.4802277      5.2876418
 Standard basis: CC-pVTZ (5D, 7F)
 There are   142 symmetry adapted cartesian basis functions of A'  symmetry.
 There are    63 symmetry adapted cartesian basis functions of A"  symmetry.
 There are   120 symmetry adapted basis functions of A'  symmetry.
 There are    58 symmetry adapted basis functions of A"  symmetry.
   178 basis functions,   294 primitive gaussians,   205 cartesian basis functions
    18 alpha electrons       18 beta electrons
       nuclear repulsion energy       167.8520117791 Hartrees.
 NAtoms=    7 NActive=    7 NUniq=    7 SFac= 1.00D+00 NAtFMM=   60 NAOKFM=F Big=F
 Integral buffers will be    131072 words long.
 Raffenetti 1 integral format.
 Two-electron integral symmetry is turned on.
 One-electron integrals computed using PRISM.
 NBasis=   178 RedAO= T EigKep=  1.08D-03  NBF=   120    58
 NBsUse=   178 1.00D-06 EigRej= -1.00D+00 NBFU=   120    58
 Initial guess from the checkpoint file:  "/tmp/rdj3/g09-31683/Gau-12874.chk"
 B after Tr=     0.000000    0.000000    0.000000
         Rot=    1.000000    0.000000    0.000000    0.000040 Ang=   0.00 deg.
 Initial guess orbital symmetries:
       Occupied  (A') (A') (A') (A') (A') (A') (A') (A') (A') (A')
                 (A') (A") (A') (A') (A') (A') (A") (A")
       Virtual   (A') (A') (A') (A') (A') (A') (A') (A') (A') (A')
                 (A') (A') (A') (A') (A') (A') (A') (A') (A') (A')
                 (A') (A') (A') (A') (A') (A') (A') (A') (A') (A')
                 (A') (A') (A') (A') (A') (A') (A') (A') (A') (A')
                 (A') (A') (A') (A') (A') (A') (A') (A') (A') (A')
                 (A') (A') (A') (A') (A') (A') (A') (A') (A') (A')
                 (A') (A') (A') (A') (A') (A') (A') (A') (A') (A')
                 (A') (A') (A') (A') (A') (A') (A') (A') (A') (A')
                 (A') (A') (A') (A') (A') (A') (A') (A') (A') (A')
                 (A') (A') (A') (A') (A') (A') (A') (A') (A') (A')
                 (A') (A') (A') (A') (A') (A") (A") (A") (A") (A")
                 (A") (A") (A") (A") (A") (A") (A") (A") (A") (A")
                 (A") (A") (A") (A") (A") (A") (A") (A") (A") (A")
                 (A") (A") (A") (A") (A") (A") (A") (A") (A") (A")
                 (A") (A") (A") (A") (A") (A") (A") (A") (A") (A")
                 (A") (A") (A") (A") (A") (A") (A") (A") (A") (A")
 ExpMin= 1.03D-01 ExpMax= 1.14D+04 ExpMxC= 3.89D+02 IAcc=1 IRadAn=         1 AccDes= 0.00D+00
 Harris functional with IExCor=  205 and IRadAn=       1 diagonalized for initial guess.
 HarFok:  IExCor=  205 AccDes= 0.00D+00 IRadAn=         1 IDoV= 1 UseB2=F ITyADJ=14
 ICtDFT=  3500011 ScaDFX=  1.000000  1.000000  1.000000  1.000000
 FoFCou: FMM=F IPFlag=           0 FMFlag=      100000 FMFlg1=           0
         NFxFlg=           0 DoJE=T BraDBF=F KetDBF=T FulRan=T
         wScrn=  0.000000 ICntrl=     500 IOpCl=  0 I1Cent=   200000004 NGrid=           0
         NMat0=    1 NMatS0=      1 NMatT0=    0 NMatD0=    1 NMtDS0=    0 NMtDT0=    0
 Petite list used in FoFCou.
 Keep R1 ints in memory in symmetry-blocked form, NReq=191556701.
 Requested convergence on RMS density matrix=1.00D-08 within 128 cycles.
 Requested convergence on MAX density matrix=1.00D-06.
 Requested convergence on             energy=1.00D-06.
 No special actions if energy rises.
 SCF Done:  E(RHF) =  -256.845930658     A.U. after   12 cycles
            NFock= 12  Conv=0.31D-08     -V/T= 2.0017
 ExpMin= 1.03D-01 ExpMax= 1.14D+04 ExpMxC= 3.89D+02 IAcc=3 IRadAn=         5 AccDes= 0.00D+00
 HarFok:  IExCor=  205 AccDes= 0.00D+00 IRadAn=         5 IDoV=-2 UseB2=F ITyADJ=14
 ICtDFT= 12500011 ScaDFX=  1.000000  1.000000  1.000000  1.000000
 Range of M.O.s used for correlation:     6   178
 NBasis=   178 NAE=    18 NBE=    18 NFC=     5 NFV=     0
 NROrb=    173 NOA=    13 NOB=    13 NVA=   160 NVB=   160

 **** Warning!!: The largest alpha MO coefficient is  0.10906858D+02

 Semi-Direct transformation.
 ModeAB=           2 MOrb=            13 LenV=     435070560
 LASXX=     16250521 LTotXX=    16250521 LenRXX=    16250521
 LTotAB=    16563741 MaxLAS=    47487635 LenRXY=    47487635
 NonZer=    48483942 LenScr=    73495040 LnRSAI=           0
 LnScr1=           0 LExtra=           0 Total=    137233196
 MaxDsk=          -1 SrtSym=           F ITran=            4
 JobTyp=0 Pass  1:  I=   1 to  13.
 (rs|ai) integrals will be sorted in core.
 Spin components of T(2) and E(2):
     alpha-alpha T2 =       0.4122314254D-01 E2=     -0.1279205496D+00
     alpha-beta  T2 =       0.2097099690D+00 E2=     -0.7021439416D+00
     beta-beta   T2 =       0.4122314254D-01 E2=     -0.1279205496D+00
 ANorm=    0.1136730511D+01
 E2 =    -0.9579850408D+00 EUMP2 =    -0.25780391569857D+03
 Keep R2 and R3 ints in memory in symmetry-blocked form, NReq=193440570.
 DD1Dir will call FoFMem   1 times, MxPair=       182
 NAB=    91 NAA=     0 NBB=     0.
 E3=        0.89462684D-02        EUMP3=      -0.25779496943D+03
 Largest amplitude= 6.15D-02
 Discarding MO integrals.
          IDoAtm=1111111
          Differentiating once with respect to electric field.
                with respect to dipole field.
          Differentiating once with respect to nuclear coordinates.
 Keep R1 ints in memory in symmetry-blocked form, NReq=191410634.
          There are     1 degrees of freedom in the 1st order CPHF.  IDoFFX=0 NUNeed=     1.
 LinEq1:  Iter=  0 NonCon=     1 RMS=2.78D-03 Max=3.96D-02 NDo=     1
 AX will form     1 AO Fock derivatives at one time.
 LinEq1:  Iter=  1 NonCon=     1 RMS=8.94D-04 Max=1.37D-02 NDo=     1
 LinEq1:  Iter=  2 NonCon=     1 RMS=2.81D-04 Max=7.23D-03 NDo=     1
 LinEq1:  Iter=  3 NonCon=     1 RMS=9.11D-05 Max=1.37D-03 NDo=     1
 LinEq1:  Iter=  4 NonCon=     1 RMS=2.99D-05 Max=7.82D-04 NDo=     1
 LinEq1:  Iter=  5 NonCon=     1 RMS=1.13D-05 Max=2.37D-04 NDo=     1
 LinEq1:  Iter=  6 NonCon=     1 RMS=2.98D-06 Max=5.74D-05 NDo=     1
 LinEq1:  Iter=  7 NonCon=     1 RMS=1.68D-06 Max=4.02D-05 NDo=     1
 LinEq1:  Iter=  8 NonCon=     1 RMS=5.64D-07 Max=1.01D-05 NDo=     1
 LinEq1:  Iter=  9 NonCon=     1 RMS=2.42D-07 Max=5.16D-06 NDo=     1
 LinEq1:  Iter= 10 NonCon=     1 RMS=8.12D-08 Max=8.16D-07 NDo=     1
 LinEq1:  Iter= 11 NonCon=     1 RMS=2.56D-08 Max=4.03D-07 NDo=     1
 LinEq1:  Iter= 12 NonCon=     1 RMS=1.04D-08 Max=1.32D-07 NDo=     1
 LinEq1:  Iter= 13 NonCon=     1 RMS=3.09D-09 Max=4.63D-08 NDo=     1
 LinEq1:  Iter= 14 NonCon=     1 RMS=5.21D-10 Max=9.58D-09 NDo=     1
 LinEq1:  Iter= 15 NonCon=     1 RMS=1.00D-10 Max=1.98D-09 NDo=     1
 LinEq1:  Iter= 16 NonCon=     0 RMS=1.64D-11 Max=2.28D-10 NDo=     1
 Linear equations converged to 1.000D-10 1.000D-09 after    16 iterations.
 End of Minotr F.D. properties file   721 does not exist.
 End of Minotr F.D. properties file   722 does not exist.
 End of Minotr F.D. properties file   788 does not exist.
 Calling FoFJK, ICntrl=  10002127 FMM=F ISym2X=1 I1Cent= 0 IOpClX= 0 NMat=1 NMatS=1 NMatT=0.
 ***** Axes restored to original set *****
 -------------------------------------------------------------------
 Center     Atomic                   Forces (Hartrees/Bohr)
 Number     Number              X              Y              Z
 -------------------------------------------------------------------
      1        6           0.000881446   -0.001592140    0.000000000
      2        7           0.000072829    0.003671892    0.000000000
      3        7          -0.000358349   -0.006429159    0.000000000
      4        7          -0.002020568    0.004354740    0.000000000
      5        7           0.001526478   -0.000102434    0.000000000
      6        1          -0.000112110   -0.000031276    0.000000000
      7        1           0.000010274    0.000128376    0.000000000
 -------------------------------------------------------------------
 Cartesian Forces:  Max     0.006429159 RMS     0.001996183
 -----------------------------------------------------------------------------------------------
                       Internal Coordinate Forces (Hartree/Bohr or radian)
  Cent   Atom   N1       Length/X         N2         Alpha/Y        N3         Beta/Z          J
 -----------------------------------------------------------------------------------------------
         X 
         X        1   0.000000(     1)
      1  C        1   0.000781(     2)      2   0.000000(     9)
      2  N        1  -0.003640(     3)      2   0.000000(    10)      3  -0.002962(    16)     0
      3  N        1   0.004922(     4)      2   0.000000(    11)      3  -0.010789(    17)     0
      4  N        1   0.003058(     5)      2   0.000000(    12)      3   0.007947(    18)     0
      5  N        1   0.000047(     6)      2   0.000000(    13)      3   0.002725(    19)     0
      6  H        3  -0.000115(     7)      4  -0.000034(    14)      5   0.000000(    20)     0
      7  H        4  -0.000116(     8)      5   0.000107(    15)      6   0.000000(    21)     0
 -----------------------------------------------------------------------------------------------
 Internal  Forces:  Max     0.010789451 RMS     0.003403374

 GradGradGradGradGradGradGradGradGradGradGradGradGradGradGradGradGradGrad
 Berny optimization.
 Search for a local minimum.
 Step number   2 out of a maximum of   22
 All quantities printed in internal units (Hartrees-Bohrs-Radians)
 Update second derivatives using D2CorN and points    1    2
 DE= -1.85D-03 DEPred=-1.78D-03 R= 1.04D+00
 TightC=F SS=  1.41D+00  RLast= 7.02D-02 DXNew= 5.0454D-01 2.1046D-01
 Trust test= 1.04D+00 RLast= 7.02D-02 DXMaxT set to 3.00D-01
 The second derivative matrix:
                          rn1       rn2       rn3       rn4       rch
           rn1          0.66549
           rn2          0.01924   0.66033
           rn3          0.04491   0.04159   0.55817
           rn4          0.04886   0.01156   0.13062   0.63962
           rch          0.00329  -0.00333  -0.00177   0.00051   0.37533
           rnh          0.00460  -0.00494  -0.00274   0.00058   0.00029
           an1          0.02785  -0.74109   0.05334  -0.07526   0.00252
           an2          0.74184  -0.27005  -0.67394   0.08894   0.00884
           an3         -0.04227   1.01426   0.01967  -0.61120  -0.00642
           an4          0.04518  -0.03941   0.64934  -0.10896  -0.00236
           ach          0.04387   0.00217   0.00136   0.05069  -0.00005
           anh         -0.10240   0.05250  -0.00034  -0.00035  -0.00009
                          rnh       an1       an2       an3       an4
           rnh          0.48777
           an1          0.00357   4.53618
           an2          0.01261  -2.67335   6.02757
           an3         -0.00918  -0.03936  -3.19361   4.46840
           an4         -0.00334  -0.12669  -0.07535  -1.15501   2.58930
           ach         -0.00005  -0.10589  -0.00474   0.00349   0.07437
           anh         -0.00013   0.03501  -0.09103   0.00026   0.00019
                          ach       anh
           ach          0.31998
           anh          0.00005   0.32001
 ITU=  1  0
     Eigenvalues ---    0.00000   0.12475   0.26489   0.32872   0.37527
     Eigenvalues ---    0.39542   0.48773   0.76119   1.20826   2.98596
     Eigenvalues ---    5.08728   9.62871
 RFO step:  Lambda=-7.25038942D-05 EMin=-8.04341226D-10
 Quartic linear search produced a step of  0.07156.
 Variable       Old X    -DE/DX   Delta X   Delta X   Delta X     New X
                                 (Linear)    (Quad)   (Total)
   rn1        2.36628  -0.00364   0.00130  -0.02278  -0.02149   2.34480
   rn2        2.55848   0.00492   0.00283  -0.00215   0.00068   2.55916
   rn3        2.14760   0.00306   0.00296   0.00862   0.01158   2.15918
   rn4        1.78216   0.00005   0.00226   0.00986   0.01211   1.79427
   rch        2.02588  -0.00012   0.00057  -0.00070  -0.00013   2.02575
   rnh        1.89004  -0.00012   0.00082  -0.00085  -0.00003   1.89001
   an1        1.25985  -0.00296   0.00043   0.00675   0.00717   1.26702
   an2        2.33564  -0.01079   0.00015   0.01205   0.01220   2.34784
   an3        3.39784   0.00795   0.00028   0.01306   0.01334   3.41118
   an4        4.81038   0.00273  -0.00058   0.00626   0.00568   4.81606
   ach        2.17777  -0.00003  -0.00031   0.00224   0.00194   2.17971
   anh        2.10733   0.00011  -0.00003  -0.00392  -0.00394   2.10338
         Item               Value     Threshold  Converged?
 Maximum Force            0.010789     0.000450     NO 
 RMS     Force            0.004497     0.000300     NO 
 Maximum Displacement     0.021487     0.001800     NO 
 RMS     Displacement     0.009886     0.001200     NO 
 Predicted change in Energy=-4.096884D-05
 GradGradGradGradGradGradGradGradGradGradGradGradGradGradGradGradGradGrad

 ---------------------------------------------------------------------------------------------------
                            Z-MATRIX (ANGSTROMS AND DEGREES)
   CD    Cent   Atom    N1       Length/X        N2       Alpha/Y        N3        Beta/Z          J
 ---------------------------------------------------------------------------------------------------
      1         X 
      2         X        1   1.000000(     1)
      3      1  C        1   1.000000(     2)      2   90.000(     9)
      4      2  N        1   1.240813(     3)      2   90.000(    10)      3   72.595(    16)      0
      5      3  N        1   1.354248(     4)      2   90.000(    11)      3  134.521(    17)      0
      6      4  N        1   1.142589(     5)      2   90.000(    12)      3  195.446(    18)      0
      7      5  N        1   0.949489(     6)      2   90.000(    13)      3  275.940(    19)      0
      8      6  H        3   1.071982(     7)      4  124.888(    14)      5  180.000(    20)      0
      9      7  H        4   1.000151(     8)      5  120.515(    15)      6  180.000(    21)      0
 ---------------------------------------------------------------------------------------------------
                         Z-Matrix orientation:                         
 ---------------------------------------------------------------------
 Center     Atomic      Atomic             Coordinates (Angstroms)
 Number     Number       Type             X           Y           Z
 ---------------------------------------------------------------------
      1         -1           0        0.000000    0.000000    0.000000
      2         -1           0        0.000000    0.000000    1.000000
      3          6           0        1.000000    0.000000    0.000000
      4          7           0        0.371162   -1.183999    0.000000
      5          7           0       -0.949560   -0.965569    0.000000
      6          7           0       -1.101318    0.304315    0.000000
      7          7           0        0.098263    0.944390    0.000000
      8          1           0        2.064185    0.129058    0.000000
      9          1           0        0.731604   -2.116943    0.000000
 ---------------------------------------------------------------------
                    Distance matrix (angstroms):
                    1          2          3          4          5
     1  X    0.000000
     2  X    1.000000   0.000000
     3  C    1.000000   1.414214   0.000000
     4  N    1.240813   1.593617   1.340631   0.000000
     5  N    1.354248   1.683445   2.175571   1.338663   0.000000
     6  N    1.142589   1.518390   2.123240   2.093628   1.278919
     7  N    0.949489   1.378959   1.305758   2.145814   2.178503
     8  H    2.068215   2.297284   1.071982   2.142532   3.206379
     9  H    2.239798   2.452895   2.133890   1.000151   2.037640
                    6          7          8          9
     6  N    0.000000
     7  N    1.359666   0.000000
     8  H    3.170351   2.128290   0.000000
     9  H    3.036790   3.126161   2.611569   0.000000
 Stoichiometry    CH2N4
 Framework group  CS[SG(CH2N4)]
 Deg. of freedom    11
 Full point group                 CS      NOp   2
 Largest Abelian subgroup         CS      NOp   2
 Largest concise Abelian subgroup C1      NOp   1
                         Standard orientation:                         
 ---------------------------------------------------------------------
 Center     Atomic      Atomic             Coordinates (Angstroms)
 Number     Number       Type             X           Y           Z
 ---------------------------------------------------------------------
      1          6           0        1.063040    0.231022    0.000000
      2          7           0        0.000000    1.047868    0.000000
      3          7           0       -1.111384    0.301648    0.000000
      4          7           0       -0.723127   -0.916913    0.000000
      5          7           0        0.633862   -1.002189    0.000000
      6          1           0        2.084995    0.554675    0.000000
      7          1           0       -0.058683    2.046296    0.000000
 ---------------------------------------------------------------------
 Rotational constants (GHZ):     10.6696420     10.4571202      5.2811561
 Standard basis: CC-pVTZ (5D, 7F)
 There are   142 symmetry adapted cartesian basis functions of A'  symmetry.
 There are    63 symmetry adapted cartesian basis functions of A"  symmetry.
 There are   120 symmetry adapted basis functions of A'  symmetry.
 There are    58 symmetry adapted basis functions of A"  symmetry.
   178 basis functions,   294 primitive gaussians,   205 cartesian basis functions
    18 alpha electrons       18 beta electrons
       nuclear repulsion energy       167.7414022088 Hartrees.
 NAtoms=    7 NActive=    7 NUniq=    7 SFac= 1.00D+00 NAtFMM=   60 NAOKFM=F Big=F
 Integral buffers will be    131072 words long.
 Raffenetti 1 integral format.
 Two-electron integral symmetry is turned on.
 One-electron integrals computed using PRISM.
 NBasis=   178 RedAO= T EigKep=  1.09D-03  NBF=   120    58
 NBsUse=   178 1.00D-06 EigRej= -1.00D+00 NBFU=   120    58
 Initial guess from the checkpoint file:  "/tmp/rdj3/g09-31683/Gau-12874.chk"
 B after Tr=     0.000000    0.000000    0.000000
         Rot=    1.000000    0.000000    0.000000   -0.000470 Ang=  -0.05 deg.
 Initial guess orbital symmetries:
       Occupied  (A') (A') (A') (A') (A') (A') (A') (A') (A') (A')
                 (A') (A") (A') (A') (A') (A') (A") (A")
       Virtual   (A') (A') (A') (A') (A') (A') (A') (A') (A') (A')
                 (A') (A') (A') (A') (A') (A') (A') (A') (A') (A')
                 (A') (A') (A') (A') (A') (A') (A') (A') (A') (A')
                 (A') (A') (A') (A') (A') (A') (A') (A') (A') (A')
                 (A') (A') (A') (A') (A') (A') (A') (A') (A') (A')
                 (A') (A') (A') (A') (A') (A') (A') (A') (A') (A')
                 (A') (A') (A') (A') (A') (A') (A') (A') (A') (A')
                 (A') (A') (A') (A') (A') (A') (A') (A') (A') (A')
                 (A') (A') (A') (A') (A') (A') (A') (A') (A') (A')
                 (A') (A') (A') (A') (A') (A') (A') (A') (A') (A')
                 (A') (A') (A') (A') (A') (A") (A") (A") (A") (A")
                 (A") (A") (A") (A") (A") (A") (A") (A") (A") (A")
                 (A") (A") (A") (A") (A") (A") (A") (A") (A") (A")
                 (A") (A") (A") (A") (A") (A") (A") (A") (A") (A")
                 (A") (A") (A") (A") (A") (A") (A") (A") (A") (A")
                 (A") (A") (A") (A") (A") (A") (A") (A") (A") (A")
 ExpMin= 1.03D-01 ExpMax= 1.14D+04 ExpMxC= 3.89D+02 IAcc=1 IRadAn=         1 AccDes= 0.00D+00
 Harris functional with IExCor=  205 and IRadAn=       1 diagonalized for initial guess.
 HarFok:  IExCor=  205 AccDes= 0.00D+00 IRadAn=         1 IDoV= 1 UseB2=F ITyADJ=14
 ICtDFT=  3500011 ScaDFX=  1.000000  1.000000  1.000000  1.000000
 FoFCou: FMM=F IPFlag=           0 FMFlag=      100000 FMFlg1=           0
         NFxFlg=           0 DoJE=T BraDBF=F KetDBF=T FulRan=T
         wScrn=  0.000000 ICntrl=     500 IOpCl=  0 I1Cent=   200000004 NGrid=           0
         NMat0=    1 NMatS0=      1 NMatT0=    0 NMatD0=    1 NMtDS0=    0 NMtDT0=    0
 Petite list used in FoFCou.
 Keep R1 ints in memory in symmetry-blocked form, NReq=191556701.
 Requested convergence on RMS density matrix=1.00D-08 within 128 cycles.
 Requested convergence on MAX density matrix=1.00D-06.
 Requested convergence on             energy=1.00D-06.
 No special actions if energy rises.
 SCF Done:  E(RHF) =  -256.845589847     A.U. after   10 cycles
            NFock= 10  Conv=0.57D-08     -V/T= 2.0017
 ExpMin= 1.03D-01 ExpMax= 1.14D+04 ExpMxC= 3.89D+02 IAcc=3 IRadAn=         5 AccDes= 0.00D+00
 HarFok:  IExCor=  205 AccDes= 0.00D+00 IRadAn=         5 IDoV=-2 UseB2=F ITyADJ=14
 ICtDFT= 12500011 ScaDFX=  1.000000  1.000000  1.000000  1.000000
 Range of M.O.s used for correlation:     6   178
 NBasis=   178 NAE=    18 NBE=    18 NFC=     5 NFV=     0
 NROrb=    173 NOA=    13 NOB=    13 NVA=   160 NVB=   160

 **** Warning!!: The largest alpha MO coefficient is  0.10926687D+02

 Semi-Direct transformation.
 ModeAB=           2 MOrb=            13 LenV=     435070588
 LASXX=     16250521 LTotXX=    16250521 LenRXX=    16250521
 LTotAB=    16563741 MaxLAS=    47487635 LenRXY=    47487635
 NonZer=    48483942 LenScr=    73495040 LnRSAI=           0
 LnScr1=           0 LExtra=           0 Total=    137233196
 MaxDsk=          -1 SrtSym=           F ITran=            4
 JobTyp=0 Pass  1:  I=   1 to  13.
 (rs|ai) integrals will be sorted in core.
 Spin components of T(2) and E(2):
     alpha-alpha T2 =       0.4131128182D-01 E2=     -0.1280064783D+00
     alpha-beta  T2 =       0.2101162439D+00 E2=     -0.7025536762D+00
     beta-beta   T2 =       0.4131128182D-01 E2=     -0.1280064783D+00
 ANorm=    0.1136986723D+01
 E2 =    -0.9585666328D+00 EUMP2 =    -0.25780415647981D+03
 Keep R2 and R3 ints in memory in symmetry-blocked form, NReq=193440570.
 DD1Dir will call FoFMem   1 times, MxPair=       182
 NAB=    91 NAA=     0 NBB=     0.
 E3=        0.91529920D-02        EUMP3=      -0.25779500349D+03
 Largest amplitude= 6.20D-02
 Discarding MO integrals.
          IDoAtm=1111111
          Differentiating once with respect to electric field.
                with respect to dipole field.
          Differentiating once with respect to nuclear coordinates.
 Keep R1 ints in memory in symmetry-blocked form, NReq=191410634.
          There are     1 degrees of freedom in the 1st order CPHF.  IDoFFX=0 NUNeed=     1.
 LinEq1:  Iter=  0 NonCon=     1 RMS=2.78D-03 Max=3.99D-02 NDo=     1
 AX will form     1 AO Fock derivatives at one time.
 LinEq1:  Iter=  1 NonCon=     1 RMS=8.95D-04 Max=1.37D-02 NDo=     1
 LinEq1:  Iter=  2 NonCon=     1 RMS=2.82D-04 Max=7.34D-03 NDo=     1
 LinEq1:  Iter=  3 NonCon=     1 RMS=9.19D-05 Max=1.36D-03 NDo=     1
 LinEq1:  Iter=  4 NonCon=     1 RMS=3.04D-05 Max=8.03D-04 NDo=     1
 LinEq1:  Iter=  5 NonCon=     1 RMS=1.14D-05 Max=2.34D-04 NDo=     1
 LinEq1:  Iter=  6 NonCon=     1 RMS=2.95D-06 Max=4.96D-05 NDo=     1
 LinEq1:  Iter=  7 NonCon=     1 RMS=1.57D-06 Max=3.85D-05 NDo=     1
 LinEq1:  Iter=  8 NonCon=     1 RMS=5.18D-07 Max=7.90D-06 NDo=     1
 LinEq1:  Iter=  9 NonCon=     1 RMS=2.22D-07 Max=5.45D-06 NDo=     1
 LinEq1:  Iter= 10 NonCon=     1 RMS=7.89D-08 Max=7.63D-07 NDo=     1
 LinEq1:  Iter= 11 NonCon=     1 RMS=2.65D-08 Max=4.84D-07 NDo=     1
 LinEq1:  Iter= 12 NonCon=     1 RMS=1.08D-08 Max=1.30D-07 NDo=     1
 LinEq1:  Iter= 13 NonCon=     1 RMS=3.16D-09 Max=4.84D-08 NDo=     1
 LinEq1:  Iter= 14 NonCon=     1 RMS=5.33D-10 Max=9.59D-09 NDo=     1
 LinEq1:  Iter= 15 NonCon=     1 RMS=1.02D-10 Max=1.97D-09 NDo=     1
 LinEq1:  Iter= 16 NonCon=     0 RMS=1.68D-11 Max=2.25D-10 NDo=     1
 Linear equations converged to 1.000D-10 1.000D-09 after    16 iterations.
 End of Minotr F.D. properties file   721 does not exist.
 End of Minotr F.D. properties file   722 does not exist.
 End of Minotr F.D. properties file   788 does not exist.
 Calling FoFJK, ICntrl=  10002127 FMM=F ISym2X=1 I1Cent= 0 IOpClX= 0 NMat=1 NMatS=1 NMatT=0.
 ***** Axes restored to original set *****
 -------------------------------------------------------------------
 Center     Atomic                   Forces (Hartrees/Bohr)
 Number     Number              X              Y              Z
 -------------------------------------------------------------------
      1        6          -0.001541962   -0.000984289    0.000000000
      2        7          -0.000132514   -0.000763026    0.000000000
      3        7           0.002148474   -0.000954649    0.000000000
      4        7           0.000113187    0.002066403    0.000000000
      5        7          -0.000555839    0.000689770    0.000000000
      6        1          -0.000134113   -0.000025720    0.000000000
      7        1           0.000102766   -0.000028490    0.000000000
 -------------------------------------------------------------------
 Cartesian Forces:  Max     0.002148474 RMS     0.000832985
 -----------------------------------------------------------------------------------------------
                       Internal Coordinate Forces (Hartree/Bohr or radian)
  Cent   Atom   N1       Length/X         N2         Alpha/Y        N3         Beta/Z          J
 -----------------------------------------------------------------------------------------------
         X 
         X        1   0.000000(     1)
      1  C        1  -0.001669(     2)      2   0.000000(     9)
      2  N        1   0.000684(     3)      2   0.000000(    10)      3   0.000566(    16)     0
      3  N        1  -0.000773(     4)      2   0.000000(    11)      3  -0.005727(    17)     0
      4  N        1   0.000441(     5)      2   0.000000(    12)      3   0.004366(    18)     0
      5  N        1   0.000629(     6)      2   0.000000(    13)      3  -0.001120(    19)     0
      6  H        3  -0.000136(     7)      4  -0.000019(    14)      5   0.000000(    20)     0
      7  H        4   0.000064(     8)      5   0.000162(    15)      6   0.000000(    21)     0
 -----------------------------------------------------------------------------------------------
 Internal  Forces:  Max     0.005727438 RMS     0.001660896

 GradGradGradGradGradGradGradGradGradGradGradGradGradGradGradGradGradGrad
 Berny optimization.
 Search for a local minimum.
 Step number   3 out of a maximum of   22
 All quantities printed in internal units (Hartrees-Bohrs-Radians)
 Update second derivatives using D2CorN and points    1    2    3
 DE= -3.41D-05 DEPred=-4.10D-05 R= 8.31D-01
 TightC=F SS=  1.41D+00  RLast= 3.42D-02 DXNew= 5.0454D-01 1.0274D-01
 Trust test= 8.31D-01 RLast= 3.42D-02 DXMaxT set to 3.00D-01
 The second derivative matrix:
                          rn1       rn2       rn3       rn4       rch
           rn1          0.67904
           rn2          0.01730   0.65506
           rn3          0.05104   0.03792   0.54545
           rn4          0.05551   0.01203   0.12192   0.63330
           rch          0.00328  -0.00287  -0.00059   0.00216   0.37572
           rnh          0.00670  -0.00512  -0.00324   0.00086   0.00072
           an1          0.03210  -0.73682   0.05232  -0.07674   0.00381
           an2          0.69329  -0.23385  -0.61151   0.14510   0.01576
           an3         -0.00970   0.99232  -0.03311  -0.65916  -0.00991
           an4          0.03313  -0.03861   0.65209  -0.10638  -0.00254
           ach          0.04269   0.00279   0.00117   0.05016  -0.00006
           anh         -0.10021   0.05094  -0.00085  -0.00073  -0.00048
                          rnh       an1       an2       an3       an4
           rnh          0.48816
           an1          0.00443   4.53466
           an2          0.02146  -2.65029   6.09972
           an3         -0.01612  -0.06014  -3.18008   4.40699
           an4         -0.00402  -0.12544  -0.06061  -1.15673   2.59476
           ach         -0.00021  -0.10653  -0.00263   0.00203   0.07544
           anh         -0.00023   0.03501  -0.10343   0.00780  -0.00180
                          ach       anh
           ach          0.32005
           anh         -0.00007   0.32063
 ITU=  1  1  0
     Eigenvalues ---   -0.00425   0.14805   0.26795   0.32893   0.37564
     Eigenvalues ---    0.40372   0.48799   0.76235   1.20646   2.98173
     Eigenvalues ---    5.08086   9.61410
 RFO step:  Lambda=-4.26486402D-03 EMin=-4.24668162D-03
 I=     1 Eig=   -4.25D-03 Dot1=  1.67D-04
 I=     1 Stepn=  6.00D-01 RXN=   6.00D-01 EDone=F
 Mixed    1 eigenvectors in step.  Raw Step.Grad=  1.67D-04.
 RFO eigenvector is Hessian eigenvector with negative curvature.
 Taking step of  6.00D-01 in eigenvector direction(s).  Step.Grad= -1.45D-04.
 Quartic linear search produced a step of -0.16818.
 Maximum step size (   0.300) exceeded in Quadratic search.
    -- Step size scaled by   0.500
 Variable       Old X    -DE/DX   Delta X   Delta X   Delta X     New X
                                 (Linear)    (Quad)   (Total)
   rn1        2.34480   0.00068   0.00361  -0.11668  -0.11307   2.23173
   rn2        2.55916  -0.00077  -0.00011  -0.12441  -0.12452   2.43464
   rn3        2.15918   0.00044  -0.00195   0.02359   0.02164   2.18082
   rn4        1.79427   0.00063  -0.00204   0.14989   0.14785   1.94213
   rch        2.02575  -0.00014   0.00002  -0.00128  -0.00126   2.02450
   rnh        1.89001   0.00006   0.00001   0.00053   0.00054   1.89055
   an1        1.26702   0.00057  -0.00121   0.04637   0.04516   1.31218
   an2        2.34784  -0.00573  -0.00205   0.10266   0.10060   2.44844
   an3        3.41118   0.00437  -0.00224   0.14283   0.14059   3.55177
   an4        4.81606  -0.00112  -0.00096   0.06828   0.06733   4.88339
   ach        2.17971  -0.00002  -0.00033  -0.00755  -0.00787   2.17183
   anh        2.10338   0.00016   0.00066   0.00854   0.00921   2.11259
         Item               Value     Threshold  Converged?
 Maximum Force            0.005727     0.000450     NO 
 RMS     Force            0.002144     0.000300     NO 
 Maximum Displacement     0.147853     0.001800     NO 
 RMS     Displacement     0.085258     0.001200     NO 
 Predicted change in Energy=-2.947435D-04
 GradGradGradGradGradGradGradGradGradGradGradGradGradGradGradGradGradGrad

 ---------------------------------------------------------------------------------------------------
                            Z-MATRIX (ANGSTROMS AND DEGREES)
   CD    Cent   Atom    N1       Length/X        N2       Alpha/Y        N3        Beta/Z          J
 ---------------------------------------------------------------------------------------------------
      1         X 
      2         X        1   1.000000(     1)
      3      1  C        1   1.000000(     2)      2   90.000(     9)
      4      2  N        1   1.180979(     3)      2   90.000(    10)      3   75.182(    16)      0
      5      3  N        1   1.288353(     4)      2   90.000(    11)      3  140.285(    17)      0
      6      4  N        1   1.154042(     5)      2   90.000(    12)      3  203.502(    18)      0
      7      5  N        1   1.027729(     6)      2   90.000(    13)      3  279.798(    19)      0
      8      6  H        3   1.071317(     7)      4  124.437(    14)      5  180.000(    20)      0
      9      7  H        4   1.000435(     8)      5  121.042(    15)      6  180.000(    21)      0
 ---------------------------------------------------------------------------------------------------
                         Z-Matrix orientation:                         
 ---------------------------------------------------------------------
 Center     Atomic      Atomic             Coordinates (Angstroms)
 Number     Number       Type             X           Y           Z
 ---------------------------------------------------------------------
      1         -1           0        0.000000    0.000000    0.000000
      2         -1           0        0.000000    0.000000    1.000000
      3          6           0        1.000000    0.000000    0.000000
      4          7           0        0.302026   -1.141706    0.000000
      5          7           0       -0.991046   -0.823214    0.000000
      6          7           0       -1.058313    0.460204    0.000000
      7          7           0        0.174889    1.012739    0.000000
      8          1           0        2.069851    0.056026    0.000000
      9          1           0        0.597955   -2.097371    0.000000
 ---------------------------------------------------------------------
                    Distance matrix (angstroms):
                    1          2          3          4          5
     1  X    0.000000
     2  X    1.000000   0.000000
     3  C    1.000000   1.414214   0.000000
     4  N    1.180979   1.547486   1.338155   0.000000
     5  N    1.288353   1.630906   2.154518   1.331718   0.000000
     6  N    1.154042   1.527028   2.109132   2.101580   1.285180
     7  N    1.027729   1.433955   1.306312   2.158193   2.174886
     8  H    2.070609   2.299440   1.071317   2.135361   3.184675
     9  H    2.180944   2.399274   2.135557   1.000435   2.036763
                    6          7          8          9
     6  N    0.000000
     7  N    1.351326   0.000000
     8  H    3.154167   2.122777   0.000000
     9  H    3.047034   3.138753   2.608370   0.000000
 Stoichiometry    CH2N4
 Framework group  CS[SG(CH2N4)]
 Deg. of freedom    11
 Full point group                 CS      NOp   2
 Largest Abelian subgroup         CS      NOp   2
 Largest concise Abelian subgroup C1      NOp   1
                         Standard orientation:                         
 ---------------------------------------------------------------------
 Center     Atomic      Atomic             Coordinates (Angstroms)
 Number     Number       Type             X           Y           Z
 ---------------------------------------------------------------------
      1          6           0        1.051485    0.227548    0.000000
      2          7           0        0.000000    1.055219    0.000000
      3          7           0       -1.101572    0.306878    0.000000
      4          7           0       -0.718263   -0.919809    0.000000
      5          7           0        0.630119   -1.008939    0.000000
      6          1           0        2.074029    0.547116    0.000000
      7          1           0       -0.054928    2.054145    0.000000
 ---------------------------------------------------------------------
 Rotational constants (GHZ):     10.7455515     10.4446979      5.2964945
 Standard basis: CC-pVTZ (5D, 7F)
 There are   142 symmetry adapted cartesian basis functions of A'  symmetry.
 There are    63 symmetry adapted cartesian basis functions of A"  symmetry.
 There are   120 symmetry adapted basis functions of A'  symmetry.
 There are    58 symmetry adapted basis functions of A"  symmetry.
   178 basis functions,   294 primitive gaussians,   205 cartesian basis functions
    18 alpha electrons       18 beta electrons
       nuclear repulsion energy       167.9742604151 Hartrees.
 NAtoms=    7 NActive=    7 NUniq=    7 SFac= 1.00D+00 NAtFMM=   60 NAOKFM=F Big=F
 Integral buffers will be    131072 words long.
 Raffenetti 1 integral format.
 Two-electron integral symmetry is turned on.
 One-electron integrals computed using PRISM.
 NBasis=   178 RedAO= T EigKep=  1.08D-03  NBF=   120    58
 NBsUse=   178 1.00D-06 EigRej= -1.00D+00 NBFU=   120    58
 Initial guess from the checkpoint file:  "/tmp/rdj3/g09-31683/Gau-12874.chk"
 B after Tr=     0.000000    0.000000    0.000000
         Rot=    1.000000    0.000000    0.000000    0.000916 Ang=   0.10 deg.
 Initial guess orbital symmetries:
       Occupied  (A') (A') (A') (A') (A') (A') (A') (A') (A') (A')
                 (A') (A") (A') (A') (A') (A') (A") (A")
       Virtual   (A') (A') (A') (A') (A') (A') (A') (A') (A') (A')
                 (A') (A') (A') (A') (A') (A') (A') (A') (A') (A')
                 (A') (A') (A') (A') (A') (A') (A') (A') (A') (A')
                 (A') (A') (A') (A') (A') (A') (A') (A') (A') (A')
                 (A') (A') (A') (A') (A') (A') (A') (A') (A') (A')
                 (A') (A') (A') (A') (A') (A') (A') (A') (A') (A')
                 (A') (A') (A') (A') (A') (A') (A') (A') (A') (A')
                 (A') (A') (A') (A') (A') (A') (A') (A') (A') (A')
                 (A') (A') (A') (A') (A') (A') (A') (A') (A') (A')
                 (A') (A') (A') (A') (A') (A') (A') (A') (A') (A')
                 (A') (A') (A') (A') (A') (A") (A") (A") (A") (A")
                 (A") (A") (A") (A") (A") (A") (A") (A") (A") (A")
                 (A") (A") (A") (A") (A") (A") (A") (A") (A") (A")
                 (A") (A") (A") (A") (A") (A") (A") (A") (A") (A")
                 (A") (A") (A") (A") (A") (A") (A") (A") (A") (A")
                 (A") (A") (A") (A") (A") (A") (A") (A") (A") (A")
 ExpMin= 1.03D-01 ExpMax= 1.14D+04 ExpMxC= 3.89D+02 IAcc=1 IRadAn=         1 AccDes= 0.00D+00
 Harris functional with IExCor=  205 and IRadAn=       1 diagonalized for initial guess.
 HarFok:  IExCor=  205 AccDes= 0.00D+00 IRadAn=         1 IDoV= 1 UseB2=F ITyADJ=14
 ICtDFT=  3500011 ScaDFX=  1.000000  1.000000  1.000000  1.000000
 FoFCou: FMM=F IPFlag=           0 FMFlag=      100000 FMFlg1=           0
         NFxFlg=           0 DoJE=T BraDBF=F KetDBF=T FulRan=T
         wScrn=  0.000000 ICntrl=     500 IOpCl=  0 I1Cent=   200000004 NGrid=           0
         NMat0=    1 NMatS0=      1 NMatT0=    0 NMatD0=    1 NMtDS0=    0 NMtDT0=    0
 Petite list used in FoFCou.
 Keep R1 ints in memory in symmetry-blocked form, NReq=191556701.
 Requested convergence on RMS density matrix=1.00D-08 within 128 cycles.
 Requested convergence on MAX density matrix=1.00D-06.
 Requested convergence on             energy=1.00D-06.
 No special actions if energy rises.
 SCF Done:  E(RHF) =  -256.845389384     A.U. after   11 cycles
            NFock= 11  Conv=0.77D-08     -V/T= 2.0016
 ExpMin= 1.03D-01 ExpMax= 1.14D+04 ExpMxC= 3.89D+02 IAcc=3 IRadAn=         5 AccDes= 0.00D+00
 HarFok:  IExCor=  205 AccDes= 0.00D+00 IRadAn=         5 IDoV=-2 UseB2=F ITyADJ=14
 ICtDFT= 12500011 ScaDFX=  1.000000  1.000000  1.000000  1.000000
 Range of M.O.s used for correlation:     6   178
 NBasis=   178 NAE=    18 NBE=    18 NFC=     5 NFV=     0
 NROrb=    173 NOA=    13 NOB=    13 NVA=   160 NVB=   160

 **** Warning!!: The largest alpha MO coefficient is  0.10844477D+02

 Semi-Direct transformation.
 ModeAB=           2 MOrb=            13 LenV=     435070518
 LASXX=     16250521 LTotXX=    16250521 LenRXX=    16250521
 LTotAB=    16563741 MaxLAS=    47487635 LenRXY=    47487635
 NonZer=    48483942 LenScr=    73495040 LnRSAI=           0
 LnScr1=           0 LExtra=           0 Total=    137233196
 MaxDsk=          -1 SrtSym=           F ITran=            4
 JobTyp=0 Pass  1:  I=   1 to  13.
 (rs|ai) integrals will be sorted in core.
 Spin components of T(2) and E(2):
     alpha-alpha T2 =       0.4129825831D-01 E2=     -0.1280769549D+00
     alpha-beta  T2 =       0.2099031567D+00 E2=     -0.7024583982D+00
     beta-beta   T2 =       0.4129825831D-01 E2=     -0.1280769549D+00
 ANorm=    0.1136881556D+01
 E2 =    -0.9586123080D+00 EUMP2 =    -0.25780400169157D+03
 Keep R2 and R3 ints in memory in symmetry-blocked form, NReq=193440570.
 DD1Dir will call FoFMem   1 times, MxPair=       182
 NAB=    91 NAA=     0 NBB=     0.
 E3=        0.92837265D-02        EUMP3=      -0.25779471797D+03
 Largest amplitude= 6.34D-02
 Discarding MO integrals.
          IDoAtm=1111111
          Differentiating once with respect to electric field.
                with respect to dipole field.
          Differentiating once with respect to nuclear coordinates.
 Keep R1 ints in memory in symmetry-blocked form, NReq=191410634.
          There are     1 degrees of freedom in the 1st order CPHF.  IDoFFX=0 NUNeed=     1.
 LinEq1:  Iter=  0 NonCon=     1 RMS=2.76D-03 Max=3.80D-02 NDo=     1
 AX will form     1 AO Fock derivatives at one time.
 LinEq1:  Iter=  1 NonCon=     1 RMS=8.89D-04 Max=1.31D-02 NDo=     1
 LinEq1:  Iter=  2 NonCon=     1 RMS=2.79D-04 Max=7.30D-03 NDo=     1
 LinEq1:  Iter=  3 NonCon=     1 RMS=9.12D-05 Max=1.46D-03 NDo=     1
 LinEq1:  Iter=  4 NonCon=     1 RMS=3.04D-05 Max=8.25D-04 NDo=     1
 LinEq1:  Iter=  5 NonCon=     1 RMS=1.16D-05 Max=2.51D-04 NDo=     1
 LinEq1:  Iter=  6 NonCon=     1 RMS=2.99D-06 Max=5.71D-05 NDo=     1
 LinEq1:  Iter=  7 NonCon=     1 RMS=1.72D-06 Max=4.26D-05 NDo=     1
 LinEq1:  Iter=  8 NonCon=     1 RMS=5.77D-07 Max=1.07D-05 NDo=     1
 LinEq1:  Iter=  9 NonCon=     1 RMS=2.50D-07 Max=5.60D-06 NDo=     1
 LinEq1:  Iter= 10 NonCon=     1 RMS=8.34D-08 Max=9.05D-07 NDo=     1
 LinEq1:  Iter= 11 NonCon=     1 RMS=2.64D-08 Max=4.50D-07 NDo=     1
 LinEq1:  Iter= 12 NonCon=     1 RMS=1.06D-08 Max=1.32D-07 NDo=     1
 LinEq1:  Iter= 13 NonCon=     1 RMS=3.12D-09 Max=5.02D-08 NDo=     1
 LinEq1:  Iter= 14 NonCon=     1 RMS=5.25D-10 Max=8.80D-09 NDo=     1
 LinEq1:  Iter= 15 NonCon=     1 RMS=9.99D-11 Max=1.85D-09 NDo=     1
 LinEq1:  Iter= 16 NonCon=     0 RMS=1.68D-11 Max=2.17D-10 NDo=     1
 Linear equations converged to 1.000D-10 1.000D-09 after    16 iterations.
 End of Minotr F.D. properties file   721 does not exist.
 End of Minotr F.D. properties file   722 does not exist.
 End of Minotr F.D. properties file   788 does not exist.
 Calling FoFJK, ICntrl=  10002127 FMM=F ISym2X=1 I1Cent= 0 IOpClX= 0 NMat=1 NMatS=1 NMatT=0.
 ***** Axes restored to original set *****
 -------------------------------------------------------------------
 Center     Atomic                   Forces (Hartrees/Bohr)
 Number     Number              X              Y              Z
 -------------------------------------------------------------------
      1        6           0.010697653    0.001838303    0.000000000
      2        7          -0.000364278    0.006809085    0.000000000
      3        7          -0.009800005    0.000118539    0.000000000
      4        7          -0.003946895   -0.005934745    0.000000000
      5        7           0.002852244   -0.003326945    0.000000000
      6        1           0.000676260    0.000042053    0.000000000
      7        1          -0.000114980    0.000453710    0.000000000
 -------------------------------------------------------------------
 Cartesian Forces:  Max     0.010697653 RMS     0.003970431
 -----------------------------------------------------------------------------------------------
                       Internal Coordinate Forces (Hartree/Bohr or radian)
  Cent   Atom   N1       Length/X         N2         Alpha/Y        N3         Beta/Z          J
 -----------------------------------------------------------------------------------------------
         X 
         X        1   0.000000(     1)
      1  C        1   0.011369(     2)      2   0.000000(     9)
      2  N        1  -0.007156(     3)      2   0.000000(    10)      3  -0.003139(    16)     0
      3  N        1   0.007477(     4)      2   0.000000(    11)      3   0.015441(    17)     0
      4  N        1   0.001253(     5)      2   0.000000(    12)      3  -0.015301(    18)     0
      5  N        1  -0.002793(     6)      2   0.000000(    13)      3   0.006558(    19)     0
      6  H        3   0.000678(     7)      4   0.000013(    14)      5   0.000000(    20)     0
      7  H        4  -0.000467(     8)      5   0.000046(    15)      6   0.000000(    21)     0
 -----------------------------------------------------------------------------------------------
 Internal  Forces:  Max     0.015440887 RMS     0.006062589

 GradGradGradGradGradGradGradGradGradGradGradGradGradGradGradGradGradGrad
 Berny optimization.
 Search for a local minimum.
 Step number   4 out of a maximum of   22
 All quantities printed in internal units (Hartrees-Bohrs-Radians)
 Update second derivatives using D2CorN and points    1    2    4    3
 The second derivative matrix:
                          rn1       rn2       rn3       rn4       rch
           rn1          0.67717
           rn2          0.01804   0.66399
           rn3          0.05635   0.03538   0.54325
           rn4          0.06321   0.00200   0.12252   0.64245
           rch          0.00429  -0.00209   0.00002   0.00228   0.37590
           rnh          0.00792  -0.00555  -0.00259   0.00233   0.00097
           an1          0.03477  -0.73894   0.05410  -0.07113   0.00437
           an2          0.69657  -0.20918  -0.59733   0.13912   0.01689
           an3         -0.00756   0.96172  -0.04409  -0.64558  -0.01130
[...]
     3   7     0.00   0.00  -0.08     0.00   0.00   0.09     0.00   0.00   0.41
     4   7     0.00   0.00   0.01     0.00   0.00   0.05     0.00   0.00  -0.46
     5   7     0.00   0.00   0.02     0.00   0.00  -0.18     0.00   0.00   0.30
     6   1     0.00   0.00  -0.22     0.00   0.00   0.53     0.00   0.00  -0.07
     7   1     0.00   0.00  -0.94     0.00   0.00  -0.80     0.00   0.00  -0.71
                      4                      5                      6
                     A"                     A'                     A'
 Frequencies --    903.1090              1001.1139              1036.0482
 Red. masses --      1.3578                 4.9311                 7.3147
 Frc consts  --      0.6525                 2.9118                 4.6260
 IR Inten    --     17.8843                 1.8394                 1.6163
  Atom  AN      X      Y      Z        X      Y      Z        X      Y      Z
     1   6     0.00   0.00   0.17     0.09   0.11   0.00    -0.40  -0.08   0.00
     2   7     0.00   0.00  -0.03     0.09   0.05   0.00    -0.03   0.41   0.00
     3   7     0.00   0.00   0.00     0.17  -0.14   0.00     0.18  -0.01   0.00
     4   7     0.00   0.00  -0.02     0.04  -0.19   0.00     0.26  -0.07   0.00
     5   7     0.00   0.00  -0.03    -0.37   0.23   0.00    -0.05  -0.26   0.00
     6   1     0.00   0.00  -0.98     0.32  -0.63   0.00    -0.32  -0.44   0.00
     7   1     0.00   0.00  -0.05    -0.43   0.02   0.00     0.07   0.43   0.00
                      7                      8                      9
                     A'                     A'                     A'
 Frequencies --   1095.8387              1121.6978              1177.8923
 Red. masses --      4.8522                 2.6450                 1.9324
 Frc consts  --      3.4331                 1.9608                 1.5796
 IR Inten    --     22.0575                24.3271                13.6236
  Atom  AN      X      Y      Z        X      Y      Z        X      Y      Z
     1   6    -0.09   0.04   0.00     0.01  -0.01   0.00     0.09  -0.10   0.00
     2   7    -0.06  -0.28   0.00    -0.13  -0.05   0.00    -0.13  -0.01   0.00
     3   7     0.03   0.17   0.00     0.28   0.10   0.00    -0.06   0.04   0.00
     4   7     0.34   0.06   0.00    -0.11   0.00   0.00     0.13   0.13   0.00
     5   7    -0.24  -0.01   0.00     0.02  -0.06   0.00     0.01  -0.01   0.00
     6   1    -0.30   0.64   0.00    -0.12   0.39   0.00     0.29  -0.74   0.00
     7   1     0.37  -0.27   0.00    -0.83  -0.09   0.00    -0.54  -0.04   0.00
                     10                     11                     12
                     A'                     A'                     A'
 Frequencies --   1315.5705              1357.8990              1524.9112
 Red. masses --      2.8678                 8.2593                 2.9474
 Frc consts  --      2.9243                 8.9728                 4.0381
 IR Inten    --      0.1103                15.7516                15.9531
  Atom  AN      X      Y      Z        X      Y      Z        X      Y      Z
     1   6     0.22   0.04   0.00     0.15   0.07   0.00    -0.18   0.19   0.00
     2   7     0.06   0.14   0.00    -0.16   0.05   0.00     0.23  -0.11   0.00
     3   7    -0.14  -0.03   0.00    -0.11   0.47   0.00    -0.09   0.09   0.00
     4   7     0.05  -0.01   0.00     0.01  -0.52   0.00     0.00  -0.02   0.00
     5   7    -0.12  -0.20   0.00     0.07  -0.04   0.00     0.06  -0.07   0.00
     6   1     0.04   0.72   0.00     0.32  -0.40   0.00    -0.03  -0.38   0.00
     7   1    -0.56   0.12   0.00     0.40   0.11   0.00    -0.81  -0.19   0.00
                     13                     14                     15
                     A'                     A'                     A'
 Frequencies --   1568.2928              3348.1758              3757.8841
 Red. masses --      3.7745                 1.1022                 1.0841
 Frc consts  --      5.4697                 7.2799                 9.0197
 IR Inten    --     16.6714                 1.6187               120.2768
  Atom  AN      X      Y      Z        X      Y      Z        X      Y      Z
     1   6     0.07   0.35   0.00     0.09   0.03   0.00     0.00   0.00   0.00
     2   7    -0.13  -0.06   0.00     0.00   0.00   0.00    -0.01   0.08   0.00
     3   7     0.09  -0.07   0.00     0.00   0.00   0.00     0.00   0.00   0.00
     4   7    -0.06   0.10   0.00     0.00   0.00   0.00     0.00   0.00   0.00
     5   7    -0.03  -0.24   0.00     0.00   0.00   0.00     0.00   0.00   0.00
     6   1     0.38  -0.50   0.00    -0.95  -0.30   0.00    -0.01   0.00   0.00
     7   1     0.61  -0.02   0.00     0.01   0.02   0.00     0.06  -1.00   0.00

 -------------------
 - Thermochemistry -
 -------------------
 Temperature   298.150 Kelvin.  Pressure   1.00000 Atm.
 Atom     1 has atomic number  6 and mass  12.00000
 Atom     2 has atomic number  7 and mass  14.00307
 Atom     3 has atomic number  7 and mass  14.00307
 Atom     4 has atomic number  7 and mass  14.00307
 Atom     5 has atomic number  7 and mass  14.00307
 Atom     6 has atomic number  1 and mass   1.00783
 Atom     7 has atomic number  1 and mass   1.00783
 Molecular mass:    70.02795 amu.
 Principal axes and moments of inertia in atomic units:
                           1         2         3
     Eigenvalues --   169.20493 172.40422 341.60915
           X            0.83677   0.54756   0.00000
           Y           -0.54756   0.83677   0.00000
           Z            0.00000   0.00000   1.00000
 This molecule is an asymmetric top.
 Rotational symmetry number  1.
 Rotational temperatures (Kelvin)      0.51189     0.50239     0.25355
 Rotational constants (GHZ):          10.66601    10.46808     5.28306
 Zero-point vibrational energy     127194.2 (Joules/Mol)
                                   30.40015 (Kcal/Mol)
 Warning -- explicit consideration of   1 degrees of freedom as
           vibrations may cause significant error
 Vibrational temperatures:    855.40  1016.14  1087.71  1299.37  1440.38
          (Kelvin)           1490.64  1576.67  1613.87  1694.72  1892.81
                             1953.71  2194.00  2256.42  4817.27  5406.75
 
 Zero-point correction=                           0.048446 (Hartree/Particle)
 Thermal correction to Energy=                    0.051860
 Thermal correction to Enthalpy=                  0.052804
 Thermal correction to Gibbs Free Energy=         0.022386
 Sum of electronic and zero-point Energies=           -257.746569
 Sum of electronic and thermal Energies=              -257.743155
 Sum of electronic and thermal Enthalpies=            -257.742211
 Sum of electronic and thermal Free Energies=         -257.772628
 
                     E (Thermal)             CV                S
                      KCal/Mol        Cal/Mol-Kelvin    Cal/Mol-Kelvin
 Total                   32.542             10.915             64.019
 Electronic               0.000              0.000              0.000
 Translational            0.889              2.981             38.656
 Rotational               0.889              2.981             23.814
 Vibrational             30.765              4.953              1.548
 Vibration     1          0.952              1.043              0.459
                       Q            Log10(Q)             Ln(Q)
 Total Bot       0.504636D-10        -10.297022        -23.709768
 Total V=0       0.969212D+12         11.986419         27.599749
 Vib (Bot)       0.613090D-22        -22.212475        -51.146115
 Vib (Bot)    1  0.252567D+00         -0.597624         -1.376081
 Vib (V=0)       0.117751D+01          0.070965          0.163403
 Vib (V=0)    1  0.106017D+01          0.025375          0.058429
 Electronic      0.100000D+01          0.000000          0.000000
 Translational   0.230336D+08          7.362362         16.952466
 Rotational      0.357348D+05          4.553092         10.483881
 ***** Axes restored to original set *****
 -------------------------------------------------------------------
 Center     Atomic                   Forces (Hartrees/Bohr)
 Number     Number              X              Y              Z
 -------------------------------------------------------------------
      1        6           0.000002543    0.000005261    0.000000000
      2        7          -0.000010008   -0.000000978    0.000000000
      3        7           0.000007713   -0.000002263    0.000000000
      4        7          -0.000001353    0.000001232    0.000000000
      5        7           0.000000896   -0.000002814    0.000000000
      6        1          -0.000000068   -0.000000516    0.000000000
      7        1           0.000000278    0.000000078    0.000000000
 -------------------------------------------------------------------
 Cartesian Forces:  Max     0.000010008 RMS     0.000003180
 -----------------------------------------------------------------------------------------------
                       Internal Coordinate Forces (Hartree/Bohr or radian)
  Cent   Atom   N1       Length/X         N2         Alpha/Y        N3         Beta/Z          J
 -----------------------------------------------------------------------------------------------
         X 
         X        1   0.000000(     1)
      1  C        1   0.000003(     2)      2   0.000000(     9)
      2  N        1  -0.000002(     3)      2   0.000000(    10)      3   0.000023(    16)     0
      3  N        1  -0.000004(     4)      2   0.000000(    11)      3  -0.000018(    17)     0
      4  N        1   0.000002(     5)      2   0.000000(    12)      3   0.000002(    18)     0
      5  N        1  -0.000003(     6)      2   0.000000(    13)      3   0.000002(    19)     0
      6  H        3   0.000000(     7)      4  -0.000001(    14)      5   0.000000(    20)     0
      7  H        4   0.000000(     8)      5   0.000001(    15)      6   0.000000(    21)     0
 -----------------------------------------------------------------------------------------------
 Internal  Forces:  Max     0.000022522 RMS     0.000006454

 GradGradGradGradGradGradGradGradGradGradGradGradGradGradGradGradGradGrad
 Berny optimization.
 Search for a local minimum.
 Step number   1 out of a maximum of    2
 All quantities printed in internal units (Hartrees-Bohrs-Radians)
 Second derivative matrix not updated -- analytic derivatives used.
 The second derivative matrix:
                          rn1       rn2       rn3       rn4       rch
           rn1          0.61846
           rn2         -0.04112   0.62160
           rn3          0.07876  -0.01093   0.58969
           rn4          0.10044   0.08179  -0.00844   0.59426
           rch         -0.00384  -0.00115   0.00074  -0.00434   0.39247
           rnh          0.01136  -0.00734   0.00091   0.00006   0.00032
           an1          0.10029  -0.40982  -0.21023   0.12609   0.01176
           an2          0.28758  -0.12477  -0.46465  -0.15628  -0.00041
           an3          0.23819   0.52166   0.21869  -0.27789   0.00198
           an4         -0.14110   0.16186   0.31977  -0.19306  -0.01464
           ach          0.03656   0.01301  -0.01533   0.03211   0.00237
           anh         -0.05211   0.02041   0.02492  -0.01960  -0.00115
                          rnh       an1       an2       an3       an4
           rnh          0.50104
           an1         -0.00935   2.69011
           an2          0.01723  -1.17735   3.17123
           an3         -0.00610  -0.28168  -1.52755   2.39533
           an4          0.00249  -0.22799  -0.31112  -0.34826   1.63085
           ach          0.00036  -0.00572  -0.02050  -0.00486   0.08789
           anh          0.00044  -0.03196  -0.01577   0.00365  -0.00401
                          ach       anh
           ach          0.22483
           anh          0.00116   0.22017
 ITU=  0
     Eigenvalues ---    0.00002   0.16655   0.21983   0.28346   0.39255
     Eigenvalues ---    0.50034   0.64273   0.72436   0.87076   2.02753
     Eigenvalues ---    3.08607   4.73581
 Angle between quadratic step and forces=  89.07 degrees.
 Linear search not attempted -- first point.
 Variable       Old X    -DE/DX   Delta X   Delta X   Delta X     New X
                                 (Linear)    (Quad)   (Total)
   rn1        2.30520   0.00000   0.00000   0.00025   0.00025   2.30545
   rn2        2.52445   0.00000   0.00000   0.00018   0.00018   2.52464
   rn3        2.16891   0.00000   0.00000  -0.00008  -0.00008   2.16883
   rn4        1.83926   0.00000   0.00000  -0.00027  -0.00027   1.83900
   rch        2.02550   0.00000   0.00000   0.00000   0.00000   2.02550
   rnh        1.89010   0.00000   0.00000   0.00000   0.00000   1.89010
   an1        1.28290   0.00002   0.00000  -0.00010  -0.00010   1.28281
   an2        2.38065  -0.00002   0.00000  -0.00022  -0.00022   2.38043
   an3        3.45473   0.00000   0.00000  -0.00025  -0.00025   3.45448
   an4        4.83663   0.00000   0.00000  -0.00012  -0.00012   4.83651
   ach        2.17876   0.00000   0.00000   0.00000   0.00000   2.17875
   anh        2.10502   0.00000   0.00000   0.00000   0.00000   2.10502
         Item               Value     Threshold  Converged?
 Maximum Force            0.000023     0.000450     YES
 RMS     Force            0.000008     0.000300     YES
 Maximum Displacement     0.000266     0.001800     YES
 RMS     Displacement     0.000160     0.001200     YES
 Predicted change in Energy=-1.321110D-10
 Optimization completed.
    -- Stationary point found.
                       ----------------------------
                       !   Optimized Parameters   !
                       ! (Angstroms and Degrees)  !
 ----------------------                            ----------------------
 !      Name          Value   Derivative information (Atomic Units)     !
 ------------------------------------------------------------------------
 !       rn1         1.2199   -DE/DX =    0.0                           !
 !       rn2         1.3359   -DE/DX =    0.0                           !
 !       rn3         1.1477   -DE/DX =    0.0                           !
 !       rn4         0.9733   -DE/DX =    0.0                           !
 !       rch         1.0718   -DE/DX =    0.0                           !
 !       rnh         1.0002   -DE/DX =    0.0                           !
 !       an1        73.505    -DE/DX =    0.0                           !
 !       an2       136.4011   -DE/DX =    0.0                           !
 !       an3       197.9415   -DE/DX =    0.0                           !
 !       an4       277.1184   -DE/DX =    0.0                           !
 !       ach       124.8336   -DE/DX =    0.0                           !
 !       anh       120.6089   -DE/DX =    0.0                           !
 ------------------------------------------------------------------------
 GradGradGradGradGradGradGradGradGradGradGradGradGradGradGradGradGradGrad

 1\1\GINC-N238\Freq\RMP3-FC\CC-pVTZ\C1H2N4\RDJ3\26-Nov-2013\1\\#N Geom=
 AllCheck Guess=TCheck SCRF=Check GenChk RMP3(FC)/CC-pVTZ Freq\\1H-tetr
 azole CH2N4 casno=288948 state=1 config=1 method=62 basis=6\\0,1\X\X,1
 ,1.\C,1,1.,2,90.\N,1,rn1,2,90.,3,an1,0\N,1,rn2,2,90.,3,an2,0\N,1,rn3,2
 ,90.,3,an3,0\N,1,rn4,2,90.,3,an4,0\H,3,rch,4,ach,5,180.,0\H,4,rnh,5,an
 h,6,180.,0\\rn1=1.21986169\rn2=1.33588398\rn3=1.14773588\rn4=0.9732963
 1\rch=1.07184796\rnh=1.00019763\an1=73.50497956\an2=136.40107717\an3=1
 97.94149131\an4=277.11843071\ach=124.83358896\anh=120.60892827\\Versio
 n=EM64L-G09RevD.01\State=1-A'\HF=-256.8455491\MP2=-257.8042363\MP3=-25
 7.7950149\RMSD=3.475e-09\RMSF=3.180e-06\ZeroPoint=0.0484457\Thermal=0.
 0518596\Dipole=1.6263572,-1.3437156,0.\DipoleDeriv=0.2134348,0.0942609
 ,0.,-0.0688758,0.506857,0.,0.,0.,0.0854724,-0.274903,0.2198121,0.,0.21
 87434,-0.4312161,0.,0.,0.,-0.1233282,0.1357767,-0.3211657,0.,-0.317798
 6,-0.1526878,0.,0.,0.,-0.0984042,0.0942899,0.1072763,0.,0.1990334,-0.0
 484435,0.,0.,0.,-0.1534648,-0.4387254,-0.0660969,0.,-0.0102844,-0.2992
 173,0.,0.,0.,-0.2136299,0.0637195,0.0097382,0.,0.0057417,0.1113591,0.,
 0.,0.,0.1701845,0.2057934,-0.0441265,0.,-0.026398,0.3133658,0.,0.,0.,0
 .3333995\Quadrupole=0.5385588,-0.1804143,-0.3581445,-1.6159389,0.,0.\Q
 uadrupoleDeriv=2.4915842,-1.5800929,-0.9114913,0.6571668,0.,0.,0.33146
 07,-0.3490824,0.0176216,1.2745875,0.,0.,0.,0.,0.,0.,-0.1892106,0.00180
 84,0.6397883,-0.5163251,-0.1234632,-0.6063453,0.,0.,0.5913273,-0.91996
 35,0.3286362,0.3792271,0.,0.,0.,0.,0.,0.,-0.4770665,0.7409698,-1.35733
 94,1.1222759,0.2350634,-1.2898358,0.,0.,0.4767772,-0.7470029,0.2702258
 ,-0.4533688,0.,0.,0.,0.,0.,0.,0.5858979,0.6265372,-1.1610788,0.8887391
 ,0.2723397,0.7635876,0.,0.,-0.7023854,0.9503568,-0.2479714,-1.0096444,
 0.,0.,0.,0.,0.,0.,0.7310117,-0.4272225,0.2047038,-0.3719797,0.1672759,
 0.2372383,0.,0.,-0.5831607,0.7723918,-0.1892312,0.161873,0.,0.,0.,0.,0
 .,0.,-0.4217758,-0.9934566,0.7444376,-0.3194287,-0.425009,0.1148582,0.
 ,0.,-0.0928008,0.1807499,-0.0879491,0.8265079,0.,0.,0.,0.,0.,0.,0.8522
 346,0.0888942,0.6076649,-0.3087197,-0.2989452,-1.2200495,0.,0.,0.87554
 45,-1.6800564,0.8045119,0.4482837,0.,0.,0.,0.,0.,0.,0.544613,-1.382088
 4\PG=CS [SG(C1H2N4)]\NImag=0\\1.00231269,0.00276683,0.66686613,0.,0.,0
 .15071666,-0.18304793,-0.09898558,0.,0.63694180,-0.11458033,-0.2952394
 7,0.,-0.10364195,1.06223223,0.,0.,-0.06528877,0.,0.,0.09548921,-0.0994
 5746,-0.07897884,0.,-0.27337534,-0.02880094,0.,0.51292001,0.00537871,-
 0.03085382,0.,0.01705576,-0.10987793,0.,0.06518818,0.62477228,0.,0.,0.
 02147446,0.,0.,-0.07127574,0.,0.,0.12063822,-0.12144086,0.07722664,0.,
 -0.06918223,0.03394704,0.,-0.12437903,-0.00270531,0.,0.52294846,-0.027
 49699,0.03753638,0.,0.11276610,-0.10910212,0.,0.05954883,-0.38514247,0
 .,-0.10528483,0.57593172,0.,0.,0.01929493,0.,0.,0.02780886,0.,0.,-0.10
 152632,0.,0.,0.12950945,-0.24185514,0.14489266,0.,0.01102497,0.0880639
 9,0.,-0.01977401,-0.12269923,0.,-0.19471207,-0.04469945,0.,0.45799748,
 0.15049435,-0.30696595,0.,-0.02538936,-0.10616723,0.,-0.01565042,-0.09
 437853,0.,-0.00736676,-0.11987891,0.,-0.08794974,0.61835617,0.,0.,-0.0
 8290991,0.,0.,0.02234796,0.,0.,0.03706661,0.,0.,-0.09307589,0.,0.,0.11
 356928,-0.37451319,-0.03463491,0.,-0.00304282,0.00320443,0.,0.00103592
 ,0.00092457,0.,-0.00109126,0.00142369,0.,-0.01088712,-0.00455767,0.,0.
 38898222,-0.03108576,-0.06488103,0.,-0.03281492,0.00460640,0.,-0.00175
 163,-0.00705375,0.,0.00678448,-0.00326030,0.,0.02442336,0.01242203,0.,
 0.03414780,0.05828616,0.,0.,-0.03372765,0.,0.,-0.00205349,0.,0.,0.0065
 0984,0.,0.,0.00952980,0.,0.,-0.00461533,0.,0.,0.02532043,0.01800682,-0
 .01230096,0.,-0.11932347,0.12180500,0.,0.00306014,0.03680299,0.,-0.012
 12355,0.00379873,0.,-0.00182452,-0.00958095,0.,-0.00049483,0.00029887,
 0.,0.11269131,0.01452425,-0.00653962,0.,0.13102034,-0.44639577,0.,0.00
 042753,0.00250279,0.,-0.00254783,0.00392528,0.,-0.00209453,-0.00335156
 ,0.,-0.00049635,-0.00011408,0.,-0.14081990,0.44997462,0.,0.,-0.0095641
 8,0.,0.,-0.00703564,0.,0.,-0.01286275,0.,0.,0.00846225,0.,0.,0.0075886
 4,0.,0.,-0.00095996,0.,0.,0.01438132\\-0.00000254,-0.00000526,0.,0.000
 01001,0.00000098,0.,-0.00000771,0.00000226,0.,0.00000135,-0.00000123,0
 .,-0.00000090,0.00000281,0.,0.00000007,0.00000052,0.,-0.00000028,-0.00
 000008,0.\\\@


            ARSENIC

 FOR SMELTER FUMES HAVE I BEEN NAMED,
    I AM AN EVIL POISONOUS SMOKE...
 BUT WHEN FROM POISON I AM FREED,
    THROUGH ART AND SLEIGHT OF HAND,
 THEN CAN I CURE BOTH MAN AND BEAST,
    FROM DIRE DISEASE OFTTIMES DIRECT THEM;
 BUT PREPARE ME CORRECTLY, AND TAKE GREAT CARE
    THAT YOU FAITHFULLY KEEP WATCHFUL GUARD OVER ME;
 FOR ELSE I AM POISON, AND POISON REMAIN,
    THAT PIERCES THE HEART OF MANY A ONE.

 ATTRIBUTED TO THE PROBABLY MYTHICAL 15TH
 CENTURY MONK, BASILIUS VALENTINUS
 Job cpu time:       5 days  0 hours 10 minutes 45.1 seconds.
 File lengths (MBytes):  RWF=  21673 Int=      0 D2E=      0 Chk=     43 Scr=      1
 Normal termination of Gaussian 09 at Tue Nov 26 18:11:26 2013.
