 Entering Gaussian System, Link 0=g09
 Initial command:
 /usr/local/gaussian/g09.d01.em64t.legacy.linda/g09/l1.exe "/tmp/rdj3/g09-16643/Gau-26344.inp" -scrdir="/tmp/rdj3/g09-16643/"
 Entering Link 1 = /usr/local/gaussian/g09.d01.em64t.legacy.linda/g09/l1.exe PID=     26345.
  
 Copyright (c) 1988,1990,1992,1993,1995,1998,2003,2009,2013,
            Gaussian, Inc.  All Rights Reserved.
  
 This is part of the Gaussian(R) 09 program.  It is based on
 the Gaussian(R) 03 system (copyright 2003, Gaussian, Inc.),
 the Gaussian(R) 98 system (copyright 1998, Gaussian, Inc.),
 the Gaussian(R) 94 system (copyright 1995, Gaussian, Inc.),
 the Gaussian 92(TM) system (copyright 1992, Gaussian, Inc.),
 the Gaussian 90(TM) system (copyright 1990, Gaussian, Inc.),
 the Gaussian 88(TM) system (copyright 1988, Gaussian, Inc.),
 the Gaussian 86(TM) system (copyright 1986, Carnegie Mellon
 University), and the Gaussian 82(TM) system (copyright 1983,
 Carnegie Mellon University). Gaussian is a federally registered
 trademark of Gaussian, Inc.
  
 This software contains proprietary and confidential information,
 including trade secrets, belonging to Gaussian, Inc.
  
 This software is provided under written license and may be
 used, copied, transmitted, or stored only in accord with that
 written license.
  
 The following legend is applicable only to US Government
 contracts under FAR:
  
                    RESTRICTED RIGHTS LEGEND
  
 Use, reproduction and disclosure by the US Government is
 subject to restrictions as set forth in subparagraphs (a)
 and (c) of the Commercial Computer Software - Restricted
 Rights clause in FAR 52.227-19.
  
 Gaussian, Inc.
 340 Quinnipiac St., Bldg. 40, Wallingford CT 06492
  
  
 ---------------------------------------------------------------
 Warning -- This program may not be used in any manner that
 competes with the business of Gaussian, Inc. or will provide
 assistance to any competitor of Gaussian, Inc.  The licensee
 of this program is prohibited from giving any competitor of
 Gaussian, Inc. access to this program.  By using this program,
 the user acknowledges that Gaussian, Inc. is engaged in the
 business of creating and licensing software in the field of
 computational chemistry and represents and warrants to the
 licensee that it is not a competitor of Gaussian, Inc. and that
 it will not use this program in any manner prohibited above.
 ---------------------------------------------------------------
  

 Cite this work as:
 Gaussian 09, Revision D.01,
 M. J. Frisch, G. W. Trucks, H. B. Schlegel, G. E. Scuseria, 
 M. A. Robb, J. R. Cheeseman, G. Scalmani, V. Barone, B. Mennucci, 
 G. A. Petersson, H. Nakatsuji, M. Caricato, X. Li, H. P. Hratchian, 
 A. F. Izmaylov, J. Bloino, G. Zheng, J. L. Sonnenberg, M. Hada, 
 M. Ehara, K. Toyota, R. Fukuda, J. Hasegawa, M. Ishida, T. Nakajima, 
 Y. Honda, O. Kitao, H. Nakai, T. Vreven, J. A. Montgomery, Jr., 
 J. E. Peralta, F. Ogliaro, M. Bearpark, J. J. Heyd, E. Brothers, 
 K. N. Kudin, V. N. Staroverov, T. Keith, R. Kobayashi, J. Normand, 
 K. Raghavachari, A. Rendell, J. C. Burant, S. S. Iyengar, J. Tomasi, 
 M. Cossi, N. Rega, J. M. Millam, M. Klene, J. E. Knox, J. B. Cross, 
 V. Bakken, C. Adamo, J. Jaramillo, R. Gomperts, R. E. Stratmann, 
 O. Yazyev, A. J. Austin, R. Cammi, C. Pomelli, J. W. Ochterski, 
 R. L. Martin, K. Morokuma, V. G. Zakrzewski, G. A. Voth, 
 P. Salvador, J. J. Dannenberg, S. Dapprich, A. D. Daniels, 
 O. Farkas, J. B. Foresman, J. V. Ortiz, J. Cioslowski, 
 and D. J. Fox, Gaussian, Inc., Wallingford CT, 2013.
 
 ******************************************
 Gaussian 09:  EM64L-G09RevD.01 24-Apr-2013
                 4-Dec-2013 
 ******************************************
 %Nproc=8
 Will use up to    8 processors via shared memory.
 %mem=436000000
 ---------------------------------------------------------
 #B3LYP/cc-pVDZ integral(grid=ultrafine) opt=z-matrix freq
 ---------------------------------------------------------
 1/10=7,14=-1,18=40,26=4,38=1/1,3;
 2/12=2,17=6,18=5,29=3,40=1/2;
 3/5=16,11=2,16=1,25=1,30=1,71=1,74=-5,75=-5/1,2,3;
 4//1;
 5/5=2,38=5/2;
 6/7=2,8=2,9=2,10=2,28=1/1;
 7/29=1/1,2,3,16;
 1/10=7,14=-1,18=40,26=4/3(2);
 2/29=3/2;
 99//99;
 2/29=3/2;
 3/5=16,11=2,16=1,25=1,30=1,71=1,74=-5,75=-5/1,2,3;
 4/5=5,16=3,69=1/1;
 5/5=2,38=5/2;
 7//1,2,3,16;
 1/14=-1,18=40,26=4/3(-5);
 2/29=3/2;
 6/7=2,8=2,9=2,10=2,19=2,28=1/1;
 99/9=1/99;
 ------------------------------------------------------------------
 1H-tetrazole CH2N4 casno=288948 state=1 config=1 method=68 basis=5
 ------------------------------------------------------------------
 Symbolic Z-matrix:
 Charge =  0 Multiplicity = 1
 X
 X                    1     1. 
 C                    1     1.       2     90. 
 N                    1    rn1      2     90.      3    an1      0
 N                    1    rn2      2     90.      3    an2      0
 N                    1    rn3      2     90.      3    an3      0
 N                    1    rn4      2     90.      3    an4      0
 H                    3    rch      4    ach      5     180.     0
 H                    4    rnh      5    anh      6     180.     0
       Variables:
  rn1                   1.2426                   
  rn2                   1.333                    
  rn3                   1.1146                   
  rn4                   0.9264                   
  rch                   1.0678                   
  rnh                   0.9941                   
  an1                  71.8427                   
  an2                 133.7028                   
  an3                 194.4597                   
  an4                 276.0768                   
  ach                 125.0248                   
  anh                 120.7626                   
 

 GradGradGradGradGradGradGradGradGradGradGradGradGradGradGradGradGradGrad
 Berny optimization.
 Initialization pass.
                       ----------------------------
                       !    Initial Parameters    !
                       ! (Angstroms and Degrees)  !
 ----------------------                            ----------------------
 !      Name          Value   Derivative information (Atomic Units)     !
 ------------------------------------------------------------------------
 !       rn1         1.2426   estimate D2E/DX2                          !
 !       rn2         1.333    estimate D2E/DX2                          !
 !       rn3         1.1146   estimate D2E/DX2                          !
 !       rn4         0.9264   estimate D2E/DX2                          !
 !       rch         1.0678   estimate D2E/DX2                          !
 !       rnh         0.9941   estimate D2E/DX2                          !
 !       an1        71.8427   estimate D2E/DX2                          !
 !       an2       133.7028   estimate D2E/DX2                          !
 !       an3       194.4597   estimate D2E/DX2                          !
 !       an4       276.0768   estimate D2E/DX2                          !
 !       ach       125.0248   estimate D2E/DX2                          !
 !       anh       120.7626   estimate D2E/DX2                          !
 ------------------------------------------------------------------------
 Trust Radius=3.00D-01 FncErr=1.00D-07 GrdErr=1.00D-06
 Number of steps in this run=     22 maximum allowed number of steps=    100.
 GradGradGradGradGradGradGradGradGradGradGradGradGradGradGradGradGradGrad

 ---------------------------------------------------------------------------------------------------
                            Z-MATRIX (ANGSTROMS AND DEGREES)
   CD    Cent   Atom    N1       Length/X        N2       Alpha/Y        N3        Beta/Z          J
 ---------------------------------------------------------------------------------------------------
      1         X 
      2         X        1   1.000000(     1)
      3      1  C        1   1.000000(     2)      2   90.000(     9)
      4      2  N        1   1.242600(     3)      2   90.000(    10)      3   71.843(    16)      0
      5      3  N        1   1.333000(     4)      2   90.000(    11)      3  133.703(    17)      0
      6      4  N        1   1.114600(     5)      2   90.000(    12)      3  194.460(    18)      0
      7      5  N        1   0.926400(     6)      2   90.000(    13)      3  276.077(    19)      0
      8      6  H        3   1.067800(     7)      4  125.025(    14)      5  180.000(    20)      0
      9      7  H        4   0.994100(     8)      5  120.763(    15)      6  180.000(    21)      0
 ---------------------------------------------------------------------------------------------------
                         Z-Matrix orientation:                         
 ---------------------------------------------------------------------
 Center     Atomic      Atomic             Coordinates (Angstroms)
 Number     Number       Type             X           Y           Z
 ---------------------------------------------------------------------
      1         -1           0        0.000000    0.000000    0.000000
      2         -1           0        0.000000    0.000000    1.000000
      3          6           0        1.000000    0.000000    0.000000
      4          7           0        0.387228   -1.180724    0.000000
      5          7           0       -0.920993   -0.963670    0.000000
      6          7           0       -1.079293    0.278314    0.000000
      7          7           0        0.098070    0.921194    0.000000
      8          1           0        2.058429    0.141157    0.000000
      9          1           0        0.749017   -2.106652    0.000000
 ---------------------------------------------------------------------
                    Distance matrix (angstroms):
                    1          2          3          4          5
     1  X    0.000000
     2  X    1.000000   0.000000
     3  C    1.000000   1.414214   0.000000
     4  N    1.242600   1.595009   1.330263   0.000000
     5  N    1.333000   1.666400   2.149157   1.326105   0.000000
     6  N    1.114600   1.497442   2.097837   2.068690   1.252032
     7  N    0.926400   1.363164   1.289216   2.121715   2.142710
     8  H    2.063263   2.292827   1.067800   2.130794   3.177672
     9  H    2.235847   2.449288   2.121551   0.994100   2.023695
                    6          7          8          9
     6  N    0.000000
     7  N    1.341447   0.000000
     8  H    3.140719   2.109850   0.000000
     9  H    3.005127   3.097029   2.601385   0.000000
 Stoichiometry    CH2N4
 Framework group  CS[SG(CH2N4)]
 Deg. of freedom    11
 Full point group                 CS      NOp   2
 Largest Abelian subgroup         CS      NOp   2
 Largest concise Abelian subgroup C1      NOp   1
                         Standard orientation:                         
 ---------------------------------------------------------------------
 Center     Atomic      Atomic             Coordinates (Angstroms)
 Number     Number       Type             X           Y           Z
 ---------------------------------------------------------------------
      1          6           0        1.052733    0.225621    0.000000
      2          7           0        0.000000    1.038857    0.000000
      3          7           0       -1.095416    0.291448    0.000000
      4          7           0       -0.716382   -0.901832    0.000000
      5          7           0        0.622191   -0.989579    0.000000
      6          1           0        2.072287    0.542964    0.000000
      7          1           0       -0.061439    2.031056    0.000000
 ---------------------------------------------------------------------
 Rotational constants (GHZ):     10.9201517     10.7345054      5.4132664
 Standard basis: CC-pVDZ (5D, 7F)
 There are    63 symmetry adapted cartesian basis functions of A'  symmetry.
 There are    22 symmetry adapted cartesian basis functions of A"  symmetry.
 There are    58 symmetry adapted basis functions of A'  symmetry.
 There are    22 symmetry adapted basis functions of A"  symmetry.
    80 basis functions,   179 primitive gaussians,    85 cartesian basis functions
    18 alpha electrons       18 beta electrons
       nuclear repulsion energy       169.8308489506 Hartrees.
 NAtoms=    7 NActive=    7 NUniq=    7 SFac= 1.00D+00 NAtFMM=   60 NAOKFM=F Big=F
 Integral buffers will be    131072 words long.
 Raffenetti 2 integral format.
 Two-electron integral symmetry is turned on.
 One-electron integrals computed using PRISM.
 NBasis=    80 RedAO= T EigKep=  5.85D-03  NBF=    58    22
 NBsUse=    80 1.00D-06 EigRej= -1.00D+00 NBFU=    58    22
 ExpMin= 1.22D-01 ExpMax= 9.05D+03 ExpMxC= 3.09D+02 IAcc=3 IRadAn=         5 AccDes= 0.00D+00
 Harris functional with IExCor=  402 and IRadAn=       5 diagonalized for initial guess.
 HarFok:  IExCor=  402 AccDes= 0.00D+00 IRadAn=         5 IDoV= 1 UseB2=F ITyADJ=14
 ICtDFT=  3500011 ScaDFX=  1.000000  1.000000  1.000000  1.000000
 FoFCou: FMM=F IPFlag=           0 FMFlag=      100000 FMFlg1=           0
         NFxFlg=           0 DoJE=T BraDBF=F KetDBF=T FulRan=T
         wScrn=  0.000000 ICntrl=     500 IOpCl=  0 I1Cent=   200000004 NGrid=           0
         NMat0=    1 NMatS0=      1 NMatT0=    0 NMatD0=    1 NMtDS0=    0 NMtDT0=    0
 Petite list used in FoFCou.
 Initial guess orbital symmetries:
       Occupied  (A') (A') (A') (A') (A') (A') (A') (A') (A') (A')
                 (A') (A') (A") (A') (A") (A') (A") (A')
       Virtual   (A") (A") (A') (A') (A') (A') (A') (A') (A') (A')
                 (A") (A') (A') (A') (A') (A') (A") (A') (A") (A')
                 (A') (A") (A") (A') (A') (A") (A') (A") (A') (A')
                 (A') (A") (A') (A") (A') (A") (A') (A') (A') (A")
                 (A') (A") (A') (A') (A') (A") (A') (A") (A') (A')
                 (A') (A") (A") (A') (A') (A") (A') (A') (A') (A')
                 (A') (A')
 The electronic state of the initial guess is 1-A'.
 Keep R1 ints in memory in symmetry-blocked form, NReq=8043961.
 Requested convergence on RMS density matrix=1.00D-08 within 128 cycles.
 Requested convergence on MAX density matrix=1.00D-06.
 Requested convergence on             energy=1.00D-06.
 No special actions if energy rises.
 Integral accuracy reduced to 1.0D-05 until final iterations.
 Initial convergence to 1.0D-05 achieved.  Increase integral accuracy.
 SCF Done:  E(RB3LYP) =  -258.267308210     A.U. after   14 cycles
            NFock= 14  Conv=0.37D-08     -V/T= 2.0041

 **********************************************************************

            Population analysis using the SCF density.

 **********************************************************************

 Orbital symmetries:
       Occupied  (A') (A') (A') (A') (A') (A') (A') (A') (A') (A')
                 (A') (A") (A') (A') (A") (A") (A') (A')
       Virtual   (A") (A") (A') (A') (A') (A') (A') (A') (A') (A")
                 (A') (A') (A') (A') (A') (A") (A') (A') (A") (A')
                 (A') (A") (A") (A') (A') (A") (A') (A") (A') (A')
                 (A') (A") (A') (A") (A') (A") (A') (A') (A') (A")
                 (A") (A') (A') (A') (A') (A") (A') (A") (A') (A')
                 (A") (A') (A") (A') (A') (A") (A') (A') (A') (A')
                 (A') (A')
 The electronic state is 1-A'.
 Alpha  occ. eigenvalues --  -14.43816 -14.39923 -14.38044 -14.35205 -10.27223
 Alpha  occ. eigenvalues --   -1.16950  -0.95877  -0.90861  -0.68741  -0.67464
 Alpha  occ. eigenvalues --   -0.60628  -0.51074  -0.50549  -0.38285  -0.33624
 Alpha  occ. eigenvalues --   -0.31638  -0.29973  -0.28393
 Alpha virt. eigenvalues --   -0.01196   0.02620   0.03555   0.08159   0.19197
 Alpha virt. eigenvalues --    0.20073   0.26532   0.31551   0.39405   0.45032
 Alpha virt. eigenvalues --    0.45364   0.54467   0.57769   0.59772   0.65115
 Alpha virt. eigenvalues --    0.69167   0.70653   0.71102   0.72789   0.76034
 Alpha virt. eigenvalues --    0.79654   0.81804   0.86312   0.88663   0.94400
 Alpha virt. eigenvalues --    0.96245   1.03394   1.12235   1.12543   1.14177
 Alpha virt. eigenvalues --    1.22613   1.26145   1.38321   1.46753   1.47261
 Alpha virt. eigenvalues --    1.49433   1.51570   1.55855   1.66723   1.72978
 Alpha virt. eigenvalues --    1.78128   1.79732   1.90625   1.92666   2.06876
 Alpha virt. eigenvalues --    2.16184   2.18195   2.21683   2.27266   2.32807
 Alpha virt. eigenvalues --    2.45646   2.45837   2.52004   2.54271   2.60267
 Alpha virt. eigenvalues --    2.65537   2.69547   2.71997   2.81791   3.03714
 Alpha virt. eigenvalues --    3.10863   3.35587
          Condensed to atoms (all electrons):
               1          2          3          4          5          6
     1  C    4.689312   0.436491  -0.105276  -0.133247   0.559066   0.394289
     2  N    0.436491   6.059804   0.319633  -0.102066  -0.060426  -0.025483
     3  N   -0.105276   0.319633   6.557180   0.429671  -0.114145   0.004383
     4  N   -0.133247  -0.102066   0.429671   6.483937   0.398375   0.003004
     5  N    0.559066  -0.060426  -0.114145   0.398375   6.394424  -0.016505
     6  H    0.394289  -0.025483   0.004383   0.003004  -0.016505   0.609164
     7  H   -0.032874   0.376309  -0.022031   0.007935   0.007762  -0.002486
               7
     1  C   -0.032874
     2  N    0.376309
     3  N   -0.022031
     4  N    0.007935
     5  N    0.007762
     6  H   -0.002486
     7  H    0.561420
 Mulliken charges:
               1
     1  C    0.192239
     2  N   -0.004263
     3  N   -0.069415
     4  N   -0.087610
     5  N   -0.168551
     6  H    0.033634
     7  H    0.103965
 Sum of Mulliken charges =   0.00000
 Mulliken charges with hydrogens summed into heavy atoms:
               1
     1  C    0.225872
     2  N    0.099702
     3  N   -0.069415
     4  N   -0.087610
     5  N   -0.168551
 Electronic spatial extent (au):  <R**2>=            243.5790
 Charge=              0.0000 electrons
 Dipole moment (field-independent basis, Debye):
    X=              2.3234    Y=              4.5859    Z=              0.0000  Tot=              5.1409
 Quadrupole moment (field-independent basis, Debye-Ang):
   XX=            -28.6276   YY=            -26.0843   ZZ=            -27.6009
   XY=              1.6401   XZ=              0.0000   YZ=              0.0000
 Traceless Quadrupole moment (field-independent basis, Debye-Ang):
   XX=             -1.1900   YY=              1.3533   ZZ=             -0.1633
   XY=              1.6401   XZ=              0.0000   YZ=              0.0000
 Octapole moment (field-independent basis, Debye-Ang**2):
  XXX=             10.2183  YYY=             20.5003  ZZZ=              0.0000  XYY=             -0.6934
  XXY=              4.0665  XXZ=              0.0000  XZZ=             -0.8799  YZZ=              0.4562
  YYZ=              0.0000  XYZ=              0.0000
 Hexadecapole moment (field-independent basis, Debye-Ang**3):
 XXXX=           -138.0668 YYYY=           -116.2439 ZZZZ=            -23.6602 XXXY=              5.5285
 XXXZ=              0.0000 YYYX=             -0.6648 YYYZ=              0.0000 ZZZX=              0.0000
 ZZZY=              0.0000 XXYY=            -51.1004 XXZZ=            -28.8184 YYZZ=            -26.9752
 XXYZ=              0.0000 YYXZ=              0.0000 ZZXY=             -0.1879
 N-N= 1.698308489506D+02 E-N=-9.427587716623D+02  KE= 2.572124775109D+02
 Symmetry A'   KE= 2.477083720147D+02
 Symmetry A"   KE= 9.504105496166D+00
 Calling FoFJK, ICntrl=      2127 FMM=F ISym2X=1 I1Cent= 0 IOpClX= 0 NMat=1 NMatS=1 NMatT=0.
 ***** Axes restored to original set *****
 -------------------------------------------------------------------
 Center     Atomic                   Forces (Hartrees/Bohr)
 Number     Number              X              Y              Z
 -------------------------------------------------------------------
      1        6           0.021227740   -0.004477150    0.000000000
      2        7           0.007527360   -0.009596803    0.000000000
      3        7          -0.020221156   -0.045119734    0.000000000
      4        7          -0.027145825    0.036546394    0.000000000
      5        7          -0.002265307    0.038041836    0.000000000
      6        1           0.013907141    0.001627307    0.000000000
      7        1           0.006970047   -0.017021849    0.000000000
 -------------------------------------------------------------------
 Cartesian Forces:  Max     0.045119734 RMS     0.018417559
 -----------------------------------------------------------------------------------------------
                       Internal Coordinate Forces (Hartree/Bohr or radian)
  Cent   Atom   N1       Length/X         N2         Alpha/Y        N3         Beta/Z          J
 -----------------------------------------------------------------------------------------------
         X 
         X        1   0.000000(     1)
      1  C        1   0.035295(     2)      2   0.000000(     9)
      2  N        1   0.029484(     3)      2   0.000000(    10)      3  -0.012814(    16)     0
      3  N        1   0.046774(     4)      2   0.000000(    11)      3  -0.042019(    17)     0
      4  N        1   0.035412(     5)      2   0.000000(    12)      3   0.060262(    18)     0
      5  N        1   0.037588(     6)      2   0.000000(    13)      3  -0.010994(    19)     0
      6  H        3   0.014000(     7)      4  -0.000455(    14)      5   0.000000(    20)     0
      7  H        4   0.018391(     8)      5   0.000558(    15)      6   0.000000(    21)     0
 -----------------------------------------------------------------------------------------------
 Internal  Forces:  Max     0.060261864 RMS     0.025058667

 GradGradGradGradGradGradGradGradGradGradGradGradGradGradGradGradGradGrad
 Berny optimization.
 Search for a local minimum.
 Step number   1 out of a maximum of   22
 All quantities printed in internal units (Hartrees-Bohrs-Radians)
 Second derivative matrix not updated -- first step.
 The second derivative matrix:
                          rn1       rn2       rn3       rn4       rch
           rn1          0.65186
           rn2          0.01318   0.69869
           rn3          0.03472   0.07334   0.58262
           rn4          0.03688   0.02662   0.13967   0.63921
           rch          0.00000   0.00000   0.00000   0.00000   0.37510
           rnh          0.00000   0.00000   0.00000   0.00000   0.00000
           an1          0.02012  -0.75016   0.04258  -0.08486   0.00000
           an2          0.72119  -0.31234  -0.71865   0.05436   0.00000
           an3         -0.02914   1.04797   0.05412  -0.58583   0.00000
           an4          0.05328  -0.03228   0.65851  -0.10009   0.00000
           ach          0.04546   0.00000   0.00000   0.05066   0.00000
           anh         -0.10206   0.05276   0.00000   0.00000   0.00000
                          rnh       an1       an2       an3       an4
           rnh          0.48741
           an1          0.00000   4.53257
           an2          0.00000  -2.68051   6.02300
           an3          0.00000  -0.03573  -3.19618   4.47465
           an4          0.00000  -0.12258  -0.06592  -1.16042   2.58479
           ach          0.00000  -0.10460   0.00000   0.00000   0.07318
           anh          0.00000   0.03519  -0.09059   0.00000   0.00000
                          ach       anh
           ach          0.32000
           anh          0.00000   0.32000
 ITU=  0
     Eigenvalues ---    0.00000   0.13346   0.26445   0.33044   0.37510
     Eigenvalues ---    0.40158   0.48741   0.75609   1.20990   2.99509
     Eigenvalues ---    5.09563   9.64077
 RFO step:  Lambda=-9.08162594D-03 EMin=-6.95624114D-16
 Linear search not attempted -- first point.
 Variable       Old X    -DE/DX   Delta X   Delta X   Delta X     New X
                                 (Linear)    (Quad)   (Total)
   rn1        2.34817   0.02948   0.00000   0.02821   0.02821   2.37638
   rn2        2.51900   0.04677   0.00000   0.06510   0.06510   2.58411
   rn3        2.10629   0.03541   0.00000   0.06759   0.06759   2.17388
   rn4        1.75064   0.03759   0.00000   0.04376   0.04376   1.79440
   rch        2.01785   0.01400   0.00000   0.03644   0.03644   2.05429
   rnh        1.87858   0.01839   0.00000   0.03704   0.03704   1.91562
   an1        1.25389  -0.01281   0.00000   0.01332   0.01332   1.26721
   an2        2.33355  -0.04202   0.00000   0.00985   0.00985   2.34340
   an3        3.39396   0.06026   0.00000   0.00639   0.00639   3.40035
   an4        4.81845  -0.01099   0.00000  -0.01562  -0.01562   4.80283
   ach        2.18209  -0.00045   0.00000  -0.00431  -0.00431   2.17779
   anh        2.10770   0.00056   0.00000   0.00129   0.00129   2.10900
         Item               Value     Threshold  Converged?
 Maximum Force            0.060262     0.000450     NO 
 RMS     Force            0.031545     0.000300     NO 
 Maximum Displacement     0.067587     0.001800     NO 
 RMS     Displacement     0.035115     0.001200     NO 
 Predicted change in Energy=-4.608003D-03
 GradGradGradGradGradGradGradGradGradGradGradGradGradGradGradGradGradGrad

 ---------------------------------------------------------------------------------------------------
                            Z-MATRIX (ANGSTROMS AND DEGREES)
   CD    Cent   Atom    N1       Length/X        N2       Alpha/Y        N3        Beta/Z          J
 ---------------------------------------------------------------------------------------------------
      1         X 
      2         X        1   1.000000(     1)
      3      1  C        1   1.000000(     2)      2   90.000(     9)
      4      2  N        1   1.257526(     3)      2   90.000(    10)      3   72.606(    16)      0
      5      3  N        1   1.367451(     4)      2   90.000(    11)      3  134.267(    17)      0
      6      4  N        1   1.150365(     5)      2   90.000(    12)      3  194.826(    18)      0
      7      5  N        1   0.949557(     6)      2   90.000(    13)      3  275.182(    19)      0
      8      6  H        3   1.087084(     7)      4  124.778(    14)      5  180.000(    20)      0
      9      7  H        4   1.013702(     8)      5  120.837(    15)      6  180.000(    21)      0
 ---------------------------------------------------------------------------------------------------
                         Z-Matrix orientation:                         
 ---------------------------------------------------------------------
 Center     Atomic      Atomic             Coordinates (Angstroms)
 Number     Number       Type             X           Y           Z
 ---------------------------------------------------------------------
      1         -1           0        0.000000    0.000000    0.000000
      2         -1           0        0.000000    0.000000    1.000000
      3          6           0        1.000000    0.000000    0.000000
      4          7           0        0.375927   -1.200022    0.000000
      5          7           0       -0.954484   -0.979226    0.000000
      6          7           0       -1.112067    0.294359    0.000000
      7          7           0        0.085764    0.945676    0.000000
      8          1           0        2.078270    0.138152    0.000000
      9          1           0        0.746030   -2.143746    0.000000
 ---------------------------------------------------------------------
                    Distance matrix (angstroms):
                    1          2          3          4          5
     1  X    0.000000
     2  X    1.000000   0.000000
     3  C    1.000000   1.414214   0.000000
     4  N    1.257526   1.606665   1.352597   0.000000
     5  N    1.367451   1.694085   2.186067   1.348608   0.000000
     6  N    1.150365   1.524251   2.132481   2.108862   1.283297
     7  N    0.949557   1.379006   1.315344   2.165228   2.188005
     8  H    2.082857   2.310474   1.087084   2.165336   3.232047
     9  H    2.269847   2.480364   2.158737   1.013702   2.061032
                    6          7          8          9
     6  N    0.000000
     7  N    1.363457   0.000000
     8  H    3.194159   2.149924   0.000000
     9  H    3.065433   3.159190   2.642333   0.000000
 Stoichiometry    CH2N4
 Framework group  CS[SG(CH2N4)]
 Deg. of freedom    11
 Full point group                 CS      NOp   2
 Largest Abelian subgroup         CS      NOp   2
 Largest concise Abelian subgroup C1      NOp   1
                         Standard orientation:                         
 ---------------------------------------------------------------------
 Center     Atomic      Atomic             Coordinates (Angstroms)
 Number     Number       Type             X           Y           Z
 ---------------------------------------------------------------------
      1          6           0        1.068807    0.229800    0.000000
      2          7           0        0.000000    1.058758    0.000000
      3          7           0       -1.116077    0.301714    0.000000
      4          7           0       -0.726490   -0.921018    0.000000
      5          7           0        0.633956   -1.011584    0.000000
      6          1           0        2.106004    0.555340    0.000000
      7          1           0       -0.058576    2.070766    0.000000
 ---------------------------------------------------------------------
 Rotational constants (GHZ):     10.5175078     10.3389799      5.2137399
 Standard basis: CC-pVDZ (5D, 7F)
 There are    63 symmetry adapted cartesian basis functions of A'  symmetry.
 There are    22 symmetry adapted cartesian basis functions of A"  symmetry.
 There are    58 symmetry adapted basis functions of A'  symmetry.
 There are    22 symmetry adapted basis functions of A"  symmetry.
    80 basis functions,   179 primitive gaussians,    85 cartesian basis functions
    18 alpha electrons       18 beta electrons
       nuclear repulsion energy       166.6535683353 Hartrees.
 NAtoms=    7 NActive=    7 NUniq=    7 SFac= 1.00D+00 NAtFMM=   60 NAOKFM=F Big=F
 Integral buffers will be    131072 words long.
 Raffenetti 2 integral format.
 Two-electron integral symmetry is turned on.
 One-electron integrals computed using PRISM.
 NBasis=    80 RedAO= T EigKep=  6.47D-03  NBF=    58    22
 NBsUse=    80 1.00D-06 EigRej= -1.00D+00 NBFU=    58    22
 Initial guess from the checkpoint file:  "/tmp/rdj3/g09-16643/Gau-26345.chk"
 B after Tr=     0.000000    0.000000    0.000000
         Rot=    1.000000    0.000000    0.000000    0.000142 Ang=   0.02 deg.
 Initial guess orbital symmetries:
       Occupied  (A') (A') (A') (A') (A') (A') (A') (A') (A') (A')
                 (A') (A") (A') (A') (A") (A") (A') (A')
       Virtual   (A') (A') (A') (A') (A') (A') (A') (A') (A') (A')
                 (A') (A') (A') (A') (A') (A') (A') (A') (A') (A')
                 (A') (A') (A') (A') (A') (A') (A') (A') (A') (A')
                 (A') (A') (A') (A') (A') (A') (A') (A') (A') (A')
                 (A') (A') (A') (A") (A") (A") (A") (A") (A") (A")
                 (A") (A") (A") (A") (A") (A") (A") (A") (A") (A")
                 (A") (A")
 ExpMin= 1.22D-01 ExpMax= 9.05D+03 ExpMxC= 3.09D+02 IAcc=2 IRadAn=         4 AccDes= 0.00D+00
 Harris functional with IExCor=  402 and IRadAn=       4 diagonalized for initial guess.
 HarFok:  IExCor=  402 AccDes= 0.00D+00 IRadAn=         4 IDoV= 1 UseB2=F ITyADJ=14
 ICtDFT=  3500011 ScaDFX=  1.000000  1.000000  1.000000  1.000000
 FoFCou: FMM=F IPFlag=           0 FMFlag=      100000 FMFlg1=           0
         NFxFlg=           0 DoJE=T BraDBF=F KetDBF=T FulRan=T
         wScrn=  0.000000 ICntrl=     500 IOpCl=  0 I1Cent=   200000004 NGrid=           0
         NMat0=    1 NMatS0=      1 NMatT0=    0 NMatD0=    1 NMtDS0=    0 NMtDT0=    0
 Petite list used in FoFCou.
 Keep R1 ints in memory in symmetry-blocked form, NReq=8043961.
 Requested convergence on RMS density matrix=1.00D-08 within 128 cycles.
 Requested convergence on MAX density matrix=1.00D-06.
 Requested convergence on             energy=1.00D-06.
 No special actions if energy rises.
 Integral accuracy reduced to 1.0D-05 until final iterations.
 Initial convergence to 1.0D-05 achieved.  Increase integral accuracy.
 SCF Done:  E(RB3LYP) =  -258.272025041     A.U. after   12 cycles
            NFock= 12  Conv=0.13D-08     -V/T= 2.0057
 Calling FoFJK, ICntrl=      2127 FMM=F ISym2X=1 I1Cent= 0 IOpClX= 0 NMat=1 NMatS=1 NMatT=0.
 ***** Axes restored to original set *****
 -------------------------------------------------------------------
 Center     Atomic                   Forces (Hartrees/Bohr)
 Number     Number              X              Y              Z
 -------------------------------------------------------------------
      1        6           0.002026017   -0.001880591    0.000000000
      2        7           0.002217811    0.003771731    0.000000000
      3        7          -0.003275522   -0.008594007    0.000000000
      4        7          -0.002296192    0.005533278    0.000000000
      5        7           0.001762805    0.001464788    0.000000000
      6        1          -0.000520076   -0.000148660    0.000000000
      7        1           0.000085156   -0.000146539    0.000000000
 -------------------------------------------------------------------
 Cartesian Forces:  Max     0.008594007 RMS     0.002697760
 -----------------------------------------------------------------------------------------------
                       Internal Coordinate Forces (Hartree/Bohr or radian)
  Cent   Atom   N1       Length/X         N2         Alpha/Y        N3         Beta/Z          J
 -----------------------------------------------------------------------------------------------
         X 
         X        1   0.000000(     1)
      1  C        1   0.001564(     2)      2   0.000000(     9)
      2  N        1  -0.002834(     3)      2   0.000000(    10)      3  -0.007708(    16)     0
      3  N        1   0.008456(     4)      2   0.000000(    11)      3  -0.009468(    17)     0
      4  N        1   0.003636(     5)      2   0.000000(    12)      3   0.010351(    18)     0
      5  N        1   0.001618(     6)      2   0.000000(    13)      3   0.002913(    19)     0
      6  H        3  -0.000535(     7)      4  -0.000167(    14)      5   0.000000(    20)     0
      7  H        4   0.000168(     8)      5   0.000049(    15)      6   0.000000(    21)     0
 -----------------------------------------------------------------------------------------------
 Internal  Forces:  Max     0.010350923 RMS     0.004156854

 GradGradGradGradGradGradGradGradGradGradGradGradGradGradGradGradGradGrad
 Berny optimization.
 Search for a local minimum.
 Step number   2 out of a maximum of   22
 All quantities printed in internal units (Hartrees-Bohrs-Radians)
 Update second derivatives using D2CorN and points    1    2
 DE= -4.72D-03 DEPred=-4.61D-03 R= 1.02D+00
 TightC=F SS=  1.41D+00  RLast= 1.22D-01 DXNew= 5.0454D-01 3.6492D-01
 Trust test= 1.02D+00 RLast= 1.22D-01 DXMaxT set to 3.65D-01
 The second derivative matrix:
                          rn1       rn2       rn3       rn4       rch
           rn1          0.65775
           rn2          0.01248   0.66408
           rn3          0.03890   0.04873   0.56882
           rn4          0.04029   0.01230   0.13242   0.63560
           rch          0.00463  -0.00778  -0.00174  -0.00022   0.37723
           rnh          0.00403  -0.00947  -0.00340  -0.00128   0.00129
           an1          0.02897  -0.73648   0.05910  -0.07383   0.01003
           an2          0.73133  -0.29393  -0.69783   0.06808   0.01206
           an3         -0.03828   1.02363   0.02996  -0.60131  -0.01249
           an4          0.04874  -0.03485   0.65313  -0.10397  -0.00422
           ach          0.04514   0.00143   0.00073   0.05102   0.00003
           anh         -0.10196   0.05233  -0.00022  -0.00011  -0.00001
                          rnh       an1       an2       an3       an4
           rnh          0.48783
           an1          0.00988   4.53962
           an2          0.01202  -2.67360   6.02936
           an3         -0.01285  -0.03868  -3.19755   4.47021
           an4         -0.00391  -0.12809  -0.07198  -1.15565   2.58801
           ach          0.00014  -0.10568  -0.00135   0.00153   0.07355
           anh         -0.00004   0.03551  -0.09019  -0.00046  -0.00011
                          ach       anh
           ach          0.31996
           anh          0.00001   0.32000
 ITU=  1  0
     Eigenvalues ---    0.00000   0.12853   0.26522   0.32938   0.37686
     Eigenvalues ---    0.39511   0.48785   0.74926   1.20981   2.99181
     Eigenvalues ---    5.08779   9.63686
 RFO step:  Lambda=-1.21281353D-04 EMin= 8.43677438D-07
 Quartic linear search produced a step of  0.07788.
 Variable       Old X    -DE/DX   Delta X   Delta X   Delta X     New X
                                 (Linear)    (Quad)   (Total)
   rn1        2.37638  -0.00283   0.00220  -0.05972  -0.05752   2.31886
   rn2        2.58411   0.00846   0.00507  -0.02553  -0.02046   2.56365
   rn3        2.17388   0.00364   0.00526   0.01648   0.02174   2.19562
   rn4        1.79440   0.00162   0.00341   0.04884   0.05225   1.84665
   rch        2.05429  -0.00053   0.00284  -0.00370  -0.00086   2.05343
   rnh        1.91562   0.00017   0.00288  -0.00197   0.00092   1.91654
   an1        1.26721  -0.00771   0.00104   0.02164   0.02268   1.28989
   an2        2.34340  -0.00947   0.00077   0.04279   0.04356   2.38696
   an3        3.40035   0.01035   0.00050   0.05044   0.05094   3.45130
   an4        4.80283   0.00291  -0.00122   0.02483   0.02362   4.82645
   ach        2.17779  -0.00017  -0.00034   0.00158   0.00125   2.17903
   anh        2.10900   0.00005   0.00010  -0.00504  -0.00494   2.10406
         Item               Value     Threshold  Converged?
 Maximum Force            0.010351     0.000450     NO 
 RMS     Force            0.005480     0.000300     NO 
 Maximum Displacement     0.057520     0.001800     NO 
 RMS     Displacement     0.032303     0.001200     NO 
 Predicted change in Energy=-7.699319D-05
 GradGradGradGradGradGradGradGradGradGradGradGradGradGradGradGradGradGrad

 ---------------------------------------------------------------------------------------------------
                            Z-MATRIX (ANGSTROMS AND DEGREES)
   CD    Cent   Atom    N1       Length/X        N2       Alpha/Y        N3        Beta/Z          J
 ---------------------------------------------------------------------------------------------------
      1         X 
      2         X        1   1.000000(     1)
      3      1  C        1   1.000000(     2)      2   90.000(     9)
      4      2  N        1   1.227088(     3)      2   90.000(    10)      3   73.905(    16)      0
      5      3  N        1   1.356624(     4)      2   90.000(    11)      3  136.763(    17)      0
      6      4  N        1   1.161871(     5)      2   90.000(    12)      3  197.745(    18)      0
      7      5  N        1   0.977207(     6)      2   90.000(    13)      3  276.535(    19)      0
      8      6  H        3   1.086631(     7)      4  124.849(    14)      5  180.000(    20)      0
      9      7  H        4   1.014188(     8)      5  120.554(    15)      6  180.000(    21)      0
 ---------------------------------------------------------------------------------------------------
                         Z-Matrix orientation:                         
 ---------------------------------------------------------------------
 Center     Atomic      Atomic             Coordinates (Angstroms)
 Number     Number       Type             X           Y           Z
 ---------------------------------------------------------------------
      1         -1           0        0.000000    0.000000    0.000000
      2         -1           0        0.000000    0.000000    1.000000
      3          6           0        1.000000    0.000000    0.000000
      4          7           0        0.340179   -1.178993    0.000000
      5          7           0       -0.988331   -0.929318    0.000000
      6          7           0       -1.106594    0.354111    0.000000
      7          7           0        0.111221    0.970857    0.000000
      8          1           0        2.081415    0.106337    0.000000
      9          1           0        0.685557   -2.132560    0.000000
 ---------------------------------------------------------------------
                    Distance matrix (angstroms):
                    1          2          3          4          5
     1  X    0.000000
     2  X    1.000000   0.000000
     3  C    1.000000   1.414214   0.000000
     4  N    1.227088   1.582955   1.351069   0.000000
     5  N    1.356624   1.685357   2.194787   1.351768   0.000000
     6  N    1.161871   1.532953   2.136149   2.107975   1.288866
     7  N    0.977207   1.398189   1.316242   2.162007   2.195376
     8  H    2.084130   2.311622   1.086631   2.164250   3.239741
     9  H    2.240045   2.453121   2.155618   1.014188   2.061478
                    6          7          8          9
     6  N    0.000000
     7  N    1.365082   0.000000
     8  H    3.197623   2.151525   0.000000
     9  H    3.065181   3.156115   2.638387   0.000000
 Stoichiometry    CH2N4
 Framework group  CS[SG(CH2N4)]
 Deg. of freedom    11
 Full point group                 CS      NOp   2
 Largest Abelian subgroup         CS      NOp   2
 Largest concise Abelian subgroup C1      NOp   1
                         Standard orientation:                         
 ---------------------------------------------------------------------
 Center     Atomic      Atomic             Coordinates (Angstroms)
 Number     Number       Type             X           Y           Z
 ---------------------------------------------------------------------
      1          6           0        1.071146    0.232462    0.000000
      2          7           0        0.000000    1.055891    0.000000
      3          7           0       -1.122516    0.302741    0.000000
      4          7           0       -0.725283   -0.923383    0.000000
      5          7           0        0.637040   -1.010133    0.000000
      6          1           0        2.106913    0.561023    0.000000
      7          1           0       -0.058480    2.068391    0.000000
 ---------------------------------------------------------------------
 Rotational constants (GHZ):     10.5089514     10.2943891      5.2002819
 Standard basis: CC-pVDZ (5D, 7F)
 There are    63 symmetry adapted cartesian basis functions of A'  symmetry.
 There are    22 symmetry adapted cartesian basis functions of A"  symmetry.
 There are    58 symmetry adapted basis functions of A'  symmetry.
 There are    22 symmetry adapted basis functions of A"  symmetry.
    80 basis functions,   179 primitive gaussians,    85 cartesian basis functions
    18 alpha electrons       18 beta electrons
       nuclear repulsion energy       166.4290411677 Hartrees.
 NAtoms=    7 NActive=    7 NUniq=    7 SFac= 1.00D+00 NAtFMM=   60 NAOKFM=F Big=F
 Integral buffers will be    131072 words long.
 Raffenetti 2 integral format.
 Two-electron integral symmetry is turned on.
 One-electron integrals computed using PRISM.
 NBasis=    80 RedAO= T EigKep=  6.55D-03  NBF=    58    22
 NBsUse=    80 1.00D-06 EigRej= -1.00D+00 NBFU=    58    22
 Initial guess from the checkpoint file:  "/tmp/rdj3/g09-16643/Gau-26345.chk"
 B after Tr=     0.000000    0.000000    0.000000
         Rot=    1.000000    0.000000    0.000000   -0.000743 Ang=  -0.09 deg.
 Initial guess orbital symmetries:
       Occupied  (A') (A') (A') (A') (A') (A') (A') (A') (A') (A')
                 (A') (A') (A") (A') (A") (A") (A') (A')
       Virtual   (A') (A') (A') (A') (A') (A') (A') (A') (A') (A')
                 (A') (A') (A') (A') (A') (A') (A') (A') (A') (A')
                 (A') (A') (A') (A') (A') (A') (A') (A') (A') (A')
                 (A') (A') (A') (A') (A') (A') (A') (A') (A') (A')
                 (A') (A') (A') (A") (A") (A") (A") (A") (A") (A")
                 (A") (A") (A") (A") (A") (A") (A") (A") (A") (A")
                 (A") (A")
 ExpMin= 1.22D-01 ExpMax= 9.05D+03 ExpMxC= 3.09D+02 IAcc=2 IRadAn=         4 AccDes= 0.00D+00
 Harris functional with IExCor=  402 and IRadAn=       4 diagonalized for initial guess.
 HarFok:  IExCor=  402 AccDes= 0.00D+00 IRadAn=         4 IDoV= 1 UseB2=F ITyADJ=14
 ICtDFT=  3500011 ScaDFX=  1.000000  1.000000  1.000000  1.000000
 FoFCou: FMM=F IPFlag=           0 FMFlag=      100000 FMFlg1=           0
         NFxFlg=           0 DoJE=T BraDBF=F KetDBF=T FulRan=T
         wScrn=  0.000000 ICntrl=     500 IOpCl=  0 I1Cent=   200000004 NGrid=           0
         NMat0=    1 NMatS0=      1 NMatT0=    0 NMatD0=    1 NMtDS0=    0 NMtDT0=    0
 Petite list used in FoFCou.
 Keep R1 ints in memory in symmetry-blocked form, NReq=8043961.
 Requested convergence on RMS density matrix=1.00D-08 within 128 cycles.
 Requested convergence on MAX density matrix=1.00D-06.
 Requested convergence on             energy=1.00D-06.
 No special actions if energy rises.
 Integral accuracy reduced to 1.0D-05 until final iterations.
 Initial convergence to 1.0D-05 achieved.  Increase integral accuracy.
 SCF Done:  E(RB3LYP) =  -258.272099232     A.U. after   10 cycles
            NFock= 10  Conv=0.95D-08     -V/T= 2.0058
 Calling FoFJK, ICntrl=      2127 FMM=F ISym2X=1 I1Cent= 0 IOpClX= 0 NMat=1 NMatS=1 NMatT=0.
 ***** Axes restored to original set *****
 -------------------------------------------------------------------
 Center     Atomic                   Forces (Hartrees/Bohr)
 Number     Number              X              Y              Z
 -------------------------------------------------------------------
      1        6          -0.001137874   -0.001522620    0.000000000
      2        7           0.000893109   -0.000689823    0.000000000
      3        7           0.001689226   -0.000822255    0.000000000
      4        7          -0.001190679    0.002225046    0.000000000
      5        7          -0.000121894    0.000792558    0.000000000
      6        1          -0.000254647   -0.000095454    0.000000000
      7        1           0.000122759    0.000112548    0.000000000
 -------------------------------------------------------------------
 Cartesian Forces:  Max     0.002225046 RMS     0.000859941
 -----------------------------------------------------------------------------------------------
                       Internal Coordinate Forces (Hartree/Bohr or radian)
  Cent   Atom   N1       Length/X         N2         Alpha/Y        N3         Beta/Z          J
 -----------------------------------------------------------------------------------------------
         X 
         X        1   0.000000(     1)
      1  C        1  -0.001343(     2)      2   0.000000(     9)
      2  N        1   0.000693(     3)      2   0.000000(    10)      3  -0.001921(    16)     0
      3  N        1  -0.000574(     4)      2   0.000000(    11)      3  -0.004677(    17)     0
      4  N        1   0.001812(     5)      2   0.000000(    12)      3   0.003856(    18)     0
      5  N        1   0.000774(     6)      2   0.000000(    13)      3  -0.000390(    19)     0
      6  H        3  -0.000263(     7)      4  -0.000144(    14)      5   0.000000(    20)     0
      7  H        4  -0.000064(     8)      5   0.000295(    15)      6   0.000000(    21)     0
 -----------------------------------------------------------------------------------------------
 Internal  Forces:  Max     0.004676568 RMS     0.001500148

 GradGradGradGradGradGradGradGradGradGradGradGradGradGradGradGradGradGrad
 Berny optimization.
 Search for a local minimum.
 Step number   3 out of a maximum of   22
 All quantities printed in internal units (Hartrees-Bohrs-Radians)
 Update second derivatives using D2CorN and points    1    2    3
 DE= -7.42D-05 DEPred=-7.70D-05 R= 9.64D-01
 TightC=F SS=  1.41D+00  RLast= 1.12D-01 DXNew= 6.1373D-01 3.3571D-01
 Trust test= 9.64D-01 RLast= 1.12D-01 DXMaxT set to 3.65D-01
 The second derivative matrix:
                          rn1       rn2       rn3       rn4       rch
           rn1          0.66103
           rn2          0.01388   0.65865
           rn3          0.04458   0.04451   0.55870
           rn4          0.04226   0.00931   0.12345   0.63009
           rch          0.00500  -0.00854  -0.00149   0.00107   0.37864
           rnh          0.00487  -0.01063  -0.00427  -0.00116   0.00241
           an1          0.02406  -0.73344   0.06623  -0.06335   0.01437
           an2          0.71960  -0.29001  -0.68553   0.08773   0.01877
           an3         -0.02979   1.01733   0.00903  -0.62256  -0.01688
           an4          0.04716  -0.03611   0.64985  -0.10563  -0.00499
           ach          0.04466   0.00162   0.00113   0.05154   0.00006
           anh         -0.10116   0.05232  -0.00042  -0.00089  -0.00024
                          rnh       an1       an2       an3       an4
           rnh          0.48861
           an1          0.01410   4.54850
           an2          0.01865  -2.65829   6.05655
           an3         -0.01848  -0.03856  -3.19430   4.44415
           an4         -0.00486  -0.12680  -0.06819  -1.15886   2.58888
           ach          0.00020  -0.10575  -0.00136   0.00229   0.07380
           anh         -0.00024   0.03459  -0.09200  -0.00025  -0.00042
                          ach       anh
           ach          0.31996
           anh         -0.00002   0.32013
 ITU=  1  1  0
     Eigenvalues ---   -0.00040   0.13144   0.26618   0.32876   0.37834
     Eigenvalues ---    0.39673   0.48847   0.74589   1.20965   2.99011
     Eigenvalues ---    5.08414   9.63458
 RFO step:  Lambda=-4.78747497D-04 EMin=-3.99333249D-04
 Quartic linear search produced a step of -0.06126.
 Maximum step size (   0.365) exceeded in Quadratic search.
    -- Step size scaled by   0.400
 Variable       Old X    -DE/DX   Delta X   Delta X   Delta X     New X
                                 (Linear)    (Quad)   (Total)
   rn1        2.31886   0.00069   0.00352  -0.15421  -0.15069   2.16817
   rn2        2.56365  -0.00057   0.00125  -0.13761  -0.13635   2.42729
   rn3        2.19562   0.00181  -0.00133   0.04491   0.04358   2.23920
   rn4        1.84665   0.00077  -0.00320   0.17572   0.17252   2.01917
   rch        2.05343  -0.00026   0.00005  -0.00184  -0.00179   2.05165
   rnh        1.91654  -0.00006  -0.00006  -0.00019  -0.00025   1.91629
   an1        1.28989  -0.00192  -0.00139   0.06128   0.05989   1.34978
   an2        2.38696  -0.00468  -0.00267   0.13266   0.12999   2.51695
   an3        3.45130   0.00386  -0.00312   0.17221   0.16909   3.62039
   an4        4.82645  -0.00039  -0.00145   0.08047   0.07902   4.90547
   ach        2.17903  -0.00014  -0.00008  -0.00539  -0.00546   2.17357
   anh        2.10406   0.00029   0.00030   0.00639   0.00669   2.11075
         Item               Value     Threshold  Converged?
 Maximum Force            0.004677     0.000450     NO 
 RMS     Force            0.001946     0.000300     NO 
 Maximum Displacement     0.172516     0.001800     NO 
 RMS     Displacement     0.103424     0.001200     NO 
 Predicted change in Energy=-1.103411D-04
 GradGradGradGradGradGradGradGradGradGradGradGradGradGradGradGradGradGrad

 ---------------------------------------------------------------------------------------------------
                            Z-MATRIX (ANGSTROMS AND DEGREES)
   CD    Cent   Atom    N1       Length/X        N2       Alpha/Y        N3        Beta/Z          J
 ---------------------------------------------------------------------------------------------------
      1         X 
      2         X        1   1.000000(     1)
      3      1  C        1   1.000000(     2)      2   90.000(     9)
      4      2  N        1   1.147349(     3)      2   90.000(    10)      3   77.337(    16)      0
      5      3  N        1   1.284468(     4)      2   90.000(    11)      3  144.211(    17)      0
      6      4  N        1   1.184932(     5)      2   90.000(    12)      3  207.433(    18)      0
      7      5  N        1   1.068498(     6)      2   90.000(    13)      3  281.063(    19)      0
      8      6  H        3   1.085684(     7)      4  124.536(    14)      5  180.000(    20)      0
      9      7  H        4   1.014055(     8)      5  120.937(    15)      6  180.000(    21)      0
 ---------------------------------------------------------------------------------------------------
                         Z-Matrix orientation:                         
 ---------------------------------------------------------------------
 Center     Atomic      Atomic             Coordinates (Angstroms)
 Number     Number       Type             X           Y           Z
 ---------------------------------------------------------------------
      1         -1           0        0.000000    0.000000    0.000000
      2         -1           0        0.000000    0.000000    1.000000
      3          6           0        1.000000    0.000000    0.000000
      4          7           0        0.251522   -1.119440    0.000000
      5          7           0       -1.041925   -0.751167    0.000000
      6          7           0       -1.051688    0.545910    0.000000
      7          7           0        0.205032    1.048642    0.000000
      8          1           0        2.085587    0.014572    0.000000
      9          1           0        0.514737   -2.098738    0.000000
 ---------------------------------------------------------------------
                    Distance matrix (angstroms):
                    1          2          3          4          5
     1  X    0.000000
     2  X    1.000000   0.000000
     3  C    1.000000   1.414214   0.000000
     4  N    1.147349   1.521975   1.346612   0.000000
     5  N    1.284468   1.627839   2.175709   1.344853   0.000000
     6  N    1.184932   1.550505   2.123073   2.114650   1.297113
     7  N    1.068498   1.463451   1.315912   2.168580   2.189569
     8  H    2.085638   2.312982   1.085684   2.156334   3.219889
     9  H    2.160939   2.381104   2.154108   1.014055   2.058919
                    6          7          8          9
     6  N    0.000000
     7  N    1.353545   0.000000
     8  H    3.181951   2.146109   0.000000
     9  H    3.073736   3.162581   2.633183   0.000000
 Stoichiometry    CH2N4
 Framework group  CS[SG(CH2N4)]
 Deg. of freedom    11
 Full point group                 CS      NOp   2
 Largest Abelian subgroup         CS      NOp   2
 Largest concise Abelian subgroup C1      NOp   1
                         Standard orientation:                         
 ---------------------------------------------------------------------
 Center     Atomic      Atomic             Coordinates (Angstroms)
 Number     Number       Type             X           Y           Z
 ---------------------------------------------------------------------
      1          6           0        1.060354    0.230743    0.000000
      2          7           0        0.000000    1.060812    0.000000
      3          7           0       -1.114004    0.307402    0.000000
      4          7           0       -0.718631   -0.927985    0.000000
      5          7           0        0.632206   -1.013569    0.000000
      6          1           0        2.096308    0.555568    0.000000
      7          1           0       -0.055433    2.073351    0.000000
 ---------------------------------------------------------------------
 Rotational constants (GHZ):     10.5754109     10.3150253      5.2217977
 Standard basis: CC-pVDZ (5D, 7F)
 There are    63 symmetry adapted cartesian basis functions of A'  symmetry.
 There are    22 symmetry adapted cartesian basis functions of A"  symmetry.
 There are    58 symmetry adapted basis functions of A'  symmetry.
 There are    22 symmetry adapted basis functions of A"  symmetry.
    80 basis functions,   179 primitive gaussians,    85 cartesian basis functions
    18 alpha electrons       18 beta electrons
       nuclear repulsion energy       166.7536333288 Hartrees.
 NAtoms=    7 NActive=    7 NUniq=    7 SFac= 1.00D+00 NAtFMM=   60 NAOKFM=F Big=F
 Integral buffers will be    131072 words long.
 Raffenetti 2 integral format.
 Two-electron integral symmetry is turned on.
 One-electron integrals computed using PRISM.
 NBasis=    80 RedAO= T EigKep=  6.50D-03  NBF=    58    22
 NBsUse=    80 1.00D-06 EigRej= -1.00D+00 NBFU=    58    22
 Initial guess from the checkpoint file:  "/tmp/rdj3/g09-16643/Gau-26345.chk"
 B after Tr=     0.000000    0.000000    0.000000
         Rot=    1.000000    0.000000    0.000000    0.000433 Ang=   0.05 deg.
 Initial guess orbital symmetries:
       Occupied  (A') (A') (A') (A') (A') (A') (A') (A') (A') (A')
                 (A') (A') (A") (A') (A") (A") (A') (A')
       Virtual   (A') (A') (A') (A') (A') (A') (A') (A') (A') (A')
                 (A') (A') (A') (A') (A') (A') (A') (A') (A') (A')
                 (A') (A') (A') (A') (A') (A') (A') (A') (A') (A')
                 (A') (A') (A') (A') (A') (A') (A') (A') (A') (A')
                 (A') (A') (A') (A") (A") (A") (A") (A") (A") (A")
                 (A") (A") (A") (A") (A") (A") (A") (A") (A") (A")
                 (A") (A")
 ExpMin= 1.22D-01 ExpMax= 9.05D+03 ExpMxC= 3.09D+02 IAcc=2 IRadAn=         4 AccDes= 0.00D+00
 Harris functional with IExCor=  402 and IRadAn=       4 diagonalized for initial guess.
 HarFok:  IExCor=  402 AccDes= 0.00D+00 IRadAn=         4 IDoV= 1 UseB2=F ITyADJ=14
 ICtDFT=  3500011 ScaDFX=  1.000000  1.000000  1.000000  1.000000
 FoFCou: FMM=F IPFlag=           0 FMFlag=      100000 FMFlg1=           0
         NFxFlg=           0 DoJE=T BraDBF=F KetDBF=T FulRan=T
         wScrn=  0.000000 ICntrl=     500 IOpCl=  0 I1Cent=   200000004 NGrid=           0
         NMat0=    1 NMatS0=      1 NMatT0=    0 NMatD0=    1 NMtDS0=    0 NMtDT0=    0
 Petite list used in FoFCou.
 Keep R1 ints in memory in symmetry-blocked form, NReq=8043961.
 Requested convergence on RMS density matrix=1.00D-08 within 128 cycles.
 Requested convergence on MAX density matrix=1.00D-06.
 Requested convergence on             energy=1.00D-06.
 No special actions if energy rises.
 Integral accuracy reduced to 1.0D-05 until final iterations.
 Initial convergence to 1.0D-05 achieved.  Increase integral accuracy.
 SCF Done:  E(RB3LYP) =  -258.271854750     A.U. after   11 cycles
            NFock= 11  Conv=0.75D-08     -V/T= 2.0057
 Calling FoFJK, ICntrl=      2127 FMM=F ISym2X=1 I1Cent= 0 IOpClX= 0 NMat=1 NMatS=1 NMatT=0.
 ***** Axes restored to original set *****
 -------------------------------------------------------------------
 Center     Atomic                   Forces (Hartrees/Bohr)
 Number     Number              X              Y              Z
 -------------------------------------------------------------------
      1        6           0.010038236    0.000831379    0.000000000
      2        7          -0.000195846    0.003585237    0.000000000
      3        7          -0.008333165    0.001775838    0.000000000
      4        7          -0.006146442   -0.006768440    0.000000000
      5        7           0.003922899    0.000335218    0.000000000
      6        1           0.000676627   -0.000010648    0.000000000
      7        1           0.000037691    0.000251415    0.000000000
 -------------------------------------------------------------------
 Cartesian Forces:  Max     0.010038236 RMS     0.003694007
 -----------------------------------------------------------------------------------------------
                       Internal Coordinate Forces (Hartree/Bohr or radian)
  Cent   Atom   N1       Length/X         N2         Alpha/Y        N3         Beta/Z          J
 -----------------------------------------------------------------------------------------------
         X 
         X        1   0.000000(     1)
      1  C        1   0.010728(     2)      2   0.000000(     9)
      2  N        1  -0.003857(     3)      2   0.000000(    10)      3  -0.001545(    16)     0
      3  N        1   0.005781(     4)      2   0.000000(    11)      3   0.015210(    17)     0
      4  N        1   0.002337(     5)      2   0.000000(    12)      3  -0.019792(    18)     0
      5  N        1   0.001082(     6)      2   0.000000(    13)      3   0.007644(    19)     0
      6  H        3   0.000676(     7)      4  -0.000040(    14)      5   0.000000(    20)     0
      7  H        4  -0.000233(     8)      5   0.000195(    15)      6   0.000000(    21)     0
 -----------------------------------------------------------------------------------------------
 Internal  Forces:  Max     0.019792403 RMS     0.006378816

 GradGradGradGradGradGradGradGradGradGradGradGradGradGradGradGradGradGrad
 Berny optimization.
 Search for a local minimum.
 Step number   4 out of a maximum of   22
 All quantities printed in internal units (Hartrees-Bohrs-Radians)
 Update second derivatives using D2CorN and points    1    2    4    3
 DE=  2.44D-04 DEPred=-1.10D-04 R=-2.22D+00
 Trust test=-2.22D+00 RLast= 3.58D-01 DXMaxT set to 1.82D-01
 The second derivative matrix:
                          rn1       rn2       rn3       rn4       rch
           rn1          0.65803
           rn2          0.01557   0.66143
           rn3          0.04802   0.04209   0.55699
           rn4          0.04633   0.00464   0.12175   0.62920
           rch          0.00634  -0.00825  -0.00082   0.00130   0.37954
           rnh          0.00564  -0.01119  -0.00377  -0.00050   0.00319
           an1          0.02508  -0.73222   0.06926  -0.06042   0.01609
           an2          0.73111  -0.27973  -0.68471   0.07978   0.02081
           an3         -0.03971   0.99773   0.00658  -0.61215  -0.01937
           an4          0.05185  -0.03455   0.64675  -0.11180  -0.00599
           ach          0.04443   0.00191   0.00113   0.05153   0.00003
           anh         -0.10082   0.05207  -0.00039  -0.00098  -0.00029
                          rnh       an1       an2       an3       an4
           rnh          0.48925
           an1          0.01605   4.55083
           an2          0.02116  -2.65920   6.04321
           an3         -0.02039  -0.03360  -3.19455   4.46974
           an4         -0.00557  -0.12902  -0.07772  -1.15692   2.58480
           ach          0.00016  -0.10587  -0.00104   0.00194   0.07406
           anh         -0.00026   0.03438  -0.09300   0.00053  -0.00072
                          ach       anh
           ach          0.31997
           anh         -0.00004   0.32018
 ITU= -1  1  1  0
 Energy rises -- skip Quadratic search.
 Quartic linear search produced a step of -0.79253.
 Variable       Old X    -DE/DX   Delta X   Delta X   Delta X     New X
                                 (Linear)    (Quad)   (Total)
   rn1        2.16817  -0.00386   0.11942   0.00000   0.11942   2.28760
   rn2        2.42729   0.00578   0.10807   0.00000   0.10807   2.53536
   rn3        2.23920   0.00234  -0.03454   0.00000  -0.03454   2.20466
   rn4        2.01917   0.00108  -0.13672   0.00000  -0.13672   1.88244
   rch        2.05165   0.00068   0.00142   0.00000   0.00142   2.05306
   rnh        1.91629  -0.00023   0.00020   0.00000   0.00020   1.91649
   an1        1.34978  -0.00154  -0.04746   0.00000  -0.04746   1.30232
   an2        2.51695   0.01521  -0.10302   0.00000  -0.10302   2.41393
   an3        3.62039  -0.01979  -0.13401   0.00000  -0.13401   3.48638
   an4        4.90547   0.00764  -0.06263   0.00000  -0.06263   4.84285
   ach        2.17357  -0.00004   0.00433   0.00000   0.00433   2.17790
   anh        2.11075   0.00019  -0.00530   0.00000  -0.00530   2.10545
         Item               Value     Threshold  Converged?
 Maximum Force            0.019792     0.000450     NO 
 RMS     Force            0.007850     0.000300     NO 
 Maximum Displacement     0.136724     0.001800     NO 
 RMS     Displacement     0.081967     0.001200     NO 
 Predicted change in Energy=-9.939012D-05
 GradGradGradGradGradGradGradGradGradGradGradGradGradGradGradGradGradGrad

 ---------------------------------------------------------------------------------------------------
                            Z-MATRIX (ANGSTROMS AND DEGREES)
   CD    Cent   Atom    N1       Length/X        N2       Alpha/Y        N3        Beta/Z          J
 ---------------------------------------------------------------------------------------------------
      1         X 
      2         X        1   1.000000(     1)
      3      1  C        1   1.000000(     2)      2   90.000(     9)
      4      2  N        1   1.210545(     3)      2   90.000(    10)      3   74.617(    16)      0
      5      3  N        1   1.341654(     4)      2   90.000(    11)      3  138.308(    17)      0
      6      4  N        1   1.166655(     5)      2   90.000(    12)      3  199.755(    18)      0
      7      5  N        1   0.996147(     6)      2   90.000(    13)      3  277.475(    19)      0
      8      6  H        3   1.086435(     7)      4  124.784(    14)      5  180.000(    20)      0
      9      7  H        4   1.014160(     8)      5  120.633(    15)      6  180.000(    21)      0
 ---------------------------------------------------------------------------------------------------
                         Z-Matrix orientation:                         
 ---------------------------------------------------------------------
 Center     Atomic      Atomic             Coordinates (Angstroms)
 Number     Number       Type             X           Y           Z
 ---------------------------------------------------------------------
      1         -1           0        0.000000    0.000000    0.000000
      2         -1           0        0.000000    0.000000    1.000000
      3          6           0        1.000000    0.000000    0.000000
      4          7           0        0.321116   -1.167178    0.000000
      5          7           0       -1.001853   -0.892372    0.000000
      6          7           0       -1.097996    0.394322    0.000000
      7          7           0        0.129586    0.987682    0.000000
      8          1           0        2.082935    0.087135    0.000000
      9          1           0        0.649601   -2.126666    0.000000
 ---------------------------------------------------------------------
                    Distance matrix (angstroms):
                    1          2          3          4          5
     1  X    0.000000
     2  X    1.000000   0.000000
     3  C    1.000000   1.414214   0.000000
     4  N    1.210545   1.570165   1.350255   0.000000
     5  N    1.341654   1.673331   2.191744   1.351208   0.000000
     6  N    1.166655   1.536582   2.134731   2.110014   1.290281
     7  N    0.996147   1.411492   1.316486   2.163355   2.194255
     8  H    2.084756   2.312187   1.086435   2.162708   3.236564
     9  H    2.223666   2.438174   2.155339   1.014160   2.061743
                    6          7          8          9
     6  N    0.000000
     7  N    1.363464   0.000000
     8  H    3.195729   2.150943   0.000000
     9  H    3.067487   3.157464   2.637302   0.000000
 Stoichiometry    CH2N4
 Framework group  CS[SG(CH2N4)]
 Deg. of freedom    11
 Full point group                 CS      NOp   2
 Largest Abelian subgroup         CS      NOp   2
 Largest concise Abelian subgroup C1      NOp   1
                         Standard orientation:                         
 ---------------------------------------------------------------------
 Center     Atomic      Atomic             Coordinates (Angstroms)
 Number     Number       Type             X           Y           Z
 ---------------------------------------------------------------------
      1          6           0        1.069408    0.232711    0.000000
      2          7           0        0.000000    1.057062    0.000000
      3          7           0       -1.121210    0.302971    0.000000
      4          7           0       -0.724297   -0.924744    0.000000
      5          7           0        0.636464   -1.010550    0.000000
      6          1           0        2.105051    0.561012    0.000000
      7          1           0       -0.058204    2.069550    0.000000
 ---------------------------------------------------------------------
 Rotational constants (GHZ):     10.5001053     10.3100520      5.2021054
 Standard basis: CC-pVDZ (5D, 7F)
 There are    63 symmetry adapted cartesian basis functions of A'  symmetry.
 There are    22 symmetry adapted cartesian basis functions of A"  symmetry.
 There are    58 symmetry adapted basis functions of A'  symmetry.
 There are    22 symmetry adapted basis functions of A"  symmetry.
    80 basis functions,   179 primitive gaussians,    85 cartesian basis functions
    18 alpha electrons       18 beta electrons
       nuclear repulsion energy       166.4546385083 Hartrees.
 NAtoms=    7 NActive=    7 NUniq=    7 SFac= 1.00D+00 NAtFMM=   60 NAOKFM=F Big=F
 Integral buffers will be    131072 words long.
 Raffenetti 2 integral format.
 Two-electron integral symmetry is turned on.
 One-electron integrals computed using PRISM.
 NBasis=    80 RedAO= T EigKep=  6.55D-03  NBF=    58    22
 NBsUse=    80 1.00D-06 EigRej= -1.00D+00 NBFU=    58    22
 Lowest energy guess from the checkpoint file:  "/tmp/rdj3/g09-16643/Gau-26345.chk"
 B after Tr=     0.000000    0.000000    0.000000
         Rot=    1.000000    0.000000    0.000000   -0.000068 Ang=  -0.01 deg.
 B after Tr=     0.000000    0.000000    0.000000
         Rot=    1.000000    0.000000    0.000000   -0.000500 Ang=  -0.06 deg.
 Initial guess orbital symmetries:
       Occupied  (A") (A') (A') (A") (A') (A') (A') (A') (A') (A")
                 (A') (A') (A') (A') (A') (A') (A') (A')
       Virtual   (A") (A') (A') (A") (A') (A') (A') (A') (A') (A")
                 (A') (A') (A') (A') (A') (A') (A') (A') (A') (A')
                 (A') (A') (A') (A') (A') (A') (A') (A') (A') (A')
                 (A') (A') (A') (A') (A') (A') (A') (A') (A') (A')
                 (A') (A') (A') (A") (A") (A") (A") (A") (A") (A")
                 (A") (A") (A") (A") (A") (A") (A") (A") (A") (A")
                 (A") (A")
 Keep R1 ints in memory in symmetry-blocked form, NReq=8043961.
 Requested convergence on RMS density matrix=1.00D-08 within 128 cycles.
 Requested convergence on MAX density matrix=1.00D-06.
 Requested convergence on             energy=1.00D-06.
 No special actions if energy rises.
 Integral accuracy reduced to 1.0D-05 until final iterations.
 An orbital has undefined symmetry, so N**3 symmetry is turned off.
 Initial convergence to 1.0D-05 achieved.  Increase integral accuracy.
 SCF Done:  E(RB3LYP) =  -258.272108559     A.U. after    9 cycles
            NFock=  9  Conv=0.33D-08     -V/T= 2.0058
 Calling FoFJK, ICntrl=      2127 FMM=F ISym2X=1 I1Cent= 0 IOpClX= 0 NMat=1 NMatS=1 NMatT=0.
 ***** Axes restored to original set *****
 -------------------------------------------------------------------
 Center     Atomic                   Forces (Hartrees/Bohr)
 Number     Number              X              Y              Z
 -------------------------------------------------------------------
      1        6           0.000336162   -0.000798281    0.000000000
      2        7           0.000172930    0.000322361    0.000000000
      3        7           0.000124992   -0.000653625    0.000000000
      4        7          -0.001231212    0.000370418    0.000000000
      5        7           0.000611516    0.000657206    0.000000000
      6        1          -0.000080007   -0.000024434    0.000000000
      7        1           0.000065618    0.000126356    0.000000000
 -------------------------------------------------------------------
 Cartesian Forces:  Max     0.001231212 RMS     0.000426121
 -----------------------------------------------------------------------------------------------
                       Internal Coordinate Forces (Hartree/Bohr or radian)
  Cent   Atom   N1       Length/X         N2         Alpha/Y        N3         Beta/Z          J
 -----------------------------------------------------------------------------------------------
         X 
         X        1   0.000000(     1)
      1  C        1   0.000269(     2)      2   0.000000(     9)
      2  N        1  -0.000448(     3)      2   0.000000(    10)      3  -0.000856(    16)     0
      3  N        1   0.000403(     4)      2   0.000000(    11)      3  -0.001565(    17)     0
      4  N        1   0.001284(     5)      2   0.000000(    12)      3  -0.000149(    18)     0
      5  N        1   0.000731(     6)      2   0.000000(    13)      3   0.000980(    19)     0
      6  H        3  -0.000082(     7)      4  -0.000037(    14)      5   0.000000(    20)     0
      7  H        4  -0.000098(     8)      5   0.000197(    15)      6   0.000000(    21)     0
 -----------------------------------------------------------------------------------------------
 Internal  Forces:  Max     0.001565036 RMS     0.000570768

 GradGradGradGradGradGradGradGradGradGradGradGradGradGradGradGradGradGrad
 Berny optimization.
 Search for a local minimum.
 Step number   5 out of a maximum of   22
 All quantities printed in internal units (Hartrees-Bohrs-Radians)
 Update second derivatives using D2CorN and points    1    2    3    5
 The second derivative matrix:
                          rn1       rn2       rn3       rn4       rch
           rn1          0.65449
           rn2          0.01409   0.66133
           rn3          0.04723   0.04054   0.55953
           rn4          0.04904   0.00439   0.12486   0.62979
           rch          0.00693  -0.00797  -0.00023   0.00147   0.37990
           rnh          0.00599  -0.01126  -0.00321  -0.00014   0.00349
           an1          0.03002  -0.72882   0.06950  -0.06428   0.01638
           an2          0.73493  -0.27516  -0.68054   0.07952   0.02195
           an3         -0.04042   0.99187   0.00704  -0.61046  -0.02079
           an4          0.05367  -0.03338   0.64739  -0.11315  -0.00622
           ach          0.04462   0.00218   0.00087   0.05110  -0.00001
           anh         -0.10097   0.05180  -0.00019  -0.00062  -0.00028
                          rnh       an1       an2       an3       an4
           rnh          0.48949
           an1          0.01634   4.54795
           an2          0.02254  -2.66235   6.04149
           an3         -0.02162  -0.03732  -3.19441   4.47531
           an4         -0.00564  -0.13145  -0.08002  -1.15622   2.58370
           ach          0.00011  -0.10594  -0.00127   0.00148   0.07399
           anh         -0.00022   0.03443  -0.09313   0.00126  -0.00073
                          ach       anh
           ach          0.32000
           anh         -0.00006   0.32019
 ITU=  0 -1  1  1  0
     Eigenvalues ---    0.00094   0.13501   0.26729   0.32911   0.37955
     Eigenvalues ---    0.39772   0.48932   0.74889   1.20967   2.98958
     Eigenvalues ---    5.08254   9.63354
 RFO step:  Lambda=-4.34369638D-06 EMin= 9.35689935D-04
 Quartic linear search produced a step of -0.05125.
 Variable       Old X    -DE/DX   Delta X   Delta X   Delta X     New X
                                 (Linear)    (Quad)   (Total)
   rn1        2.28760  -0.00045   0.00160   0.00339   0.00499   2.29259
   rn2        2.53536   0.00040   0.00145   0.00271   0.00416   2.53952
   rn3        2.20466   0.00128  -0.00046   0.00128   0.00082   2.20548
   rn4        1.88244   0.00073  -0.00183  -0.00337  -0.00520   1.87724
   rch        2.05306  -0.00008   0.00002  -0.00020  -0.00019   2.05288
   rnh        1.91649  -0.00010   0.00000  -0.00015  -0.00015   1.91634
   an1        1.30232  -0.00086  -0.00064  -0.00192  -0.00256   1.29976
   an2        2.41393  -0.00157  -0.00138  -0.00336  -0.00474   2.40919
   an3        3.48638  -0.00015  -0.00180  -0.00398  -0.00578   3.48060
   an4        4.84285   0.00098  -0.00084  -0.00213  -0.00297   4.83988
   ach        2.17790  -0.00004   0.00006  -0.00023  -0.00017   2.17773
   anh        2.10545   0.00020  -0.00007   0.00050   0.00043   2.10588
         Item               Value     Threshold  Converged?
 Maximum Force            0.001565     0.000450     NO 
 RMS     Force            0.000751     0.000300     NO 
 Maximum Displacement     0.005781     0.001800     NO 
 RMS     Displacement     0.003433     0.001200     NO 
 Predicted change in Energy=-2.170463D-06
 GradGradGradGradGradGradGradGradGradGradGradGradGradGradGradGradGradGrad

 ---------------------------------------------------------------------------------------------------
                            Z-MATRIX (ANGSTROMS AND DEGREES)
   CD    Cent   Atom    N1       Length/X        N2       Alpha/Y        N3        Beta/Z          J
 ---------------------------------------------------------------------------------------------------
      1         X 
      2         X        1   1.000000(     1)
      3      1  C        1   1.000000(     2)      2   90.000(     9)
      4      2  N        1   1.213184(     3)      2   90.000(    10)      3   74.471(    16)      0
      5      3  N        1   1.343856(     4)      2   90.000(    11)      3  138.036(    17)      0
      6      4  N        1   1.167089(     5)      2   90.000(    12)      3  199.423(    18)      0
      7      5  N        1   0.993395(     6)      2   90.000(    13)      3  277.304(    19)      0
      8      6  H        3   1.086336(     7)      4  124.775(    14)      5  180.000(    20)      0
      9      7  H        4   1.014083(     8)      5  120.658(    15)      6  180.000(    21)      0
 ---------------------------------------------------------------------------------------------------
                         Z-Matrix orientation:                         
 ---------------------------------------------------------------------
 Center     Atomic      Atomic             Coordinates (Angstroms)
 Number     Number       Type             X           Y           Z
 ---------------------------------------------------------------------
      1         -1           0        0.000000    0.000000    0.000000
      2         -1           0        0.000000    0.000000    1.000000
      3          6           0        1.000000    0.000000    0.000000
      4          7           0        0.324809   -1.168895    0.000000
      5          7           0       -0.999249   -0.898583    0.000000
      6          7           0       -1.100666    0.388112    0.000000
      7          7           0        0.126302    0.985333    0.000000
      8          1           0        2.082585    0.090197    0.000000
      9          1           0        0.656955   -2.127041    0.000000
 ---------------------------------------------------------------------
                    Distance matrix (angstroms):
                    1          2          3          4          5
     1  X    0.000000
     2  X    1.000000   0.000000
     3  C    1.000000   1.414214   0.000000
     4  N    1.213184   1.572201   1.349889   0.000000
     5  N    1.343856   1.675097   2.191905   1.351369   0.000000
     6  N    1.167089   1.536911   2.136218   2.110983   1.290685
     7  N    0.993395   1.409551   1.316901   2.163355   2.194540
     8  H    2.084538   2.311990   1.086336   2.162196   3.236570
     9  H    2.226183   2.440470   2.154526   1.014083   2.062068
                    6          7          8          9
     6  N    0.000000
     7  N    1.364596   0.000000
     8  H    3.197161   2.151351   0.000000
     9  H    3.068424   3.157287   2.636012   0.000000
 Stoichiometry    CH2N4
 Framework group  CS[SG(CH2N4)]
 Deg. of freedom    11
 Full point group                 CS      NOp   2
 Largest Abelian subgroup         CS      NOp   2
 Largest concise Abelian subgroup C1      NOp   1
                         Standard orientation:                         
 ---------------------------------------------------------------------
[...]
   XY=              1.7170   XZ=              0.0000   YZ=              0.0000
 Traceless Quadrupole moment (field-independent basis, Debye-Ang):
   XX=             -1.1025   YY=              1.4982   ZZ=             -0.3957
   XY=              1.7170   XZ=              0.0000   YZ=              0.0000
 Octapole moment (field-independent basis, Debye-Ang**2):
  XXX=             10.6614  YYY=             21.2555  ZZZ=              0.0000  XYY=             -0.6779
  XXY=              4.2152  XXZ=              0.0000  XZZ=             -0.8913  YZZ=              0.4220
  YYZ=              0.0000  XYZ=              0.0000
 Hexadecapole moment (field-independent basis, Debye-Ang**3):
 XXXX=           -142.1094 YYYY=           -119.7523 ZZZZ=            -24.1375 XXXY=              6.1521
 XXXZ=              0.0000 YYYX=             -0.5798 YYYZ=              0.0000 ZZZX=              0.0000
 ZZZY=              0.0000 XXYY=            -52.9016 XXZZ=            -29.8774 YYZZ=            -28.0477
 XXYZ=              0.0000 YYXZ=              0.0000 ZZXY=             -0.1894
 N-N= 1.664136011634D+02 E-N=-9.356870376801D+02  KE= 2.567858090975D+02
 Symmetry A'   KE= 2.473392643027D+02
 Symmetry A"   KE= 9.446544794732D+00
  Exact polarizability:  37.936   1.143  37.152   0.000   0.000  16.052
 Approx polarizability:  66.881   0.639  70.742   0.000   0.000  24.766
 Calling FoFJK, ICntrl=    100127 FMM=F ISym2X=1 I1Cent= 0 IOpClX= 0 NMat=1 NMatS=1 NMatT=0.
 Full mass-weighted force constant matrix:
 Low frequencies ---   -4.3222   -4.1220   -0.0014   -0.0006   -0.0002    2.9837
 Low frequencies ---  575.6605  690.3811  740.3438
 Diagonal vibrational polarizability:
        1.1338243       1.1759178       7.4695496
 Harmonic frequencies (cm**-1), IR intensities (KM/Mole), Raman scattering
 activities (A**4/AMU), depolarization ratios for plane and unpolarized
 incident light, reduced masses (AMU), force constants (mDyne/A),
 and normal coordinates:
                      1                      2                      3
                     A"                     A"                     A"
 Frequencies --    575.6605               690.3811               740.3438
 Red. masses --      1.7038                 2.0467                 8.0771
 Frc consts  --      0.3327                 0.5747                 2.6084
 IR Inten    --     75.1966                 6.3854                 8.0260
  Atom  AN      X      Y      Z        X      Y      Z        X      Y      Z
     1   6     0.00   0.00  -0.08     0.00   0.00   0.18     0.00   0.00  -0.10
     2   7     0.00   0.00   0.20     0.00   0.00  -0.11     0.00   0.00  -0.12
     3   7     0.00   0.00  -0.08     0.00   0.00   0.10     0.00   0.00   0.42
     4   7     0.00   0.00   0.01     0.00   0.00   0.04     0.00   0.00  -0.49
     5   7     0.00   0.00   0.02     0.00   0.00  -0.17     0.00   0.00   0.33
     6   1     0.00   0.00  -0.21     0.00   0.00   0.55     0.00   0.00  -0.08
     7   1     0.00   0.00  -0.95     0.00   0.00  -0.78     0.00   0.00  -0.67
                      4                      5                      6
                     A"                     A'                     A'
 Frequencies --    853.1702               967.9730              1008.8325
 Red. masses --      1.3725                 4.2114                 5.5401
 Frc consts  --      0.5886                 2.3249                 3.3220
 IR Inten    --     16.4554                 3.8460                 0.4850
  Atom  AN      X      Y      Z        X      Y      Z        X      Y      Z
     1   6     0.00   0.00   0.17     0.07   0.10   0.00    -0.34  -0.06   0.00
     2   7     0.00   0.00  -0.03     0.09   0.06   0.00     0.04   0.38   0.00
     3   7     0.00   0.00   0.01     0.13  -0.13   0.00     0.02  -0.07   0.00
     4   7     0.00   0.00  -0.02     0.07  -0.17   0.00     0.22  -0.04   0.00
     5   7     0.00   0.00  -0.03    -0.34   0.20   0.00     0.00  -0.22   0.00
     6   1     0.00   0.00  -0.98     0.32  -0.69   0.00    -0.22  -0.49   0.00
     7   1     0.00   0.00  -0.06    -0.41   0.03   0.00     0.41   0.42   0.00
                      7                      8                      9
                     A'                     A'                     A'
 Frequencies --   1043.8056              1062.0857              1137.9434
 Red. masses --      4.4531                 3.1215                 2.1619
 Frc consts  --      2.8586                 2.0746                 1.6494
 IR Inten    --     19.4769                26.4886                16.5229
  Atom  AN      X      Y      Z        X      Y      Z        X      Y      Z
     1   6     0.12   0.03   0.00    -0.05   0.05   0.00     0.08  -0.11   0.00
     2   7     0.20   0.11   0.00     0.06  -0.17   0.00    -0.13  -0.02   0.00
     3   7    -0.33  -0.21   0.00    -0.16   0.04   0.00    -0.11   0.05   0.00
     4   7    -0.15   0.00   0.00     0.26   0.04   0.00     0.15   0.13   0.00
     5   7     0.12   0.10   0.00    -0.17   0.03   0.00     0.03   0.00   0.00
     6   1     0.30  -0.49   0.00    -0.14   0.34   0.00     0.30  -0.81   0.00
     7   1     0.62   0.14   0.00     0.83  -0.14   0.00    -0.41  -0.04   0.00
                     10                     11                     12
                     A'                     A'                     A'
 Frequencies --   1256.9288              1301.0657              1454.2716
 Red. masses --      2.3788                10.4087                 3.2889
 Frc consts  --      2.2142                10.3811                 4.0982
 IR Inten    --      2.2707                14.9225                 8.0137
  Atom  AN      X      Y      Z        X      Y      Z        X      Y      Z
     1   6     0.17   0.03   0.00     0.27   0.07   0.00    -0.18   0.24   0.00
     2   7     0.07   0.10   0.00    -0.13   0.15   0.00     0.21  -0.14   0.00
     3   7    -0.10  -0.07   0.00    -0.21   0.48   0.00    -0.07   0.10   0.00
     4   7     0.05   0.07   0.00     0.03  -0.57   0.00     0.00  -0.02   0.00
     5   7    -0.11  -0.18   0.00     0.03  -0.13   0.00     0.07  -0.10   0.00
     6   1    -0.01   0.67   0.00     0.36  -0.06   0.00     0.01  -0.47   0.00
     7   1    -0.66   0.07   0.00     0.29   0.22   0.00    -0.74  -0.22   0.00
                     13                     14                     15
                     A'                     A'                     A'
 Frequencies --   1504.2810              3282.6307              3628.1849
 Red. masses --      3.7282                 1.1011                 1.0845
 Frc consts  --      4.9706                 6.9905                 8.4115
 IR Inten    --     14.0781                 1.5396                88.4914
  Atom  AN      X      Y      Z        X      Y      Z        X      Y      Z
     1   6     0.11   0.32   0.00     0.09   0.03   0.00     0.00   0.00   0.00
     2   7    -0.16  -0.04   0.00     0.00   0.00   0.00    -0.01   0.08   0.00
     3   7     0.10  -0.08   0.00     0.00   0.00   0.00     0.00   0.00   0.00
     4   7    -0.06   0.09   0.00     0.00   0.00   0.00     0.00   0.00   0.00
     5   7    -0.05  -0.23   0.00     0.00   0.00   0.00     0.00   0.00   0.00
     6   1     0.38  -0.40   0.00    -0.95  -0.30   0.00    -0.02   0.00   0.00
     7   1     0.68   0.01   0.00     0.01   0.02   0.00     0.06  -1.00   0.00

 -------------------
 - Thermochemistry -
 -------------------
 Temperature   298.150 Kelvin.  Pressure   1.00000 Atm.
 Atom     1 has atomic number  6 and mass  12.00000
 Atom     2 has atomic number  7 and mass  14.00307
 Atom     3 has atomic number  7 and mass  14.00307
 Atom     4 has atomic number  7 and mass  14.00307
 Atom     5 has atomic number  7 and mass  14.00307
 Atom     6 has atomic number  1 and mass   1.00783
 Atom     7 has atomic number  1 and mass   1.00783
 Molecular mass:    70.02795 amu.
 Principal axes and moments of inertia in atomic units:
                           1         2         3
     Eigenvalues --   171.99053 175.10558 347.09611
           X            0.84558   0.53386   0.00000
           Y           -0.53386   0.84558   0.00000
           Z            0.00000   0.00000   1.00000
 This molecule is an asymmetric top.
 Rotational symmetry number  1.
 Rotational temperatures (Kelvin)      0.50360     0.49464     0.24954
 Rotational constants (GHZ):          10.49326    10.30659     5.19954
 Zero-point vibrational energy     122662.4 (Joules/Mol)
                                   29.31703 (Kcal/Mol)
 Warning -- explicit consideration of   1 degrees of freedom as
           vibrations may cause significant error
 Vibrational temperatures:    828.25   993.30  1065.19  1227.52  1392.70
          (Kelvin)           1451.48  1501.80  1528.10  1637.24  1808.44
                             1871.94  2092.37  2164.32  4722.97  5220.14
 
 Zero-point correction=                           0.046720 (Hartree/Particle)
 Thermal correction to Energy=                    0.050199
 Thermal correction to Enthalpy=                  0.051143
 Thermal correction to Gibbs Free Energy=         0.020617
 Sum of electronic and zero-point Energies=           -258.225392
 Sum of electronic and thermal Energies=              -258.221913
 Sum of electronic and thermal Enthalpies=            -258.220969
 Sum of electronic and thermal Free Energies=         -258.251494
 
                     E (Thermal)             CV                S
                      KCal/Mol        Cal/Mol-Kelvin    Cal/Mol-Kelvin
 Total                   31.500             11.370             64.246
 Electronic               0.000              0.000              0.000
 Translational            0.889              2.981             38.656
 Rotational               0.889              2.981             23.862
 Vibrational             29.723              5.409              1.728
 Vibration     1          0.932              1.084              0.493
                       Q            Log10(Q)             Ln(Q)
 Total Bot       0.328611D-09         -9.483318        -21.836146
 Total V=0       0.101435D+13         12.006186         27.645265
 Vib (Bot)       0.389804D-21        -21.409154        -49.296398
 Vib (Bot)    1  0.265858D+00         -0.575350         -1.324793
 Vib (V=0)       0.120323D+01          0.080350          0.185014
 Vib (V=0)    1  0.106629D+01          0.027874          0.064182
 Electronic      0.100000D+01          0.000000          0.000000
 Translational   0.230336D+08          7.362362         16.952466
 Rotational      0.365994D+05          4.563474         10.507786
 ***** Axes restored to original set *****
 -------------------------------------------------------------------
 Center     Atomic                   Forces (Hartrees/Bohr)
 Number     Number              X              Y              Z
 -------------------------------------------------------------------
      1        6           0.000014974   -0.000001155    0.000000000
      2        7          -0.000026903    0.000016749    0.000000000
      3        7          -0.000010302   -0.000032987    0.000000000
      4        7          -0.000025629   -0.000025857    0.000000000
      5        7           0.000045288    0.000035679    0.000000000
      6        1          -0.000000026    0.000004173    0.000000000
      7        1           0.000002598    0.000003397    0.000000000
 -------------------------------------------------------------------
 Cartesian Forces:  Max     0.000045288 RMS     0.000018399
 -----------------------------------------------------------------------------------------------
                       Internal Coordinate Forces (Hartree/Bohr or radian)
  Cent   Atom   N1       Length/X         N2         Alpha/Y        N3         Beta/Z          J
 -----------------------------------------------------------------------------------------------
         X 
         X        1   0.000000(     1)
      1  C        1   0.000012(     2)      2   0.000000(     9)
      2  N        1  -0.000026(     3)      2   0.000000(    10)      3   0.000033(    16)     0
      3  N        1   0.000032(     4)      2   0.000000(    11)      3  -0.000049(    17)     0
      4  N        1   0.000016(     5)      2   0.000000(    12)      3  -0.000072(    18)     0
      5  N        1   0.000041(     6)      2   0.000000(    13)      3   0.000076(    19)     0
      6  H        3   0.000000(     7)      4   0.000009(    14)      5   0.000000(    20)     0
      7  H        4  -0.000002(     8)      5   0.000007(    15)      6   0.000000(    21)     0
 -----------------------------------------------------------------------------------------------
 Internal  Forces:  Max     0.000075802 RMS     0.000029567

 GradGradGradGradGradGradGradGradGradGradGradGradGradGradGradGradGradGrad
 Berny optimization.
 Search for a local minimum.
 Step number   1 out of a maximum of    2
 All quantities printed in internal units (Hartrees-Bohrs-Radians)
 Second derivative matrix not updated -- analytic derivatives used.
 The second derivative matrix:
                          rn1       rn2       rn3       rn4       rch
           rn1          0.58365
           rn2         -0.04412   0.58036
           rn3          0.07933  -0.01115   0.55767
           rn4          0.09882   0.07706  -0.01216   0.55866
           rch         -0.00407  -0.00154   0.00037  -0.00387   0.37752
           rnh          0.01021  -0.00791   0.00008  -0.00022   0.00025
           an1          0.10981  -0.35323  -0.21968   0.13790   0.01164
           an2          0.24908  -0.14750  -0.41731  -0.16803   0.00203
           an3          0.23031   0.48300   0.20242  -0.24993  -0.00067
           an4         -0.13409   0.16902   0.29508  -0.17945  -0.01530
           ach          0.03416   0.01198  -0.01425   0.02837   0.00229
           anh         -0.04836   0.01729   0.02564  -0.02002  -0.00094
                          rnh       an1       an2       an3       an4
           rnh          0.46690
           an1         -0.01167   2.33049
           an2          0.01385  -0.92488   2.81540
           an3         -0.00092  -0.29223  -1.41998   2.26969
           an4         -0.00208  -0.25170  -0.27197  -0.34664   1.56690
           ach          0.00026   0.00252  -0.02315  -0.00514   0.08742
           anh         -0.00062  -0.02499  -0.01968   0.00547  -0.00517
                          ach       anh
           ach          0.20898
           anh          0.00108   0.20387
 ITU=  0
     Eigenvalues ---    0.00000   0.15608   0.20412   0.26635   0.37760
     Eigenvalues ---    0.46637   0.61489   0.68385   0.80821   1.94051
     Eigenvalues ---    2.78129   4.22082
 Quadratic step=7.394D+00 exceeds max=3.000D-01 adjusted using Lamda=-1.693D-05.
 Angle between NR and scaled steps=   0.02 degrees.
 Angle between quadratic step and forces=  87.73 degrees.
 Linear search not attempted -- first point.
 Variable       Old X    -DE/DX   Delta X   Delta X   Delta X     New X
                                 (Linear)    (Quad)   (Total)
   rn1        2.29487  -0.00003   0.00000   0.13705   0.13705   2.43191
   rn2        2.54140   0.00003   0.00000   0.09552   0.09552   2.63693
   rn3        2.20400   0.00002   0.00000  -0.04693  -0.04693   2.15708
   rn4        1.87536   0.00004   0.00000  -0.14114  -0.14114   1.73421
   rch        2.05286   0.00000   0.00000   0.00000   0.00000   2.05286
   rnh        1.91631   0.00000   0.00000   0.00000   0.00000   1.91631
   an1        1.29855   0.00003   0.00000  -0.05861  -0.05861   1.23994
   an2        2.40672  -0.00005   0.00000  -0.11687  -0.11687   2.28984
   an3        3.47802  -0.00007   0.00000  -0.13632  -0.13632   3.34170
   an4        4.83900   0.00008   0.00000  -0.06571  -0.06571   4.77329
   ach        2.17772   0.00001   0.00000   0.00002   0.00002   2.17774
   anh        2.10595   0.00001   0.00000   0.00001   0.00001   2.10596
         Item               Value     Threshold  Converged?
 Maximum Force            0.000076     0.000450     YES
 RMS     Force            0.000039     0.000300     YES
 Maximum Displacement     0.141142     0.001800     NO 
 RMS     Displacement     0.086615     0.001200     NO 
 Predicted change in Energy=-1.562652D-06
 GradGradGradGradGradGradGradGradGradGradGradGradGradGradGradGradGradGrad

 1\1\GINC-N514\Freq\RB3LYP\CC-pVDZ\C1H2N4\RDJ3\04-Dec-2013\1\\#N Geom=A
 llCheck Guess=TCheck SCRF=Check GenChk RB3LYP/CC-pVDZ Freq\\1H-tetrazo
 le CH2N4 casno=288948 state=1 config=1 method=68 basis=5\\0,1\X\X,1,1.
 \C,1,1.,2,90.\N,1,rn1,2,90.,3,an1,0\N,1,rn2,2,90.,3,an2,0\N,1,rn3,2,90
 .,3,an3,0\N,1,rn4,2,90.,3,an4,0\H,3,rch,4,ach,5,180.,0\H,4,rnh,5,anh,6
 ,180.,0\\rn1=1.21439109\rn2=1.34485272\rn3=1.16630771\rn4=0.99239548\r
 ch=1.0863287\rnh=1.01406589\an1=74.40155074\an2=137.894792\an3=199.276
 1074\an4=277.25448473\ach=124.77424212\anh=120.66195479\\Version=EM64L
 -G09RevD.01\State=1-A'\HF=-258.2721112\RMSD=4.111e-09\RMSF=1.840e-05\Z
 eroPoint=0.0467197\Thermal=0.0501985\Dipole=1.5557268,-1.3219892,0.\Di
 poleDeriv=0.1800396,0.0819476,0.,-0.0747033,0.4457607,0.,0.,0.,0.08034
 54,-0.1895617,0.280015,0.,0.2138962,-0.3556373,0.,0.,0.,-0.1113204,0.0
 783608,-0.4113454,0.,-0.339503,-0.1409673,0.,0.,0.,-0.0995515,0.042870
 9,0.1606929,0.,0.2139258,-0.0339301,0.,0.,0.,-0.1458657,-0.3597743,-0.
 0958827,0.,-0.0136862,-0.306005,0.,0.,0.,-0.2029366,0.0567272,0.012640
 5,0.,0.0101529,0.1178675,0.,0.,0.,0.1604662,0.1913375,-0.0280679,0.,-0
 .0100824,0.2729115,0.,0.,0.,0.3188627\Polar=38.6291019,-0.5323387,36.4
 585224,0.,0.,16.0517751\PG=CS [SG(C1H2N4)]\NImag=0\\0.95193148,0.00068
 840,0.60662787,0.,0.,0.13899739,-0.17421402,-0.08033196,0.,0.56157962,
 -0.11028887,-0.27169458,0.,-0.09380537,1.00198300,0.,0.,-0.06171635,0.
 ,0.,0.09052366,-0.09564555,-0.08714739,0.,-0.22594051,-0.02671876,0.,0
 .45770476,0.00633428,-0.02235074,0.,0.00759543,-0.10369948,0.,0.079517
 86,0.57532083,0.,0.,0.02093308,0.,0.,-0.06790763,0.,0.,0.11493312,-0.1
 1841243,0.07782233,0.,-0.07042117,0.03500173,0.,-0.11110922,-0.0116348
 1,0.,0.49058138,-0.02402783,0.02817594,0.,0.11283306,-0.10477015,0.,0.
 04689229,-0.34983716,0.,-0.09999376,0.53432163,0.,0.,0.01901646,0.,0.,
 0.02637812,0.,0.,-0.09725409,0.,0.,0.12482529,-0.22059598,0.13106440,0
 .,0.01929683,0.08146487,0.,-0.03040407,-0.11668107,0.,-0.17807601,-0.0
 4102721,0.,0.42334227,0.13807861,-0.28095240,0.,-0.03214764,-0.1060067
 9,0.,-0.01063858,-0.09442627,0.,-0.00349912,-0.10672962,0.,-0.07843997
 ,0.58082466,0.,0.,-0.07870229,0.,0.,0.02150456,0.,0.,0.03556340,0.,0.,
 -0.09000620,0.,0.,0.10941440,-0.35999331,-0.02999948,0.,-0.00366573,0.
 00345548,0.,0.00064039,0.00184925,0.,-0.00096891,0.00011851,0.,-0.0105
 9895,-0.00371213,0.,0.37499357,-0.02587037,-0.05625538,0.,-0.03139258,
 0.00387518,0.,-0.00126556,-0.00687235,0.,0.00611646,-0.00336455,0.,0.0
 2346012,0.01056546,0.,0.02868392,0.05211255,0.,0.,-0.02934107,0.,0.,-0
 .00242268,0.,0.,0.00600645,0.,0.,0.00899301,0.,0.,-0.00500697,0.,0.,0.
 02269720,0.01692981,-0.01209631,0.,-0.10663501,0.11089092,0.,0.0047542
 0,0.03301907,0.,-0.01159364,0.00520494,0.,-0.00296409,-0.00964116,0.,-
 0.00040706,0.00026801,0.,0.09991580,0.01508578,-0.00355071,0.,0.117249
 07,-0.41968718,0.,-0.00063985,0.00186518,0.,-0.00381283,0.00220392,0.,
 0.00015885,-0.00327505,0.,-0.00039556,-0.00006092,0.,-0.12764547,0.422
 50476,0.,0.,-0.00918723,0.,0.,-0.00635969,0.,0.,-0.01227434,0.,0.,0.00
 804739,0.,0.,0.00723310,0.,0.,-0.00092594,0.,0.,0.01346672\\-0.0000149
 7,0.00000115,0.,0.00002690,-0.00001675,0.,0.00001030,0.00003299,0.,0.0
 0002563,0.00002586,0.,-0.00004529,-0.00003568,0.,0.00000003,-0.0000041
 7,0.,-0.00000260,-0.00000340,0.\\\@


 EXPERIENCE IS A WONDERFUL THING.  IT ENABLES
 YOU TO RECOGNIZE A MISTAKE WHEN YOU MAKE IT AGAIN.
           - BACK OF A SUGAR PACKET
 Job cpu time:       0 days  0 hours  2 minutes  3.7 seconds.
 File lengths (MBytes):  RWF=     10 Int=      0 D2E=      0 Chk=      2 Scr=      1
 Normal termination of Gaussian 09 at Wed Dec  4 11:19:05 2013.
