 Entering Gaussian System, Link 0=g09
 Initial command:
 /usr/local/gaussian/g09.d01.em64t.legacy.linda/g09/l1.exe "/tmp/rdj3/g09-16643/Gau-2995.inp" -scrdir="/tmp/rdj3/g09-16643/"
 Entering Link 1 = /usr/local/gaussian/g09.d01.em64t.legacy.linda/g09/l1.exe PID=      2996.
  
 Copyright (c) 1988,1990,1992,1993,1995,1998,2003,2009,2013,
            Gaussian, Inc.  All Rights Reserved.
  
 This is part of the Gaussian(R) 09 program.  It is based on
 the Gaussian(R) 03 system (copyright 2003, Gaussian, Inc.),
 the Gaussian(R) 98 system (copyright 1998, Gaussian, Inc.),
 the Gaussian(R) 94 system (copyright 1995, Gaussian, Inc.),
 the Gaussian 92(TM) system (copyright 1992, Gaussian, Inc.),
 the Gaussian 90(TM) system (copyright 1990, Gaussian, Inc.),
 the Gaussian 88(TM) system (copyright 1988, Gaussian, Inc.),
 the Gaussian 86(TM) system (copyright 1986, Carnegie Mellon
 University), and the Gaussian 82(TM) system (copyright 1983,
 Carnegie Mellon University). Gaussian is a federally registered
 trademark of Gaussian, Inc.
  
 This software contains proprietary and confidential information,
 including trade secrets, belonging to Gaussian, Inc.
  
 This software is provided under written license and may be
 used, copied, transmitted, or stored only in accord with that
 written license.
  
 The following legend is applicable only to US Government
 contracts under FAR:
  
                    RESTRICTED RIGHTS LEGEND
  
 Use, reproduction and disclosure by the US Government is
 subject to restrictions as set forth in subparagraphs (a)
 and (c) of the Commercial Computer Software - Restricted
 Rights clause in FAR 52.227-19.
  
 Gaussian, Inc.
 340 Quinnipiac St., Bldg. 40, Wallingford CT 06492
  
  
 ---------------------------------------------------------------
 Warning -- This program may not be used in any manner that
 competes with the business of Gaussian, Inc. or will provide
 assistance to any competitor of Gaussian, Inc.  The licensee
 of this program is prohibited from giving any competitor of
 Gaussian, Inc. access to this program.  By using this program,
 the user acknowledges that Gaussian, Inc. is engaged in the
 business of creating and licensing software in the field of
 computational chemistry and represents and warrants to the
 licensee that it is not a competitor of Gaussian, Inc. and that
 it will not use this program in any manner prohibited above.
 ---------------------------------------------------------------
  

 Cite this work as:
 Gaussian 09, Revision D.01,
 M. J. Frisch, G. W. Trucks, H. B. Schlegel, G. E. Scuseria, 
 M. A. Robb, J. R. Cheeseman, G. Scalmani, V. Barone, B. Mennucci, 
 G. A. Petersson, H. Nakatsuji, M. Caricato, X. Li, H. P. Hratchian, 
 A. F. Izmaylov, J. Bloino, G. Zheng, J. L. Sonnenberg, M. Hada, 
 M. Ehara, K. Toyota, R. Fukuda, J. Hasegawa, M. Ishida, T. Nakajima, 
 Y. Honda, O. Kitao, H. Nakai, T. Vreven, J. A. Montgomery, Jr., 
 J. E. Peralta, F. Ogliaro, M. Bearpark, J. J. Heyd, E. Brothers, 
 K. N. Kudin, V. N. Staroverov, T. Keith, R. Kobayashi, J. Normand, 
 K. Raghavachari, A. Rendell, J. C. Burant, S. S. Iyengar, J. Tomasi, 
 M. Cossi, N. Rega, J. M. Millam, M. Klene, J. E. Knox, J. B. Cross, 
 V. Bakken, C. Adamo, J. Jaramillo, R. Gomperts, R. E. Stratmann, 
 O. Yazyev, A. J. Austin, R. Cammi, C. Pomelli, J. W. Ochterski, 
 R. L. Martin, K. Morokuma, V. G. Zakrzewski, G. A. Voth, 
 P. Salvador, J. J. Dannenberg, S. Dapprich, A. D. Daniels, 
 O. Farkas, J. B. Foresman, J. V. Ortiz, J. Cioslowski, 
 and D. J. Fox, Gaussian, Inc., Wallingford CT, 2013.
 
 ******************************************
 Gaussian 09:  EM64L-G09RevD.01 24-Apr-2013
                 4-Dec-2013 
 ******************************************
 %Nproc=8
 Will use up to    8 processors via shared memory.
 %mem=436000000
 --------------------------------------------------------
 #PBEPBE/3-21G integral(grid=ultrafine) opt=z-matrix freq
 --------------------------------------------------------
 1/10=7,14=-1,18=40,26=4,38=1/1,3;
 2/12=2,17=6,18=5,29=3,40=1/2;
 3/5=5,11=2,16=1,25=1,30=1,71=1,74=1009,75=-5/1,2,3;
 4//1;
 5/5=2,38=5/2;
 6/7=2,8=2,9=2,10=2,28=1/1;
 7/29=1/1,2,3,16;
 1/10=7,14=-1,18=40,26=4/3(2);
 2/29=3/2;
 99//99;
 2/29=3/2;
 3/5=5,11=2,16=1,25=1,30=1,71=1,74=1009,75=-5/1,2,3;
 4/5=5,16=3,69=1/1;
 5/5=2,38=5/2;
 7//1,2,3,16;
 1/14=-1,18=40,26=4/3(-5);
 2/29=3/2;
 6/7=2,8=2,9=2,10=2,19=2,28=1/1;
 99/9=1/99;
 Leave Link    1 at Wed Dec  4 11:53:39 2013, MaxMem=   436000000 cpu:         0.4
 (Enter /usr/local/gaussian/g09.d01.em64t.legacy.linda/g09/l101.exe)
 ------------------------------------------------------------------
 1H-tetrazole CH2N4 casno=288948 state=1 config=1 method=69 basis=2
 ------------------------------------------------------------------
 Symbolic Z-matrix:
 Charge =  0 Multiplicity = 1
 X
 X                    1     1. 
 C                    1     1.       2     90. 
 N                    1    rn1      2     90.      3    an1      0
 N                    1    rn2      2     90.      3    an2      0
 N                    1    rn3      2     90.      3    an3      0
 N                    1    rn4      2     90.      3    an4      0
 H                    3    rch      4    ach      5     180.     0
 H                    4    rnh      5    anh      6     180.     0
       Variables:
  rn1                   1.2426                   
  rn2                   1.333                    
  rn3                   1.1146                   
  rn4                   0.9264                   
  rch                   1.0678                   
  rnh                   0.9941                   
  an1                  71.8427                   
  an2                 133.7028                   
  an3                 194.4597                   
  an4                 276.0768                   
  ach                 125.0248                   
  anh                 120.7626                   
 
 NAtoms=      7 NQM=        7 NQMF=       0 NMMI=      0 NMMIF=      0
                NMic=       0 NMicF=      0.
                    Isotopes and Nuclear Properties:
 (Nuclear quadrupole moments (NQMom) in fm**2, nuclear magnetic moments (NMagM)
  in nuclear magnetons)

  Atom         1           2           3           4           5           6           7
 IAtWgt=          12          14          14          14          14           1           1
 AtmWgt=  12.0000000  14.0030740  14.0030740  14.0030740  14.0030740   1.0078250   1.0078250
 NucSpn=           0           2           2           2           2           1           1
 AtZEff=   0.0000000   0.0000000   0.0000000   0.0000000   0.0000000   0.0000000   0.0000000
 NQMom=    0.0000000   2.0440000   2.0440000   2.0440000   2.0440000   0.0000000   0.0000000
 NMagM=    0.0000000   0.4037610   0.4037610   0.4037610   0.4037610   2.7928460   2.7928460
 AtZNuc=   6.0000000   7.0000000   7.0000000   7.0000000   7.0000000   1.0000000   1.0000000
 Leave Link  101 at Wed Dec  4 11:53:39 2013, MaxMem=   436000000 cpu:         0.7
 (Enter /usr/local/gaussian/g09.d01.em64t.legacy.linda/g09/l103.exe)

 GradGradGradGradGradGradGradGradGradGradGradGradGradGradGradGradGradGrad
 Berny optimization.
 Initialization pass.
                       ----------------------------
                       !    Initial Parameters    !
                       ! (Angstroms and Degrees)  !
 ----------------------                            ----------------------
 !      Name          Value   Derivative information (Atomic Units)     !
 ------------------------------------------------------------------------
 !       rn1         1.2426   estimate D2E/DX2                          !
 !       rn2         1.333    estimate D2E/DX2                          !
 !       rn3         1.1146   estimate D2E/DX2                          !
 !       rn4         0.9264   estimate D2E/DX2                          !
 !       rch         1.0678   estimate D2E/DX2                          !
 !       rnh         0.9941   estimate D2E/DX2                          !
 !       an1        71.8427   estimate D2E/DX2                          !
 !       an2       133.7028   estimate D2E/DX2                          !
 !       an3       194.4597   estimate D2E/DX2                          !
 !       an4       276.0768   estimate D2E/DX2                          !
 !       ach       125.0248   estimate D2E/DX2                          !
 !       anh       120.7626   estimate D2E/DX2                          !
 ------------------------------------------------------------------------
 Trust Radius=3.00D-01 FncErr=1.00D-07 GrdErr=1.00D-06
 Number of steps in this run=     22 maximum allowed number of steps=    100.
 GradGradGradGradGradGradGradGradGradGradGradGradGradGradGradGradGradGrad

 Leave Link  103 at Wed Dec  4 11:53:39 2013, MaxMem=   436000000 cpu:         0.1
 (Enter /usr/local/gaussian/g09.d01.em64t.legacy.linda/g09/l202.exe)
 ---------------------------------------------------------------------------------------------------
                            Z-MATRIX (ANGSTROMS AND DEGREES)
   CD    Cent   Atom    N1       Length/X        N2       Alpha/Y        N3        Beta/Z          J
 ---------------------------------------------------------------------------------------------------
      1         X 
      2         X        1   1.000000(     1)
      3      1  C        1   1.000000(     2)      2   90.000(     9)
      4      2  N        1   1.242600(     3)      2   90.000(    10)      3   71.843(    16)      0
      5      3  N        1   1.333000(     4)      2   90.000(    11)      3  133.703(    17)      0
      6      4  N        1   1.114600(     5)      2   90.000(    12)      3  194.460(    18)      0
      7      5  N        1   0.926400(     6)      2   90.000(    13)      3  276.077(    19)      0
      8      6  H        3   1.067800(     7)      4  125.025(    14)      5  180.000(    20)      0
      9      7  H        4   0.994100(     8)      5  120.763(    15)      6  180.000(    21)      0
 ---------------------------------------------------------------------------------------------------
                         Z-Matrix orientation:                         
 ---------------------------------------------------------------------
 Center     Atomic      Atomic             Coordinates (Angstroms)
 Number     Number       Type             X           Y           Z
 ---------------------------------------------------------------------
      1         -1           0        0.000000    0.000000    0.000000
      2         -1           0        0.000000    0.000000    1.000000
      3          6           0        1.000000    0.000000    0.000000
      4          7           0        0.387228   -1.180724    0.000000
      5          7           0       -0.920993   -0.963670    0.000000
      6          7           0       -1.079293    0.278314    0.000000
      7          7           0        0.098070    0.921194    0.000000
      8          1           0        2.058429    0.141157    0.000000
      9          1           0        0.749017   -2.106652    0.000000
 ---------------------------------------------------------------------
                    Distance matrix (angstroms):
                    1          2          3          4          5
     1  X    0.000000
     2  X    1.000000   0.000000
     3  C    1.000000   1.414214   0.000000
     4  N    1.242600   1.595009   1.330263   0.000000
     5  N    1.333000   1.666400   2.149157   1.326105   0.000000
     6  N    1.114600   1.497442   2.097837   2.068690   1.252032
     7  N    0.926400   1.363164   1.289216   2.121715   2.142710
     8  H    2.063263   2.292827   1.067800   2.130794   3.177672
     9  H    2.235847   2.449288   2.121551   0.994100   2.023695
                    6          7          8          9
     6  N    0.000000
     7  N    1.341447   0.000000
     8  H    3.140719   2.109850   0.000000
     9  H    3.005127   3.097029   2.601385   0.000000
 Stoichiometry    CH2N4
 Framework group  CS[SG(CH2N4)]
 Deg. of freedom    11
 Full point group                 CS      NOp   2
 Largest Abelian subgroup         CS      NOp   2
 Largest concise Abelian subgroup C1      NOp   1
                         Standard orientation:                         
 ---------------------------------------------------------------------
 Center     Atomic      Atomic             Coordinates (Angstroms)
 Number     Number       Type             X           Y           Z
 ---------------------------------------------------------------------
      1          6           0        1.052733    0.225621    0.000000
      2          7           0        0.000000    1.038857    0.000000
      3          7           0       -1.095416    0.291448    0.000000
      4          7           0       -0.716382   -0.901832    0.000000
      5          7           0        0.622191   -0.989579    0.000000
      6          1           0        2.072287    0.542964    0.000000
      7          1           0       -0.061439    2.031056    0.000000
 ---------------------------------------------------------------------
 Rotational constants (GHZ):     10.9201517     10.7345054      5.4132664
 Leave Link  202 at Wed Dec  4 11:53:39 2013, MaxMem=   436000000 cpu:         0.0
 (Enter /usr/local/gaussian/g09.d01.em64t.legacy.linda/g09/l301.exe)
 Standard basis: 3-21G (6D, 7F)
 Ernie: Thresh=  0.10000D-02 Tol=  0.10000D-05 Strict=F.
 There are    39 symmetry adapted cartesian basis functions of A'  symmetry.
 There are    10 symmetry adapted cartesian basis functions of A"  symmetry.
 There are    39 symmetry adapted basis functions of A'  symmetry.
 There are    10 symmetry adapted basis functions of A"  symmetry.
    49 basis functions,    81 primitive gaussians,    49 cartesian basis functions
    18 alpha electrons       18 beta electrons
       nuclear repulsion energy       169.8308489506 Hartrees.
 IExCor= 1009 DFT=T Ex=PBE Corr=PBE ExCW=0 ScaHFX=  0.000000
 ScaDFX=  1.000000  1.000000  1.000000  1.000000 ScalE2=  1.000000  1.000000
 IRadAn=      5 IRanWt=     -1 IRanGd=            0 ICorTp=0 IEmpDi=  4
 NAtoms=    7 NActive=    7 NUniq=    7 SFac= 1.00D+00 NAtFMM=   60 NAOKFM=F Big=F
 Integral buffers will be    131072 words long.
 Raffenetti 2 integral format.
 Two-electron integral symmetry is turned on.
 Leave Link  301 at Wed Dec  4 11:53:39 2013, MaxMem=   436000000 cpu:         0.3
 (Enter /usr/local/gaussian/g09.d01.em64t.legacy.linda/g09/l302.exe)
 NPDir=0 NMtPBC=     1 NCelOv=     1 NCel=       1 NClECP=     1 NCelD=      1
         NCelK=      1 NCelE2=     1 NClLst=     1 CellRange=     0.0.
 One-electron integrals computed using PRISM.
 NBasis=    49 RedAO= T EigKep=  1.68D-02  NBF=    39    10
 NBsUse=    49 1.00D-06 EigRej= -1.00D+00 NBFU=    39    10
 Precomputing XC quadrature grid using
 IXCGrd= 4 IRadAn=           5 IRanWt=          -1 IRanGd=           0 AccXCQ= 0.00D+00.
 Generated NRdTot=       0 NPtTot=           0 NUsed=           0 NTot=          32
 NSgBfM=    49    49    49    49    49 MxSgAt=     7 MxSgA2=     7.
 Leave Link  302 at Wed Dec  4 11:53:39 2013, MaxMem=   436000000 cpu:         1.0
 (Enter /usr/local/gaussian/g09.d01.em64t.legacy.linda/g09/l303.exe)
 DipDrv:  MaxL=1.
 Leave Link  303 at Wed Dec  4 11:53:39 2013, MaxMem=   436000000 cpu:         0.2
 (Enter /usr/local/gaussian/g09.d01.em64t.legacy.linda/g09/l401.exe)
 ExpMin= 1.83D-01 ExpMax= 2.43D+02 ExpMxC= 2.43D+02 IAcc=3 IRadAn=         5 AccDes= 0.00D+00
 Harris functional with IExCor= 1009 and IRadAn=       5 diagonalized for initial guess.
 HarFok:  IExCor= 1009 AccDes= 0.00D+00 IRadAn=         5 IDoV= 1 UseB2=F ITyADJ=14
 ICtDFT=  3500011 ScaDFX=  1.000000  1.000000  1.000000  1.000000
 FoFCou: FMM=F IPFlag=           0 FMFlag=      100000 FMFlg1=           0
         NFxFlg=           0 DoJE=T BraDBF=F KetDBF=T FulRan=T
         wScrn=  0.000000 ICntrl=     500 IOpCl=  0 I1Cent=   200000004 NGrid=           0
         NMat0=    1 NMatS0=      1 NMatT0=    0 NMatD0=    1 NMtDS0=    0 NMtDT0=    0
 Petite list used in FoFCou.
 Harris En= -256.516343717759    
 JPrj=0 DoOrth=F DoCkMO=F.
 Initial guess orbital symmetries:
       Occupied  (A') (A') (A') (A') (A') (A') (A') (A') (A') (A')
                 (A') (A') (A") (A') (A") (A") (A') (A')
       Virtual   (A") (A") (A') (A') (A') (A') (A') (A') (A') (A')
                 (A") (A') (A') (A') (A') (A") (A') (A") (A') (A")
                 (A') (A") (A') (A') (A') (A') (A') (A') (A') (A')
                 (A')
 The electronic state of the initial guess is 1-A'.
 Leave Link  401 at Wed Dec  4 11:53:39 2013, MaxMem=   436000000 cpu:         1.4
 (Enter /usr/local/gaussian/g09.d01.em64t.legacy.linda/g09/l502.exe)
 Closed shell SCF:
 Using DIIS extrapolation, IDIIS=  1040.
 Integral symmetry usage will be decided dynamically.
 Keep J ints in memory in symmetry-blocked form, NReq=1652052.
 IVT=       26544 IEndB=       26544 NGot=   436000000 MDV=   435545095
 LenX=   435545095 LenY=   435542253
 Requested convergence on RMS density matrix=1.00D-08 within 128 cycles.
 Requested convergence on MAX density matrix=1.00D-06.
 Requested convergence on             energy=1.00D-06.
 No special actions if energy rises.
 FoFCou: FMM=F IPFlag=           0 FMFlag=           0 FMFlg1=           0
         NFxFlg=           0 DoJE=F BraDBF=F KetDBF=F FulRan=T
         wScrn=  0.000000 ICntrl=     600 IOpCl=  0 I1Cent=           0 NGrid=           0
         NMat0=    1 NMatS0=   1225 NMatT0=    0 NMatD0=    1 NMtDS0=    0 NMtDT0=    0
 Petite list used in FoFCou.
 Integral accuracy reduced to 1.0D-05 until final iterations.

 Cycle   1  Pass 0  IDiag  1:
 E= -256.454471142085    
 DIIS: error= 2.76D-02 at cycle   1 NSaved=   1.
 NSaved= 1 IEnMin= 1 EnMin= -256.454471142085     IErMin= 1 ErrMin= 2.76D-02
 ErrMax= 2.76D-02  0.00D+00 EMaxC= 1.00D-01 BMatC= 2.89D-02 BMatP= 2.89D-02
 IDIUse=3 WtCom= 7.24D-01 WtEn= 2.76D-01
 Coeff-Com:  0.100D+01
 Coeff-En:   0.100D+01
 Coeff:      0.100D+01
 Gap=     0.144 Goal=   None    Shift=    0.000
 GapD=    0.144 DampG=1.000 DampE=0.500 DampFc=0.5000 IDamp=-1.
 Damping current iteration by 5.00D-01
 RMSDP=1.88D-02 MaxDP=2.57D-01              OVMax= 1.83D-01

 Cycle   2  Pass 0  IDiag  1:
 E= -256.450614555543     Delta-E=        0.003856586542 Rises=F Damp=T
 DIIS: error= 2.21D-02 at cycle   2 NSaved=   2.
 NSaved= 2 IEnMin= 1 EnMin= -256.454471142085     IErMin= 2 ErrMin= 2.21D-02
 ErrMax= 2.21D-02  0.00D+00 EMaxC= 1.00D-01 BMatC= 1.81D-02 BMatP= 2.89D-02
 IDIUse=3 WtCom= 7.79D-01 WtEn= 2.21D-01
 Coeff-Com:  0.421D+00 0.579D+00
 Coeff-En:   0.539D+00 0.461D+00
 Coeff:      0.447D+00 0.553D+00
 Gap=     0.176 Goal=   None    Shift=    0.000
 RMSDP=4.84D-03 MaxDP=7.00D-02 DE= 3.86D-03 OVMax= 1.44D-01

 Cycle   3  Pass 0  IDiag  1:
 E= -256.487883524861     Delta-E=       -0.037268969317 Rises=F Damp=F
 DIIS: error= 9.05D-03 at cycle   3 NSaved=   3.
 NSaved= 3 IEnMin= 3 EnMin= -256.487883524861     IErMin= 3 ErrMin= 9.05D-03
 ErrMax= 9.05D-03  0.00D+00 EMaxC= 1.00D-01 BMatC= 3.06D-03 BMatP= 1.81D-02
 IDIUse=3 WtCom= 9.10D-01 WtEn= 9.05D-02
 Coeff-Com:  0.107D+00 0.272D+00 0.621D+00
 Coeff-En:   0.000D+00 0.000D+00 0.100D+01
 Coeff:      0.976D-01 0.247D+00 0.655D+00
 Gap=     0.170 Goal=   None    Shift=    0.000
 RMSDP=1.63D-03 MaxDP=1.44D-02 DE=-3.73D-02 OVMax= 2.63D-02

 Cycle   4  Pass 0  IDiag  1:
 E= -256.488878707854     Delta-E=       -0.000995182993 Rises=F Damp=F
 DIIS: error= 6.54D-03 at cycle   4 NSaved=   4.
 NSaved= 4 IEnMin= 4 EnMin= -256.488878707854     IErMin= 4 ErrMin= 6.54D-03
 ErrMax= 6.54D-03  0.00D+00 EMaxC= 1.00D-01 BMatC= 1.94D-03 BMatP= 3.06D-03
 IDIUse=3 WtCom= 9.35D-01 WtEn= 6.54D-02
 Coeff-Com:  0.394D-01 0.128D+00 0.459D+00 0.374D+00
 Coeff-En:   0.000D+00 0.000D+00 0.400D+00 0.600D+00
 Coeff:      0.368D-01 0.120D+00 0.455D+00 0.388D+00
 Gap=     0.176 Goal=   None    Shift=    0.000
 RMSDP=9.47D-04 MaxDP=8.78D-03 DE=-9.95D-04 OVMax= 1.77D-02

 Cycle   5  Pass 0  IDiag  1:
 E= -256.490451004539     Delta-E=       -0.001572296685 Rises=F Damp=F
 DIIS: error= 1.20D-03 at cycle   5 NSaved=   5.
 NSaved= 5 IEnMin= 5 EnMin= -256.490451004539     IErMin= 5 ErrMin= 1.20D-03
 ErrMax= 1.20D-03  0.00D+00 EMaxC= 1.00D-01 BMatC= 6.40D-05 BMatP= 1.94D-03
 IDIUse=3 WtCom= 9.88D-01 WtEn= 1.20D-02
 Coeff-Com:  0.132D-01 0.491D-01 0.199D+00 0.226D+00 0.514D+00
 Coeff-En:   0.000D+00 0.000D+00 0.000D+00 0.000D+00 0.100D+01
 Coeff:      0.131D-01 0.485D-01 0.196D+00 0.223D+00 0.519D+00
 Gap=     0.175 Goal=   None    Shift=    0.000
 RMSDP=1.84D-04 MaxDP=1.45D-03 DE=-1.57D-03 OVMax= 3.12D-03

 Cycle   6  Pass 0  IDiag  1:
 E= -256.490506170255     Delta-E=       -0.000055165717 Rises=F Damp=F
 DIIS: error= 3.22D-04 at cycle   6 NSaved=   6.
 NSaved= 6 IEnMin= 6 EnMin= -256.490506170255     IErMin= 6 ErrMin= 3.22D-04
 ErrMax= 3.22D-04  0.00D+00 EMaxC= 1.00D-01 BMatC= 3.68D-06 BMatP= 6.40D-05
 IDIUse=3 WtCom= 9.97D-01 WtEn= 3.22D-03
 Coeff-Com:  0.407D-02 0.196D-01 0.795D-01 0.102D+00 0.286D+00 0.509D+00
 Coeff-En:   0.000D+00 0.000D+00 0.000D+00 0.000D+00 0.000D+00 0.100D+01
 Coeff:      0.406D-02 0.195D-01 0.792D-01 0.102D+00 0.285D+00 0.510D+00
 Gap=     0.175 Goal=   None    Shift=    0.000
 RMSDP=3.72D-05 MaxDP=4.01D-04 DE=-5.52D-05 OVMax= 8.04D-04

 Cycle   7  Pass 0  IDiag  1:
 E= -256.490508860936     Delta-E=       -0.000002690681 Rises=F Damp=F
 DIIS: error= 1.06D-04 at cycle   7 NSaved=   7.
 NSaved= 7 IEnMin= 7 EnMin= -256.490508860936     IErMin= 7 ErrMin= 1.06D-04
 ErrMax= 1.06D-04  0.00D+00 EMaxC= 1.00D-01 BMatC= 5.71D-07 BMatP= 3.68D-06
 IDIUse=3 WtCom= 9.99D-01 WtEn= 1.06D-03
 Coeff-Com: -0.191D-03 0.226D-02 0.742D-02 0.172D-01 0.718D-01 0.313D+00
 Coeff-Com:  0.588D+00
 Coeff-En:   0.000D+00 0.000D+00 0.000D+00 0.000D+00 0.000D+00 0.128D+00
 Coeff-En:   0.872D+00
 Coeff:     -0.190D-03 0.225D-02 0.741D-02 0.172D-01 0.717D-01 0.313D+00
 Coeff:      0.589D+00
 Gap=     0.175 Goal=   None    Shift=    0.000
 RMSDP=1.75D-05 MaxDP=2.46D-04 DE=-2.69D-06 OVMax= 2.23D-04

 Cycle   8  Pass 0  IDiag  1:
 E= -256.490509335217     Delta-E=       -0.000000474281 Rises=F Damp=F
 DIIS: error= 1.41D-05 at cycle   8 NSaved=   8.
 NSaved= 8 IEnMin= 8 EnMin= -256.490509335217     IErMin= 8 ErrMin= 1.41D-05
 ErrMax= 1.41D-05  0.00D+00 EMaxC= 1.00D-01 BMatC= 8.25D-09 BMatP= 5.71D-07
 IDIUse=1 WtCom= 1.00D+00 WtEn= 0.00D+00
 Coeff-Com: -0.905D-04 0.607D-03 0.236D-02 0.617D-02 0.273D-01 0.122D+00
 Coeff-Com:  0.252D+00 0.590D+00
 Coeff:     -0.905D-04 0.607D-03 0.236D-02 0.617D-02 0.273D-01 0.122D+00
 Coeff:      0.252D+00 0.590D+00
 Gap=     0.175 Goal=   None    Shift=    0.000
 RMSDP=3.94D-06 MaxDP=4.55D-05 DE=-4.74D-07 OVMax= 6.33D-05

 Initial convergence to 1.0D-05 achieved.  Increase integral accuracy.
 Cycle   9  Pass 1  IDiag  1:
 E= -256.490511965934     Delta-E=       -0.000002630717 Rises=F Damp=F
 DIIS: error= 1.14D-05 at cycle   1 NSaved=   1.
 NSaved= 1 IEnMin= 1 EnMin= -256.490511965934     IErMin= 1 ErrMin= 1.14D-05
 ErrMax= 1.14D-05  0.00D+00 EMaxC= 1.00D-01 BMatC= 5.60D-09 BMatP= 5.60D-09
 IDIUse=1 WtCom= 1.00D+00 WtEn= 0.00D+00
 Coeff-Com:  0.100D+01
 Coeff:      0.100D+01
 Gap=     0.175 Goal=   None    Shift=    0.000
 RMSDP=3.94D-06 MaxDP=4.55D-05 DE=-2.63D-06 OVMax= 1.18D-04

 Cycle  10  Pass 1  IDiag  1:
 E= -256.490511942854     Delta-E=        0.000000023080 Rises=F Damp=F
 DIIS: error= 2.66D-05 at cycle   2 NSaved=   2.
 NSaved= 2 IEnMin= 1 EnMin= -256.490511965934     IErMin= 1 ErrMin= 1.14D-05
 ErrMax= 2.66D-05  0.00D+00 EMaxC= 1.00D-01 BMatC= 2.95D-08 BMatP= 5.60D-09
 IDIUse=1 WtCom= 1.00D+00 WtEn= 0.00D+00
 Coeff-Com:  0.699D+00 0.301D+00
 Coeff:      0.699D+00 0.301D+00
 Gap=     0.175 Goal=   None    Shift=    0.000
 RMSDP=3.73D-06 MaxDP=2.89D-05 DE= 2.31D-08 OVMax= 8.53D-05

 Cycle  11  Pass 1  IDiag  1:
 E= -256.490511971348     Delta-E=       -0.000000028493 Rises=F Damp=F
 DIIS: error= 1.35D-06 at cycle   3 NSaved=   3.
 NSaved= 3 IEnMin= 3 EnMin= -256.490511971348     IErMin= 3 ErrMin= 1.35D-06
 ErrMax= 1.35D-06  0.00D+00 EMaxC= 1.00D-01 BMatC= 6.20D-11 BMatP= 5.60D-09
 IDIUse=1 WtCom= 1.00D+00 WtEn= 0.00D+00
 Coeff-Com:  0.192D+00 0.998D-01 0.709D+00
 Coeff:      0.192D+00 0.998D-01 0.709D+00
 Gap=     0.175 Goal=   None    Shift=    0.000
 RMSDP=2.61D-07 MaxDP=1.95D-06 DE=-2.85D-08 OVMax= 4.90D-06

 Cycle  12  Pass 1  IDiag  1:
 E= -256.490511971350     Delta-E=       -0.000000000002 Rises=F Damp=F
 DIIS: error= 1.16D-06 at cycle   4 NSaved=   4.
 NSaved= 4 IEnMin= 4 EnMin= -256.490511971350     IErMin= 4 ErrMin= 1.16D-06
 ErrMax= 1.16D-06  0.00D+00 EMaxC= 1.00D-01 BMatC= 5.74D-11 BMatP= 6.20D-11
 IDIUse=1 WtCom= 1.00D+00 WtEn= 0.00D+00
 Coeff-Com:  0.274D-01 0.253D-01 0.524D+00 0.423D+00
 Coeff:      0.274D-01 0.253D-01 0.524D+00 0.423D+00
 Gap=     0.175 Goal=   None    Shift=    0.000
 RMSDP=1.75D-07 MaxDP=1.22D-06 DE=-2.05D-12 OVMax= 3.83D-06

 Cycle  13  Pass 1  IDiag  1:
 E= -256.490511971395     Delta-E=       -0.000000000045 Rises=F Damp=F
 DIIS: error= 3.88D-07 at cycle   5 NSaved=   5.
 NSaved= 5 IEnMin= 5 EnMin= -256.490511971395     IErMin= 5 ErrMin= 3.88D-07
 ErrMax= 3.88D-07  0.00D+00 EMaxC= 1.00D-01 BMatC= 4.81D-12 BMatP= 5.74D-11
 IDIUse=1 WtCom= 1.00D+00 WtEn= 0.00D+00
 Coeff-Com:  0.953D-02 0.120D-01 0.322D+00 0.307D+00 0.350D+00
 Coeff:      0.953D-02 0.120D-01 0.322D+00 0.307D+00 0.350D+00
 Gap=     0.175 Goal=   None    Shift=    0.000
 RMSDP=5.71D-08 MaxDP=7.89D-07 DE=-4.54D-11 OVMax= 1.05D-06

 Cycle  14  Pass 1  IDiag  1:
 E= -256.490511971400     Delta-E=       -0.000000000005 Rises=F Damp=F
 DIIS: error= 7.49D-08 at cycle   6 NSaved=   6.
 NSaved= 6 IEnMin= 6 EnMin= -256.490511971400     IErMin= 6 ErrMin= 7.49D-08
 ErrMax= 7.49D-08  0.00D+00 EMaxC= 1.00D-01 BMatC= 3.63D-13 BMatP= 4.81D-12
 IDIUse=1 WtCom= 1.00D+00 WtEn= 0.00D+00
 Coeff-Com: -0.229D-04 0.174D-02 0.962D-01 0.121D+00 0.217D+00 0.564D+00
 Coeff:     -0.229D-04 0.174D-02 0.962D-01 0.121D+00 0.217D+00 0.564D+00
 Gap=     0.175 Goal=   None    Shift=    0.000
 RMSDP=1.23D-08 MaxDP=1.09D-07 DE=-5.12D-12 OVMax= 1.99D-07

 Cycle  15  Pass 1  IDiag  1:
 E= -256.490511971401     Delta-E=       -0.000000000001 Rises=F Damp=F
 DIIS: error= 1.48D-08 at cycle   7 NSaved=   7.
 NSaved= 7 IEnMin= 7 EnMin= -256.490511971401     IErMin= 7 ErrMin= 1.48D-08
 ErrMax= 1.48D-08  0.00D+00 EMaxC= 1.00D-01 BMatC= 9.20D-15 BMatP= 3.63D-13
 IDIUse=1 WtCom= 1.00D+00 WtEn= 0.00D+00
 Coeff-Com: -0.184D-03 0.715D-03 0.476D-01 0.636D-01 0.114D+00 0.311D+00
 Coeff-Com:  0.463D+00
 Coeff:     -0.184D-03 0.715D-03 0.476D-01 0.636D-01 0.114D+00 0.311D+00
 Coeff:      0.463D+00
 Gap=     0.175 Goal=   None    Shift=    0.000
 RMSDP=2.55D-09 MaxDP=2.30D-08 DE=-1.02D-12 OVMax= 5.00D-08

 SCF Done:  E(RPBE-PBE) =  -256.490511971     A.U. after   15 cycles
            NFock= 15  Conv=0.26D-08     -V/T= 2.0040
 KE= 2.554769073890D+02 PE=-9.383685415024D+02 EE= 2.565702731915D+02
 Leave Link  502 at Wed Dec  4 11:53:40 2013, MaxMem=   436000000 cpu:         7.8
 (Enter /usr/local/gaussian/g09.d01.em64t.legacy.linda/g09/l601.exe)
 Copying SCF densities to generalized density rwf, IOpCl= 0 IROHF=0.

 **********************************************************************

            Population analysis using the SCF density.

 **********************************************************************

 Orbital symmetries:
       Occupied  (A') (A') (A') (A') (A') (A') (A') (A') (A') (A')
                 (A') (A") (A') (A') (A") (A") (A') (A')
       Virtual   (A") (A") (A') (A') (A') (A') (A') (A') (A') (A')
                 (A") (A') (A') (A') (A") (A') (A") (A') (A') (A")
                 (A') (A") (A') (A') (A') (A') (A') (A') (A') (A')
                 (A')
 The electronic state is 1-A'.
 Alpha  occ. eigenvalues --  -14.04142 -13.99458 -13.97512 -13.95038  -9.92814
 Alpha  occ. eigenvalues --   -1.12792  -0.90273  -0.85888  -0.64009  -0.63256
 Alpha  occ. eigenvalues --   -0.56386  -0.47246  -0.46445  -0.31792  -0.30532
 Alpha  occ. eigenvalues --   -0.28937  -0.23749  -0.21683
 Alpha virt. eigenvalues --   -0.04188  -0.00436   0.05327   0.09741   0.16849
 Alpha virt. eigenvalues --    0.19843   0.28943   0.33768   0.41068   0.63523
 Alpha virt. eigenvalues --    0.64076   0.76374   0.78246   0.86694   0.95309
 Alpha virt. eigenvalues --    0.98912   1.01264   1.02451   1.05919   1.09204
 Alpha virt. eigenvalues --    1.12872   1.14368   1.19605   1.30608   1.32788
 Alpha virt. eigenvalues --    1.39789   1.60717   2.04803   2.31977   2.60771
 Alpha virt. eigenvalues --    2.67780
          Condensed to atoms (all electrons):
               1          2          3          4          5          6
     1  C    5.062310   0.154761  -0.138586  -0.118483   0.338071   0.356275
     2  N    0.154761   7.241012   0.098750  -0.131643  -0.087818  -0.045734
     3  N   -0.138586   0.098750   7.019429   0.182898  -0.121332   0.001993
     4  N   -0.118483  -0.131643   0.182898   6.927441   0.219093   0.004796
     5  N    0.338071  -0.087818  -0.121332   0.219093   7.030301  -0.032648
     6  H    0.356275  -0.045734   0.001993   0.004796  -0.032648   0.438760
     7  H   -0.013381   0.309260  -0.019337   0.005173   0.003975   0.001593
               7
     1  C   -0.013381
     2  N    0.309260
     3  N   -0.019337
     4  N    0.005173
     5  N    0.003975
     6  H    0.001593
     7  H    0.345395
 Mulliken charges:
               1
     1  C    0.359034
     2  N   -0.538588
     3  N   -0.023814
     4  N   -0.089274
     5  N   -0.349642
     6  H    0.274964
     7  H    0.367321
 Sum of Mulliken charges =   0.00000
 Mulliken charges with hydrogens summed into heavy atoms:
               1
     1  C    0.633997
     2  N   -0.171266
     3  N   -0.023814
     4  N   -0.089274
     5  N   -0.349642
 Electronic spatial extent (au):  <R**2>=            244.5511
 Charge=              0.0000 electrons
 Dipole moment (field-independent basis, Debye):
    X=              2.4604    Y=              4.8348    Z=              0.0000  Tot=              5.4248
 Quadrupole moment (field-independent basis, Debye-Ang):
   XX=            -29.1581   YY=            -26.4857   ZZ=            -27.9764
   XY=              1.6538   XZ=              0.0000   YZ=              0.0000
 Traceless Quadrupole moment (field-independent basis, Debye-Ang):
   XX=             -1.2847   YY=              1.3877   ZZ=             -0.1030
   XY=              1.6538   XZ=              0.0000   YZ=              0.0000
 Octapole moment (field-independent basis, Debye-Ang**2):
  XXX=             11.0664  YYY=             21.7648  ZZZ=              0.0000  XYY=             -0.6750
  XXY=              4.3697  XXZ=              0.0000  XZZ=             -1.0349  YZZ=              0.2454
  YYZ=              0.0000  XYZ=              0.0000
 Hexadecapole moment (field-independent basis, Debye-Ang**3):
 XXXX=           -133.9465 YYYY=           -111.3431 ZZZZ=            -22.5148 XXXY=              5.8178
 XXXZ=              0.0000 YYYX=             -0.9444 YYYZ=              0.0000 ZZZX=              0.0000
 ZZZY=              0.0000 XXYY=            -50.2202 XXZZ=            -28.3225 YYZZ=            -26.3047
 XXYZ=              0.0000 YYXZ=              0.0000 ZZXY=             -0.3519
 N-N= 1.698308489506D+02 E-N=-9.383685419313D+02  KE= 2.554769073890D+02
 Symmetry A'   KE= 2.459959372594D+02
 Symmetry A"   KE= 9.480970129548D+00
 No NMR shielding tensors so no spin-rotation constants.
 Leave Link  601 at Wed Dec  4 11:53:40 2013, MaxMem=   436000000 cpu:         0.9
 (Enter /usr/local/gaussian/g09.d01.em64t.legacy.linda/g09/l701.exe)
 Compute integral first derivatives.
 ... and contract with generalized density number  0.
 Leave Link  701 at Wed Dec  4 11:53:41 2013, MaxMem=   436000000 cpu:         1.0
 (Enter /usr/local/gaussian/g09.d01.em64t.legacy.linda/g09/l702.exe)
 L702 exits ... SP integral derivatives will be done elsewhere.
 Leave Link  702 at Wed Dec  4 11:53:41 2013, MaxMem=   436000000 cpu:         0.2
 (Enter /usr/local/gaussian/g09.d01.em64t.legacy.linda/g09/l703.exe)
 Compute integral first derivatives, UseDBF=F ICtDFT=           0.
 Integral derivatives from FoFJK, PRISM(SPDF).
 Calling FoFJK, ICntrl=      2527 FMM=F ISym2X=1 I1Cent= 0 IOpClX= 0 NMat=1 NMatS=1 NMatT=0.
 FoFJK:  IHMeth= 1 ICntrl=    2527 DoSepK=F KAlg= 0 I1Cent=   0 FoldK=F
 IRaf=         0 NMat=   1 IRICut=       1 DoRegI=T DoRafI=F ISym2E= 1.
 FoFCou: FMM=F IPFlag=           0 FMFlag=      100000 FMFlg1=         800
         NFxFlg=           0 DoJE=F BraDBF=F KetDBF=F FulRan=T
         wScrn=  0.000000 ICntrl=    2527 IOpCl=  0 I1Cent=           0 NGrid=           0
         NMat0=    1 NMatS0=      1 NMatT0=    0 NMatD0=    1 NMtDS0=    0 NMtDT0=    0
 Petite list used in FoFCou.
 Leave Link  703 at Wed Dec  4 11:53:41 2013, MaxMem=   436000000 cpu:         1.9
 (Enter /usr/local/gaussian/g09.d01.em64t.legacy.linda/g09/l716.exe)
 Dipole        = 9.67987004D-01 1.90215719D+00 5.77961951D-33
 ***** Axes restored to original set *****
 -------------------------------------------------------------------
 Center     Atomic                   Forces (Hartrees/Bohr)
 Number     Number              X              Y              Z
 -------------------------------------------------------------------
      1        6           0.062319226   -0.005028571    0.000000000
      2        7           0.048458079   -0.036038394    0.000000000
      3        7          -0.066659238   -0.094931826    0.000000000
      4        7          -0.086111602    0.071033428    0.000000000
      5        7           0.023415339    0.084794526    0.000000000
      6        1           0.009683323    0.001529636    0.000000000
      7        1           0.008894873   -0.021358799    0.000000000
 -------------------------------------------------------------------
 Cartesian Forces:  Max     0.094931826 RMS     0.044637267
 -----------------------------------------------------------------------------------------------
                       Internal Coordinate Forces (Hartree/Bohr or radian)
  Cent   Atom   N1       Length/X         N2         Alpha/Y        N3         Beta/Z          J
 -----------------------------------------------------------------------------------------------
         X 
         X        1   0.000000(     1)
      1  C        1   0.071834(     2)      2   0.000000(     9)
      2  N        1   0.072207(     3)      2   0.000000(    10)      3  -0.086696(    16)     0
      3  N        1   0.115002(     4)      2   0.000000(    11)      3  -0.044375(    17)     0
      4  N        1   0.101121(     5)      2   0.000000(    12)      3   0.099588(    18)     0
      5  N        1   0.086797(     6)      2   0.000000(    13)      3   0.025047(    19)     0
      6  H        3   0.009801(     7)      4   0.000476(    14)      5   0.000000(    20)     0
      7  H        4   0.023131(     8)      5   0.000961(    15)      6   0.000000(    21)     0
 -----------------------------------------------------------------------------------------------
 Internal  Forces:  Max     0.115002351 RMS     0.054345231
 Force constants in Cartesian coordinates: 
                1             2             3             4             5 
      1  0.105205D+01
      2 -0.646119D-01  0.104049D+01
      3  0.000000D+00  0.000000D+00  0.194544D+00
      4 -0.280194D+00 -0.176039D+00  0.000000D+00  0.101741D+01
      5 -0.150825D+00 -0.509438D+00  0.000000D+00 -0.272076D-01  0.109828D+01
      6  0.000000D+00  0.000000D+00 -0.107133D+00  0.000000D+00  0.000000D+00
      7 -0.576538D-02  0.299212D-02  0.000000D+00 -0.597238D+00  0.343359D-01
      8 -0.347489D-01  0.180340D-01  0.000000D+00  0.832617D-01 -0.153968D+00
      9  0.000000D+00  0.000000D+00  0.901327D-02  0.000000D+00  0.000000D+00
     10 -0.138620D-01 -0.135721D-01  0.000000D+00  0.684604D-02  0.412622D-01
     11  0.253867D-01  0.248558D-01  0.000000D+00  0.872578D-03  0.525917D-02
     12  0.000000D+00  0.000000D+00  0.334526D-03  0.000000D+00  0.000000D+00
     13 -0.409698D+00  0.299688D+00  0.000000D+00  0.258890D-01 -0.134359D-01
     14  0.248008D+00 -0.447517D+00  0.000000D+00  0.253476D-01 -0.131549D-01
     15  0.000000D+00  0.000000D+00 -0.487885D-01  0.000000D+00  0.000000D+00
     16 -0.370541D+00 -0.339213D-01  0.000000D+00  0.370098D-02 -0.192074D-02
     17 -0.341529D-01 -0.120744D+00  0.000000D+00 -0.277509D-01  0.144022D-01
     18  0.000000D+00  0.000000D+00 -0.763460D-01  0.000000D+00  0.000000D+00
     19  0.280100D-01 -0.145366D-01  0.000000D+00 -0.176415D+00  0.117791D+00
     20  0.109444D-01 -0.567992D-02  0.000000D+00  0.121515D+00 -0.441384D+00
     21  0.000000D+00  0.000000D+00  0.283759D-01  0.000000D+00  0.000000D+00
                6             7             8             9            10 
      6  0.203276D+00
      7  0.000000D+00  0.705746D+00
      8  0.000000D+00 -0.130737D+00  0.942136D+00
      9 -0.489441D-01  0.000000D+00  0.000000D+00  0.501769D-01
     10  0.000000D+00 -0.127739D+00  0.484692D-01  0.000000D+00  0.596756D+00
     11  0.000000D+00  0.127675D+00 -0.813779D+00  0.000000D+00  0.805094D-01
     12  0.357783D-02  0.000000D+00  0.000000D+00 -0.334173D-01  0.000000D+00
     13  0.000000D+00  0.198157D-01  0.252566D-02  0.000000D+00 -0.462001D+00
     14  0.000000D+00 -0.362903D-01 -0.462547D-02  0.000000D+00 -0.156669D+00
     15  0.755838D-02  0.000000D+00  0.000000D+00  0.115249D-01  0.000000D+00
     16  0.000000D+00  0.000000D+00  0.000000D+00  0.000000D+00  0.000000D+00
     17  0.000000D+00  0.000000D+00  0.000000D+00  0.000000D+00  0.000000D+00
     18  0.257218D-01  0.000000D+00  0.000000D+00  0.663842D-02  0.000000D+00
     19  0.000000D+00  0.518145D-02  0.312295D-01  0.000000D+00  0.000000D+00
     20  0.000000D+00  0.202456D-02  0.122023D-01  0.000000D+00  0.000000D+00
     21 -0.840561D-01  0.000000D+00  0.000000D+00  0.500793D-02  0.000000D+00
               11            12            13            14            15 
     11  0.994476D+00
     12  0.000000D+00  0.468287D-01
     13 -0.234443D+00  0.000000D+00  0.829068D+00
     14 -0.210811D+00  0.000000D+00 -0.773865D-01  0.653539D+00
     15  0.000000D+00 -0.315440D-01  0.000000D+00  0.000000D+00  0.483742D-01
     16  0.000000D+00  0.000000D+00 -0.307428D-02 -0.300999D-02  0.000000D+00
     17  0.000000D+00  0.000000D+00  0.230518D-01  0.225697D-01  0.000000D+00
     18  0.000000D+00  0.800918D-02  0.000000D+00  0.000000D+00  0.488095D-02
     19  0.000000D+00  0.000000D+00  0.000000D+00  0.000000D+00  0.000000D+00
     20  0.000000D+00  0.000000D+00  0.000000D+00  0.000000D+00  0.000000D+00
     21  0.000000D+00  0.621095D-02  0.000000D+00  0.000000D+00  0.799404D-02
               16            17            18            19            20 
     16  0.369914D+00
     17  0.388521D-01  0.837724D-01
     18  0.000000D+00  0.000000D+00  0.422935D-01
     19  0.000000D+00  0.000000D+00  0.000000D+00  0.143223D+00
     20  0.000000D+00  0.000000D+00  0.000000D+00 -0.134484D+00  0.434861D+00
     21  0.000000D+00  0.000000D+00 -0.111979D-01  0.000000D+00  0.000000D+00
               21 
     21  0.476652D-01
 Force constants in internal coordinates: 
                1             2             3             4             5 
      1  0.000000D+00
      2  0.000000D+00  0.714021D+00
      3  0.000000D+00  0.239904D-01  0.651862D+00
      4  0.000000D+00  0.477314D-01  0.131790D-01  0.698688D+00
      5  0.000000D+00  0.197619D-01  0.347199D-01  0.733418D-01  0.582621D+00
      6  0.000000D+00  0.182039D+00  0.368833D-01  0.266152D-01  0.139672D+00
      7  0.000000D+00  0.000000D+00  0.000000D+00  0.000000D+00  0.000000D+00
      8  0.000000D+00  0.000000D+00  0.000000D+00  0.000000D+00  0.000000D+00
      9  0.000000D+00  0.000000D+00  0.000000D+00  0.000000D+00  0.000000D+00
     10  0.000000D+00  0.000000D+00  0.000000D+00  0.000000D+00  0.000000D+00
     11  0.000000D+00  0.000000D+00  0.000000D+00  0.000000D+00  0.000000D+00
     12  0.000000D+00  0.000000D+00  0.000000D+00  0.000000D+00  0.000000D+00
     13  0.000000D+00  0.000000D+00  0.000000D+00  0.000000D+00  0.000000D+00
     14  0.000000D+00 -0.103420D+00  0.454635D-01  0.000000D+00  0.000000D+00
     15  0.000000D+00  0.564930D-01 -0.102057D+00  0.527553D-01  0.000000D+00
     16  0.000000D+00  0.664361D+00  0.201189D-01 -0.750165D+00  0.425816D-01
     17  0.000000D+00 -0.819650D-01  0.721191D+00 -0.312336D+00 -0.718649D+00
     18  0.000000D+00  0.444874D-01 -0.291364D-01  0.104797D+01  0.541201D-01
     19  0.000000D+00 -0.789797D+00  0.532811D-01 -0.322785D-01  0.658511D+00
     20  0.000000D+00  0.000000D+00  0.000000D+00  0.000000D+00  0.000000D+00
     21  0.000000D+00  0.000000D+00  0.000000D+00  0.000000D+00  0.000000D+00
                6             7             8             9            10 
      6  0.639214D+00
      7  0.000000D+00  0.375095D+00
      8  0.000000D+00  0.000000D+00  0.487409D+00
      9  0.000000D+00  0.000000D+00  0.000000D+00  0.249630D+00
     10  0.000000D+00  0.000000D+00  0.000000D+00 -0.303690D+00  0.497296D+00
     11  0.000000D+00  0.000000D+00  0.000000D+00  0.196026D+00 -0.464723D+00
     12  0.000000D+00  0.000000D+00  0.000000D+00  0.227135D-03  0.185783D+00
     13  0.000000D+00  0.000000D+00  0.000000D+00 -0.141268D+00  0.791447D-01
     14  0.506551D-01  0.000000D+00  0.000000D+00  0.000000D+00  0.000000D+00
     15  0.000000D+00  0.000000D+00  0.000000D+00  0.000000D+00  0.000000D+00
     16 -0.848555D-01  0.000000D+00  0.000000D+00  0.000000D+00  0.000000D+00
     17  0.543562D-01  0.000000D+00  0.000000D+00  0.000000D+00  0.000000D+00
     18 -0.585825D+00  0.000000D+00  0.000000D+00  0.000000D+00  0.000000D+00
     19 -0.100092D+00  0.000000D+00  0.000000D+00  0.000000D+00  0.000000D+00
     20  0.000000D+00  0.000000D+00  0.000000D+00 -0.737111D-01  0.121332D+00
     21  0.000000D+00  0.000000D+00  0.000000D+00  0.439636D-01 -0.122492D+00
               11            12            13            14            15 
     11  0.555967D+00
     12 -0.331843D+00  0.275779D+00
     13  0.542972D-01 -0.137309D+00  0.148255D+00
     14  0.000000D+00  0.000000D+00  0.000000D+00  0.320000D+00
     15  0.000000D+00  0.000000D+00  0.000000D+00  0.000000D+00  0.320000D+00
     16  0.000000D+00  0.000000D+00  0.000000D+00 -0.104596D+00  0.351877D-01
     17  0.000000D+00  0.000000D+00  0.000000D+00  0.000000D+00 -0.905921D-01
     18  0.000000D+00  0.000000D+00  0.000000D+00  0.000000D+00  0.000000D+00
     19  0.000000D+00  0.000000D+00  0.000000D+00  0.731756D-01  0.000000D+00
     20 -0.118756D+00  0.556353D-01  0.141196D-01  0.000000D+00  0.000000D+00
     21  0.153088D+00 -0.943140D-01  0.225909D-01  0.000000D+00  0.000000D+00
               16            17            18            19            20 
     16  0.453257D+01
     17 -0.268051D+01  0.602300D+01
     18 -0.357339D-01 -0.319618D+01  0.447465D+01
     19 -0.122581D+00 -0.659222D-01 -0.116042D+01  0.258479D+01
     20  0.000000D+00  0.000000D+00  0.000000D+00  0.000000D+00  0.115483D+00
     21  0.000000D+00  0.000000D+00  0.000000D+00  0.000000D+00 -0.298696D-01
               21 
     21  0.124206D+00
 Leave Link  716 at Wed Dec  4 11:53:41 2013, MaxMem=   436000000 cpu:         0.2
 (Enter /usr/local/gaussian/g09.d01.em64t.legacy.linda/g09/l103.exe)

 GradGradGradGradGradGradGradGradGradGradGradGradGradGradGradGradGradGrad
 Berny optimization.
 Search for a local minimum.
 Step number   1 out of a maximum of   22
 All quantities printed in internal units (Hartrees-Bohrs-Radians)
 Second derivative matrix not updated -- first step.
 The second derivative matrix:
                          rn1       rn2       rn3       rn4       rch
           rn1          0.65186
           rn2          0.01318   0.69869
           rn3          0.03472   0.07334   0.58262
           rn4          0.03688   0.02662   0.13967   0.63921
           rch          0.00000   0.00000   0.00000   0.00000   0.37510
           rnh          0.00000   0.00000   0.00000   0.00000   0.00000
           an1          0.02012  -0.75016   0.04258  -0.08486   0.00000
           an2          0.72119  -0.31234  -0.71865   0.05436   0.00000
           an3         -0.02914   1.04797   0.05412  -0.58583   0.00000
           an4          0.05328  -0.03228   0.65851  -0.10009   0.00000
           ach          0.04546   0.00000   0.00000   0.05066   0.00000
           anh         -0.10206   0.05276   0.00000   0.00000   0.00000
                          rnh       an1       an2       an3       an4
           rnh          0.48741
           an1          0.00000   4.53257
           an2          0.00000  -2.68051   6.02300
           an3          0.00000  -0.03573  -3.19618   4.47465
           an4          0.00000  -0.12258  -0.06592  -1.16042   2.58479
           ach          0.00000  -0.10460   0.00000   0.00000   0.07318
           anh          0.00000   0.03519  -0.09059   0.00000   0.00000
                          ach       anh
           ach          0.32000
           anh          0.00000   0.32000
 ITU=  0
     Eigenvalues ---    0.00000   0.13346   0.26445   0.33044   0.37510
     Eigenvalues ---    0.40158   0.48741   0.75609   1.20990   2.99509
     Eigenvalues ---    5.09563   9.64077
 Eigenvalue     1 is  -6.96D-16 should be greater than     0.000000 Eigenvector:
                          rn4       an3       rn1       an2       rn2
   1                    0.46996   0.46737  -0.44908   0.37973  -0.34167
                          an4       an1       rn3       ach       rnh
   1                    0.22152   0.18738   0.11801   0.00000   0.00000
 RFO step:  Lambda=-4.56050396D-02 EMin=-6.95624114D-16
 Linear search not attempted -- first point.
 Variable       Old X    -DE/DX   Delta X   Delta X   Delta X     New X
                                 (Linear)    (Quad)   (Total)
   rn1        2.34817   0.07221   0.00000   0.06087   0.06087   2.40905
   rn2        2.51900   0.11500   0.00000   0.14786   0.14786   2.66686
   rn3        2.10629   0.10112   0.00000   0.17407   0.17407   2.28036
   rn4        1.75064   0.08680   0.00000   0.09001   0.09001   1.84065
   rch        2.01785   0.00980   0.00000   0.02330   0.02330   2.04115
   rnh        1.87858   0.02313   0.00000   0.04340   0.04340   1.92197
   an1        1.25389  -0.08670   0.00000   0.02081   0.02081   1.27470
   an2        2.33355  -0.04437   0.00000   0.02813   0.02813   2.36169
   an3        3.39396   0.09959   0.00000   0.01191   0.01191   3.40587
   an4        4.81845   0.02505   0.00000  -0.02289  -0.02289   4.79556
   ach        2.18209   0.00048   0.00000  -0.00820  -0.00820   2.17389
   anh        2.10770   0.00096   0.00000   0.00325   0.00325   2.11096
         Item               Value     Threshold  Converged?
 Maximum Force            0.115002     0.000450     NO 
 RMS     Force            0.068836     0.000300     NO 
 Maximum Displacement     0.174070     0.001800     NO 
 RMS     Displacement     0.075479     0.001200     NO 
 Predicted change in Energy=-2.436140D-02
 Lowest energy point so far.  Saving SCF results.
 GradGradGradGradGradGradGradGradGradGradGradGradGradGradGradGradGradGrad

 Leave Link  103 at Wed Dec  4 11:53:41 2013, MaxMem=   436000000 cpu:         0.1
 (Enter /usr/local/gaussian/g09.d01.em64t.legacy.linda/g09/l202.exe)
 ---------------------------------------------------------------------------------------------------
                            Z-MATRIX (ANGSTROMS AND DEGREES)
   CD    Cent   Atom    N1       Length/X        N2       Alpha/Y        N3        Beta/Z          J
 ---------------------------------------------------------------------------------------------------
      1         X 
      2         X        1   1.000000(     1)
      3      1  C        1   1.000000(     2)      2   90.000(     9)
      4      2  N        1   1.274814(     3)      2   90.000(    10)      3   73.035(    16)      0
      5      3  N        1   1.411244(     4)      2   90.000(    11)      3  135.315(    17)      0
      6      4  N        1   1.206714(     5)      2   90.000(    12)      3  195.142(    18)      0
      7      5  N        1   0.974030(     6)      2   90.000(    13)      3  274.765(    19)      0
      8      6  H        3   1.080128(     7)      4  124.555(    14)      5  180.000(    20)      0
      9      7  H        4   1.017065(     8)      5  120.949(    15)      6  180.000(    21)      0
 ---------------------------------------------------------------------------------------------------
                         Z-Matrix orientation:                         
 ---------------------------------------------------------------------
 Center     Atomic      Atomic             Coordinates (Angstroms)
 Number     Number       Type             X           Y           Z
 ---------------------------------------------------------------------
      1         -1           0        0.000000    0.000000    0.000000
      2         -1           0        0.000000    0.000000    1.000000
      3          6           0        1.000000    0.000000    0.000000
      4          7           0        0.371971   -1.219339    0.000000
      5          7           0       -1.003367   -0.992403    0.000000
      6          7           0       -1.164819    0.315205    0.000000
      7          7           0        0.080913    0.970663    0.000000
      8          1           0        2.071363    0.137319    0.000000
      9          1           0        0.746039   -2.165116    0.000000
 ---------------------------------------------------------------------
                    Distance matrix (angstroms):
                    1          2          3          4          5
     1  X    0.000000
     2  X    1.000000   0.000000
     3  C    1.000000   1.414214   0.000000
     4  N    1.274814   1.620231   1.371571   0.000000
     5  N    1.411244   1.729627   2.235697   1.393935   0.000000
     6  N    1.206714   1.567214   2.187646   2.171762   1.317538
     7  N    0.974030   1.395971   1.336753   2.209259   2.242608
     8  H    2.075910   2.304214   1.080128   2.174501   3.275704
     9  H    2.290044   2.498860   2.179959   1.017065   2.106104
                    6          7          8          9
     6  N    0.000000
     7  N    1.407649   0.000000
     8  H    3.241068   2.157859   0.000000
     9  H    3.131034   3.205543   2.656631   0.000000
 Stoichiometry    CH2N4
 Framework group  CS[SG(CH2N4)]
 Deg. of freedom    11
 Full point group                 CS      NOp   2
 RotChk:  IX=0 Diff= 5.43D-03
 Largest Abelian subgroup         CS      NOp   2
 Largest concise Abelian subgroup C1      NOp   1
                         Standard orientation:                         
 ---------------------------------------------------------------------
 Center     Atomic      Atomic             Coordinates (Angstroms)
 Number     Number       Type             X           Y           Z
 ---------------------------------------------------------------------
      1          6           0        1.086045    0.247848    0.000000
      2          7           0        0.000000    1.085532    0.000000
      3          7           0       -1.149123    0.296500    0.000000
      4          7           0       -0.740525   -0.956079    0.000000
      5          7           0        0.665623   -1.021070    0.000000
      6          1           0        2.114457    0.578065    0.000000
      7          1           0       -0.062549    2.100671    0.000000
 ---------------------------------------------------------------------
 Rotational constants (GHZ):     10.0036960      9.9073158      4.9776363
 Leave Link  202 at Wed Dec  4 11:53:41 2013, MaxMem=   436000000 cpu:         0.0
 (Enter /usr/local/gaussian/g09.d01.em64t.legacy.linda/g09/l301.exe)
 Standard basis: 3-21G (6D, 7F)
 Ernie: Thresh=  0.10000D-02 Tol=  0.10000D-05 Strict=F.
 There are    39 symmetry adapted cartesian basis functions of A'  symmetry.
 There are    10 symmetry adapted cartesian basis functions of A"  symmetry.
 There are    39 symmetry adapted basis functions of A'  symmetry.
 There are    10 symmetry adapted basis functions of A"  symmetry.
    49 basis functions,    81 primitive gaussians,    49 cartesian basis functions
    18 alpha electrons       18 beta electrons
       nuclear repulsion energy       162.9014307489 Hartrees.
 IExCor= 1009 DFT=T Ex=PBE Corr=PBE ExCW=0 ScaHFX=  0.000000
 ScaDFX=  1.000000  1.000000  1.000000  1.000000 ScalE2=  1.000000  1.000000
 IRadAn=      5 IRanWt=     -1 IRanGd=            0 ICorTp=0 IEmpDi=  4
 NAtoms=    7 NActive=    7 NUniq=    7 SFac= 1.00D+00 NAtFMM=   60 NAOKFM=F Big=F
 Integral buffers will be    131072 words long.
 Raffenetti 2 integral format.
 Two-electron integral symmetry is turned on.
 Leave Link  301 at Wed Dec  4 11:53:41 2013, MaxMem=   436000000 cpu:         0.3
 (Enter /usr/local/gaussian/g09.d01.em64t.legacy.linda/g09/l302.exe)
 NPDir=0 NMtPBC=     1 NCelOv=     1 NCel=       1 NClECP=     1 NCelD=      1
         NCelK=      1 NCelE2=     1 NClLst=     1 CellRange=     0.0.
 One-electron integrals computed using PRISM.
 NBasis=    49 RedAO= T EigKep=  2.03D-02  NBF=    39    10
 NBsUse=    49 1.00D-06 EigRej= -1.00D+00 NBFU=    39    10
 Precomputing XC quadrature grid using
 IXCGrd= 4 IRadAn=           5 IRanWt=          -1 IRanGd=           0 AccXCQ= 0.00D+00.
 Generated NRdTot=       0 NPtTot=           0 NUsed=           0 NTot=          32
 NSgBfM=    49    49    49    49    49 MxSgAt=     7 MxSgA2=     7.
 Leave Link  302 at Wed Dec  4 11:53:41 2013, MaxMem=   436000000 cpu:         1.1
 (Enter /usr/local/gaussian/g09.d01.em64t.legacy.linda/g09/l303.exe)
 DipDrv:  MaxL=1.
 Leave Link  303 at Wed Dec  4 11:53:41 2013, MaxMem=   436000000 cpu:         0.2
 (Enter /usr/local/gaussian/g09.d01.em64t.legacy.linda/g09/l401.exe)
 Initial guess from the checkpoint file:  "/tmp/rdj3/g09-16643/Gau-2996.chk"
 B after Tr=     0.000000    0.000000    0.000000
         Rot=    0.999989    0.000000    0.000000   -0.004674 Ang=  -0.54 deg.
 Guess basis will be translated and rotated to current coordinates.
 JPrj=2 DoOrth=T DoCkMO=T.
 Initial guess orbital symmetries:
       Occupied  (A') (A') (A') (A') (A') (A') (A') (A') (A') (A')
                 (A') (A") (A') (A') (A") (A") (A') (A')
       Virtual   (A') (A') (A') (A') (A') (A') (A') (A') (A') (A')
                 (A') (A') (A') (A') (A') (A') (A') (A') (A') (A')
                 (A') (A') (A') (A') (A") (A") (A") (A") (A") (A")
                 (A")
 The electronic state of the initial guess is 1-A'.
 Generating alternative initial guess.
 ExpMin= 1.83D-01 ExpMax= 2.43D+02 ExpMxC= 2.43D+02 IAcc=2 IRadAn=         4 AccDes= 0.00D+00
 Harris functional with IExCor= 1009 and IRadAn=       4 diagonalized for initial guess.
 HarFok:  IExCor= 1009 AccDes= 0.00D+00 IRadAn=         4 IDoV= 1 UseB2=F ITyADJ=14
 ICtDFT=  3500011 ScaDFX=  1.000000  1.000000  1.000000  1.000000
 FoFCou: FMM=F IPFlag=           0 FMFlag=      100000 FMFlg1=           0
         NFxFlg=           0 DoJE=T BraDBF=F KetDBF=T FulRan=T
         wScrn=  0.000000 ICntrl=     500 IOpCl=  0 I1Cent=   200000004 NGrid=           0
         NMat0=    1 NMatS0=      1 NMatT0=    0 NMatD0=    1 NMtDS0=    0 NMtDT0=    0
 Petite list used in FoFCou.
 Harris En= -256.533748481014    
 Leave Link  401 at Wed Dec  4 11:53:41 2013, MaxMem=   436000000 cpu:         1.4
 (Enter /usr/local/gaussian/g09.d01.em64t.legacy.linda/g09/l502.exe)
 Closed shell SCF:
 Using DIIS extrapolation, IDIIS=  1040.
 Integral symmetry usage will be decided dynamically.
 Keep J ints in memory in symmetry-blocked form, NReq=1652052.
 IVT=       26544 IEndB=       26544 NGot=   436000000 MDV=   435545095
 LenX=   435545095 LenY=   435542253
 Requested convergence on RMS density matrix=1.00D-08 within 128 cycles.
 Requested convergence on MAX density matrix=1.00D-06.
 Requested convergence on             energy=1.00D-06.
 No special actions if energy rises.
 FoFCou: FMM=F IPFlag=           0 FMFlag=           0 FMFlg1=           0
         NFxFlg=           0 DoJE=F BraDBF=F KetDBF=F FulRan=T
         wScrn=  0.000000 ICntrl=     600 IOpCl=  0 I1Cent=           0 NGrid=           0
         NMat0=    1 NMatS0=   1225 NMatT0=    0 NMatD0=    1 NMtDS0=    0 NMtDT0=    0
 Petite list used in FoFCou.
 Integral accuracy reduced to 1.0D-05 until final iterations.

 Cycle   1  Pass 0  IDiag  1:
 E= -256.508851772101    
 DIIS: error= 1.14D-02 at cycle   1 NSaved=   1.
 NSaved= 1 IEnMin= 1 EnMin= -256.508851772101     IErMin= 1 ErrMin= 1.14D-02
 ErrMax= 1.14D-02  0.00D+00 EMaxC= 1.00D-01 BMatC= 8.77D-03 BMatP= 8.77D-03
 IDIUse=3 WtCom= 8.86D-01 WtEn= 1.14D-01
 Coeff-Com:  0.100D+01
 Coeff-En:   0.100D+01
 Coeff:      0.100D+01
 Recover alternate guess density for next cycle.
 RMSDP=9.75D-03 MaxDP=1.04D-01              OVMax= 0.00D+00

 Cycle   2  Pass 0  IDiag  1:
 E= -256.482191098337     Delta-E=        0.026660673764 Rises=F Damp=F
 Switch densities from cycles 1 and 2 for lowest energy.
 DIIS: error= 2.80D-02 at cycle   2 NSaved=   2.
 NSaved= 2 IEnMin= 1 EnMin= -256.508851772101     IErMin= 1 ErrMin= 1.14D-02
 ErrMax= 2.80D-02  0.00D+00 EMaxC= 1.00D+00 BMatC= 2.70D-02 BMatP= 8.77D-03
 IDIUse=1 WtCom= 1.00D+00 WtEn= 0.00D+00
 Coeff-Com:  0.746D+00 0.254D+00
 Coeff:      0.746D+00 0.254D+00
 Gap=     0.974 Goal=   None    Shift=    0.000
 RMSDP=4.09D-03 MaxDP=3.49D-02 DE= 2.67D-02 OVMax= 3.44D-02

 Cycle   3  Pass 0  IDiag  1:
 E= -256.508055899602     Delta-E=       -0.025864801265 Rises=F Damp=F
 DIIS: error= 1.74D-02 at cycle   3 NSaved=   3.
 NSaved= 3 IEnMin= 1 EnMin= -256.508851772101     IErMin= 1 ErrMin= 1.14D-02
 ErrMax= 1.74D-02  0.00D+00 EMaxC= 1.00D+00 BMatC= 9.30D-03 BMatP= 8.77D-03
 IDIUse=1 WtCom= 1.00D+00 WtEn= 0.00D+00
 Coeff-Com:  0.195D+00 0.286D+00 0.520D+00
 Coeff:      0.195D+00 0.286D+00 0.520D+00
 Gap=     0.178 Goal=   None    Shift=    0.000
 RMSDP=2.81D-03 MaxDP=2.55D-02 DE=-2.59D-02 OVMax= 5.28D-02

 Cycle   4  Pass 0  IDiag  1:
 E= -256.515384143453     Delta-E=       -0.007328243851 Rises=F Damp=F
 DIIS: error= 9.66D-03 at cycle   4 NSaved=   4.
 NSaved= 4 IEnMin= 4 EnMin= -256.515384143453     IErMin= 4 ErrMin= 9.66D-03
 ErrMax= 9.66D-03  0.00D+00 EMaxC= 1.00D+00 BMatC= 2.13D-03 BMatP= 8.77D-03
 IDIUse=1 WtCom= 1.00D+00 WtEn= 0.00D+00
 Coeff-Com:  0.484D-01 0.919D-01 0.346D+00 0.514D+00
 Coeff:      0.484D-01 0.919D-01 0.346D+00 0.514D+00
 Gap=     0.174 Goal=   None    Shift=    0.000
 RMSDP=9.79D-04 MaxDP=8.52D-03 DE=-7.33D-03 OVMax= 2.13D-02

 Cycle   5  Pass 0  IDiag  1:
 E= -256.516945131039     Delta-E=       -0.001560987586 Rises=F Damp=F
 DIIS: error= 3.20D-03 at cycle   5 NSaved=   5.
 NSaved= 5 IEnMin= 5 EnMin= -256.516945131039     IErMin= 5 ErrMin= 3.20D-03
 ErrMax= 3.20D-03  0.00D+00 EMaxC= 1.00D+00 BMatC= 4.31D-04 BMatP= 2.13D-03
 IDIUse=1 WtCom= 1.00D+00 WtEn= 0.00D+00
 Coeff-Com:  0.167D-01 0.358D-01 0.200D+00 0.378D+00 0.370D+00
 Coeff:      0.167D-01 0.358D-01 0.200D+00 0.378D+00 0.370D+00
 Gap=     0.173 Goal=   None    Shift=    0.000
 RMSDP=4.05D-04 MaxDP=3.87D-03 DE=-1.56D-03 OVMax= 8.60D-03

 Cycle   6  Pass 0  IDiag  1:
 E= -256.517299569415     Delta-E=       -0.000354438376 Rises=F Damp=F
 DIIS: error= 5.90D-04 at cycle   6 NSaved=   6.
 NSaved= 6 IEnMin= 6 EnMin= -256.517299569415     IErMin= 6 ErrMin= 5.90D-04
 ErrMax= 5.90D-04  0.00D+00 EMaxC= 1.00D+00 BMatC= 2.00D-05 BMatP= 4.31D-04
 IDIUse=1 WtCom= 1.00D+00 WtEn= 0.00D+00
 Coeff-Com:  0.359D-02 0.162D-01 0.922D-01 0.181D+00 0.230D+00 0.477D+00
 Coeff:      0.359D-02 0.162D-01 0.922D-01 0.181D+00 0.230D+00 0.477D+00
 Gap=     0.173 Goal=   None    Shift=    0.000
 RMSDP=9.64D-05 MaxDP=8.42D-04 DE=-3.54D-04 OVMax= 1.91D-03

 Cycle   7  Pass 0  IDiag  1:
 E= -256.517314939672     Delta-E=       -0.000015370257 Rises=F Damp=F
 DIIS: error= 2.80D-04 at cycle   7 NSaved=   7.
 NSaved= 7 IEnMin= 7 EnMin= -256.517314939672     IErMin= 7 ErrMin= 2.80D-04
 ErrMax= 2.80D-04  0.00D+00 EMaxC= 1.00D+00 BMatC= 3.08D-06 BMatP= 2.00D-05
 IDIUse=1 WtCom= 1.00D+00 WtEn= 0.00D+00
 Coeff-Com: -0.475D-03 0.737D-02 0.394D-01 0.786D-01 0.113D+00 0.319D+00
 Coeff-Com:  0.443D+00
 Coeff:     -0.475D-03 0.737D-02 0.394D-01 0.786D-01 0.113D+00 0.319D+00
 Coeff:      0.443D+00
 Gap=     0.173 Goal=   None    Shift=    0.000
 RMSDP=2.95D-05 MaxDP=3.33D-04 DE=-1.54D-05 OVMax= 5.99D-04

 Cycle   8  Pass 0  IDiag  1:
 E= -256.517317570529     Delta-E=       -0.000002630857 Rises=F Damp=F
 DIIS: error= 5.43D-05 at cycle   8 NSaved=   8.
 NSaved= 8 IEnMin= 8 EnMin= -256.517317570529     IErMin= 8 ErrMin= 5.43D-05
 ErrMax= 5.43D-05  0.00D+00 EMaxC= 1.00D+00 BMatC= 9.73D-08 BMatP= 3.08D-06
 IDIUse=1 WtCom= 1.00D+00 WtEn= 0.00D+00
 Coeff-Com: -0.614D-04 0.573D-03 0.402D-02 0.868D-02 0.180D-01 0.784D-01
 Coeff-Com:  0.194D+00 0.697D+00
 Coeff:     -0.614D-04 0.573D-03 0.402D-02 0.868D-02 0.180D-01 0.784D-01
 Coeff:      0.194D+00 0.697D+00
 Gap=     0.173 Goal=   None    Shift=    0.000
 RMSDP=7.79D-06 MaxDP=9.76D-05 DE=-2.63D-06 OVMax= 9.14D-05

 Initial convergence to 1.0D-05 achieved.  Increase integral accuracy.
 Cycle   9  Pass 1  IDiag  1:
 E= -256.517318360137     Delta-E=       -0.000000789608 Rises=F Damp=F
 DIIS: error= 1.14D-05 at cycle   1 NSaved=   1.
 NSaved= 1 IEnMin= 1 EnMin= -256.517318360137     IErMin= 1 ErrMin= 1.14D-05
 ErrMax= 1.14D-05  0.00D+00 EMaxC= 1.00D+00 BMatC= 6.29D-09 BMatP= 6.29D-09
 IDIUse=1 WtCom= 1.00D+00 WtEn= 0.00D+00
 Coeff-Com:  0.100D+01
 Coeff:      0.100D+01
 Gap=     0.173 Goal=   None    Shift=    0.000
 RMSDP=7.79D-06 MaxDP=9.76D-05 DE=-7.90D-07 OVMax= 1.09D-04

 Cycle  10  Pass 1  IDiag  1:
 E= -256.517318327228     Delta-E=        0.000000032909 Rises=F Damp=F
 DIIS: error= 3.24D-05 at cycle   2 NSaved=   2.
 NSaved= 2 IEnMin= 1 EnMin= -256.517318360137     IErMin= 1 ErrMin= 1.14D-05
 ErrMax= 3.24D-05  0.00D+00 EMaxC= 1.00D+00 BMatC= 4.07D-08 BMatP= 6.29D-09
 IDIUse=1 WtCom= 1.00D+00 WtEn= 0.00D+00
 Coeff-Com:  0.721D+00 0.279D+00
 Coeff:      0.721D+00 0.279D+00
 Gap=     0.173 Goal=   None    Shift=    0.000
 RMSDP=4.28D-06 MaxDP=5.14D-05 DE= 3.29D-08 OVMax= 8.34D-05

 Cycle  11  Pass 1  IDiag  1:
 E= -256.517318366010     Delta-E=       -0.000000038782 Rises=F Damp=F
 DIIS: error= 1.89D-06 at cycle   3 NSaved=   3.
 NSaved= 3 IEnMin= 3 EnMin= -256.517318366010     IErMin= 3 ErrMin= 1.89D-06
 ErrMax= 1.89D-06  0.00D+00 EMaxC= 1.00D+00 BMatC= 1.48D-10 BMatP= 6.29D-09
 IDIUse=1 WtCom= 1.00D+00 WtEn= 0.00D+00
 Coeff-Com:  0.230D+00 0.113D+00 0.656D+00
 Coeff:      0.230D+00 0.113D+00 0.656D+00
 Gap=     0.173 Goal=   None    Shift=    0.000
 RMSDP=5.28D-07 MaxDP=4.27D-06 DE=-3.88D-08 OVMax= 9.85D-06

 Cycle  12  Pass 1  IDiag  1:
 E= -256.517318365983     Delta-E=        0.000000000028 Rises=F Damp=F
 DIIS: error= 3.34D-06 at cycle   4 NSaved=   4.
 NSaved= 4 IEnMin= 3 EnMin= -256.517318366010     IErMin= 3 ErrMin= 1.89D-06
 ErrMax= 3.34D-06  0.00D+00 EMaxC= 1.00D+00 BMatC= 2.05D-10 BMatP= 1.48D-10
 IDIUse=1 WtCom= 1.00D+00 WtEn= 0.00D+00
 Coeff-Com:  0.890D-01 0.547D-01 0.550D+00 0.306D+00
 Coeff:      0.890D-01 0.547D-01 0.550D+00 0.306D+00
 Gap=     0.173 Goal=   None    Shift=    0.000
 RMSDP=2.94D-07 MaxDP=2.44D-06 DE= 2.77D-11 OVMax= 6.30D-06

 Cycle  13  Pass 1  IDiag  1:
 E= -256.517318366171     Delta-E=       -0.000000000188 Rises=F Damp=F
 DIIS: error= 4.22D-07 at cycle   5 NSaved=   5.
 NSaved= 5 IEnMin= 5 EnMin= -256.517318366171     IErMin= 5 ErrMin= 4.22D-07
 ErrMax= 4.22D-07  0.00D+00 EMaxC= 1.00D+00 BMatC= 4.44D-12 BMatP= 1.48D-10
 IDIUse=1 WtCom= 1.00D+00 WtEn= 0.00D+00
 Coeff-Com:  0.121D-01 0.100D-01 0.182D+00 0.166D+00 0.630D+00
 Coeff:      0.121D-01 0.100D-01 0.182D+00 0.166D+00 0.630D+00
 Gap=     0.173 Goal=   None    Shift=    0.000
 RMSDP=5.28D-08 MaxDP=3.88D-07 DE=-1.88D-10 OVMax= 8.79D-07

 Cycle  14  Pass 1  IDiag  1:
 E= -256.517318366175     Delta-E=       -0.000000000005 Rises=F Damp=F
 DIIS: error= 4.16D-08 at cycle   6 NSaved=   6.
 NSaved= 6 IEnMin= 6 EnMin= -256.517318366175     IErMin= 6 ErrMin= 4.16D-08
 ErrMax= 4.16D-08  0.00D+00 EMaxC= 1.00D+00 BMatC= 1.48D-13 BMatP= 4.44D-12
 IDIUse=1 WtCom= 1.00D+00 WtEn= 0.00D+00
 Coeff-Com:  0.643D-03 0.161D-02 0.589D-01 0.651D-01 0.273D+00 0.600D+00
 Coeff:      0.643D-03 0.161D-02 0.589D-01 0.651D-01 0.273D+00 0.600D+00
 Gap=     0.173 Goal=   None    Shift=    0.000
 RMSDP=1.05D-08 MaxDP=9.69D-08 DE=-4.89D-12 OVMax= 1.63D-07

 Cycle  15  Pass 1  IDiag  1:
 E= -256.517318366176     Delta-E=        0.000000000000 Rises=F Damp=F
 DIIS: error= 3.66D-08 at cycle   7 NSaved=   7.
 NSaved= 7 IEnMin= 7 EnMin= -256.517318366176     IErMin= 7 ErrMin= 3.66D-08
 ErrMax= 3.66D-08  0.00D+00 EMaxC= 1.00D+00 BMatC= 5.71D-14 BMatP= 1.48D-13
 IDIUse=1 WtCom= 1.00D+00 WtEn= 0.00D+00
 Coeff-Com: -0.416D-04 0.648D-03 0.331D-01 0.388D-01 0.166D+00 0.441D+00
 Coeff-Com:  0.320D+00
 Coeff:     -0.416D-04 0.648D-03 0.331D-01 0.388D-01 0.166D+00 0.441D+00
 Coeff:      0.320D+00
 Gap=     0.173 Goal=   None    Shift=    0.000
 RMSDP=4.58D-09 MaxDP=3.83D-08 DE=-1.14D-13 OVMax= 9.51D-08

 SCF Done:  E(RPBE-PBE) =  -256.517318366     A.U. after   15 cycles
            NFock= 15  Conv=0.46D-08     -V/T= 2.0074
 KE= 2.546321270563D+02 PE=-9.241741324030D+02 EE= 2.501232562317D+02
 Leave Link  502 at Wed Dec  4 11:53:42 2013, MaxMem=   436000000 cpu:         7.8
 (Enter /usr/local/gaussian/g09.d01.em64t.legacy.linda/g09/l701.exe)
 Compute integral first derivatives.
 ... and contract with generalized density number  0.
 Leave Link  701 at Wed Dec  4 11:53:42 2013, MaxMem=   436000000 cpu:         0.8
 (Enter /usr/local/gaussian/g09.d01.em64t.legacy.linda/g09/l702.exe)
 L702 exits ... SP integral derivatives will be done elsewhere.
 Leave Link  702 at Wed Dec  4 11:53:43 2013, MaxMem=   436000000 cpu:         0.1
 (Enter /usr/local/gaussian/g09.d01.em64t.legacy.linda/g09/l703.exe)
 Compute integral first derivatives, UseDBF=F ICtDFT=           0.
 Integral derivatives from FoFJK, PRISM(SPDF).
 Calling FoFJK, ICntrl=      2527 FMM=F ISym2X=1 I1Cent= 0 IOpClX= 0 NMat=1 NMatS=1 NMatT=0.
 FoFJK:  IHMeth= 1 ICntrl=    2527 DoSepK=F KAlg= 0 I1Cent=   0 FoldK=F
 IRaf=         0 NMat=   1 IRICut=       1 DoRegI=T DoRafI=F ISym2E= 1.
 FoFCou: FMM=F IPFlag=           0 FMFlag=      100000 FMFlg1=         800
         NFxFlg=           0 DoJE=F BraDBF=F KetDBF=F FulRan=T
         wScrn=  0.000000 ICntrl=    2527 IOpCl=  0 I1Cent=           0 NGrid=           0
         NMat0=    1 NMatS0=      1 NMatT0=    0 NMatD0=    1 NMtDS0=    0 NMtDT0=    0
 Petite list used in FoFCou.
 Leave Link  703 at Wed Dec  4 11:53:43 2013, MaxMem=   436000000 cpu:         1.8
 (Enter /usr/local/gaussian/g09.d01.em64t.legacy.linda/g09/l716.exe)
 Dipole        = 9.61218032D-01 1.89170492D+00 1.94111344D-32
 ***** Axes restored to original set *****
 -------------------------------------------------------------------
 Center     Atomic                   Forces (Hartrees/Bohr)
 Number     Number              X              Y              Z
 -------------------------------------------------------------------
      1        6           0.003985080   -0.005062629    0.000000000
      2        7           0.017843258    0.004117190    0.000000000
      3        7          -0.022068306   -0.030872625    0.000000000
      4        7          -0.020598569    0.014330235    0.000000000
      5        7           0.018969994    0.020548629    0.000000000
      6        1           0.001202058    0.000491971    0.000000000
      7        1           0.000666486   -0.003552772    0.000000000
 -------------------------------------------------------------------
 Cartesian Forces:  Max     0.030872625 RMS     0.012427868
 -----------------------------------------------------------------------------------------------
                       Internal Coordinate Forces (Hartree/Bohr or radian)
  Cent   Atom   N1       Length/X         N2         Alpha/Y        N3         Beta/Z          J
 -----------------------------------------------------------------------------------------------
         X 
         X        1   0.000000(     1)
      1  C        1   0.004952(     2)      2   0.000000(     9)
      2  N        1   0.005494(     3)      2   0.000000(    10)      3  -0.042967(    16)     0
      3  N        1   0.036994(     4)      2   0.000000(    11)      3  -0.016366(    17)     0
      4  N        1   0.023627(     5)      2   0.000000(    12)      3   0.019274(    18)     0
      5  N        1   0.022053(     6)      2   0.000000(    13)      3   0.031654(    19)     0
      6  H        3   0.001255(     7)      4   0.000684(    14)      5   0.000000(    20)     0
      7  H        4   0.003549(     8)      5  -0.001320(    15)      6   0.000000(    21)     0
 -----------------------------------------------------------------------------------------------
 Internal  Forces:  Max     0.042967308 RMS     0.016863303
 Leave Link  716 at Wed Dec  4 11:53:43 2013, MaxMem=   436000000 cpu:         0.2
 (Enter /usr/local/gaussian/g09.d01.em64t.legacy.linda/g09/l103.exe)

 GradGradGradGradGradGradGradGradGradGradGradGradGradGradGradGradGradGrad
 Berny optimization.
 Search for a local minimum.
 Step number   2 out of a maximum of   22
 All quantities printed in internal units (Hartrees-Bohrs-Radians)
 Update second derivatives using D2CorN and points    1    2
 DE= -2.68D-02 DEPred=-2.44D-02 R= 1.10D+00
 TightC=F SS=  1.41D+00  RLast= 2.61D-01 DXNew= 5.0454D-01 7.8440D-01
 Trust test= 1.10D+00 RLast= 2.61D-01 DXMaxT set to 5.05D-01
 The second derivative matrix:
                          rn1       rn2       rn3       rn4       rch
           rn1          0.64944
           rn2         -0.00323   0.63326
           rn3          0.02427   0.01786   0.54268
           rn4          0.02710  -0.01271   0.10649   0.61558
           rch         -0.00055  -0.00536  -0.00292  -0.00318   0.37503
           rnh         -0.00156  -0.01130  -0.00698  -0.00673  -0.00033
           an1          0.03926  -0.70728   0.09610  -0.05868   0.00745
           an2          0.72849  -0.29947  -0.69941   0.06228   0.00297
           an3         -0.03771   1.02508   0.02891  -0.59972  -0.00321
           an4          0.03918  -0.06257   0.61951  -0.11861  -0.00554
           ach          0.04516   0.00067  -0.00041   0.05104  -0.00017
           anh         -0.10147   0.05362   0.00150   0.00054   0.00025
                          rnh       an1       an2       an3       an4
           rnh          0.48641
           an1          0.01370   4.54594
           an2          0.00528  -2.66879   6.03026
           an3         -0.00608  -0.03476  -3.19850   4.47139
           an4         -0.01012  -0.13491  -0.07561  -1.16013   2.59574
           ach         -0.00024  -0.10739  -0.00128   0.00103   0.07531
           anh          0.00043   0.03646  -0.08987  -0.00032  -0.00102
                          ach       anh
           ach          0.32013
           anh         -0.00011   0.32007
 ITU=  1  0
     Eigenvalues ---    0.00000   0.13454   0.26774   0.32909   0.37463
     Eigenvalues ---    0.38903   0.48615   0.69784   1.21023   2.97349
     Eigenvalues ---    5.08279   9.64040
 Eigenvalue     1 is  -3.03D-07 should be greater than     0.000000 Eigenvector:
                          rn4       an3       rn1       an2       rn2
   1                    0.47006   0.46744  -0.44878   0.37941  -0.34255
                          an4       an1       rn3       ach       anh
   1                    0.22180   0.18707   0.11686  -0.00019   0.00018
 RFO step:  Lambda=-1.68251269D-03 EMin=-3.02717093D-07
 Quartic linear search produced a step of  0.38315.
 Variable       Old X    -DE/DX   Delta X   Delta X   Delta X     New X
                                 (Linear)    (Quad)   (Total)
   rn1        2.40905   0.00549   0.02332   0.04167   0.06499   2.47404
   rn2        2.66686   0.03699   0.05665   0.09856   0.15521   2.82207
   rn3        2.28036   0.02363   0.06669  -0.02856   0.03813   2.31849
   rn4        1.84065   0.02205   0.03449  -0.07618  -0.04170   1.79895
   rch        2.04115   0.00125   0.00893  -0.00176   0.00716   2.04831
   rnh        1.92197   0.00355   0.01663  -0.00288   0.01374   1.93572
   an1        1.27470  -0.04297   0.00797  -0.02817  -0.02020   1.25450
   an2        2.36169  -0.01637   0.01078  -0.06160  -0.05082   2.31087
   an3        3.40587   0.01927   0.00456  -0.08509  -0.08053   3.32534
   an4        4.79556   0.03165  -0.00877  -0.02357  -0.03234   4.76321
   ach        2.17389   0.00068  -0.00314   0.00326   0.00011   2.17401
   anh        2.11096  -0.00132   0.00125  -0.02352  -0.02227   2.08869
         Item               Value     Threshold  Converged?
 Maximum Force            0.042967     0.000450     NO 
 RMS     Force            0.022262     0.000300     NO 
 Maximum Displacement     0.155209     0.001800     NO 
 RMS     Displacement     0.059697     0.001200     NO 
 Predicted change in Energy=-1.880721D-03
 Lowest energy point so far.  Saving SCF results.
 GradGradGradGradGradGradGradGradGradGradGradGradGradGradGradGradGradGrad

 Leave Link  103 at Wed Dec  4 11:53:43 2013, MaxMem=   436000000 cpu:         0.1
 (Enter /usr/local/gaussian/g09.d01.em64t.legacy.linda/g09/l202.exe)
 ---------------------------------------------------------------------------------------------------
                            Z-MATRIX (ANGSTROMS AND DEGREES)
   CD    Cent   Atom    N1       Length/X        N2       Alpha/Y        N3        Beta/Z          J
 ---------------------------------------------------------------------------------------------------
      1         X 
      2         X        1   1.000000(     1)
      3      1  C        1   1.000000(     2)      2   90.000(     9)
      4      2  N        1   1.309205(     3)      2   90.000(    10)      3   71.878(    16)      0
      5      3  N        1   1.493376(     4)      2   90.000(    11)      3  132.403(    17)      0
      6      4  N        1   1.226894(     5)      2   90.000(    12)      3  190.528(    18)      0
      7      5  N        1   0.951965(     6)      2   90.000(    13)      3  272.912(    19)      0
      8      6  H        3   1.083917(     7)      4  124.561(    14)      5  180.000(    20)      0
      9      7  H        4   1.024337(     8)      5  119.673(    15)      6  180.000(    21)      0
 ---------------------------------------------------------------------------------------------------
                         Z-Matrix orientation:                         
 ---------------------------------------------------------------------
 Center     Atomic      Atomic             Coordinates (Angstroms)
 Number     Number       Type             X           Y           Z
 ---------------------------------------------------------------------
      1         -1           0        0.000000    0.000000    0.000000
      2         -1           0        0.000000    0.000000    1.000000
      3          6           0        1.000000    0.000000    0.000000
      4          7           0        0.407221   -1.244263    0.000000
      5          7           0       -1.007046   -1.102738    0.000000
      6          7           0       -1.206241    0.224170    0.000000
      7          7           0        0.048362    0.950736    0.000000
      8          1           0        2.070311    0.171205    0.000000
      9          1           0        0.823179   -2.180343    0.000000
 ---------------------------------------------------------------------
                    Distance matrix (angstroms):
                    1          2          3          4          5
     1  X    0.000000
     2  X    1.000000   0.000000
     3  C    1.000000   1.414214   0.000000
     4  N    1.309205   1.647428   1.378251   0.000000
     5  N    1.493376   1.797268   2.290036   1.421330   0.000000
     6  N    1.226894   1.582804   2.217600   2.181640   1.341776
     7  N    0.951965   1.380665   1.345181   2.224140   2.308818
     8  H    2.077378   2.305537   1.083917   2.183899   3.330624
     9  H    2.330562   2.536044   2.187501   1.024337   2.123901
                    6          7          8          9
     6  N    0.000000
     7  N    1.449802   0.000000
     8  H    3.276980   2.167013   0.000000
     9  H    3.146462   3.225522   2.661787   0.000000
 Stoichiometry    CH2N4
 Framework group  CS[SG(CH2N4)]
 Deg. of freedom    11
 Full point group                 CS      NOp   2
 RotChk:  IX=0 Diff= 6.13D-02
 Largest Abelian subgroup         CS      NOp   2
 Largest concise Abelian subgroup C1      NOp   1
                         Standard orientation:                         
 ---------------------------------------------------------------------
 Center     Atomic      Atomic             Coordinates (Angstroms)
 Number     Number       Type             X           Y           Z
 ---------------------------------------------------------------------
      1          6           0        1.101645    0.255570    0.000000
      2          7           0        0.000000    1.083793    0.000000
      3          7           0       -1.187892    0.303349    0.000000
      4          7           0       -0.749881   -0.964921    0.000000
      5          7           0        0.698556   -1.027798    0.000000
      6          1           0        2.129535    0.599545    0.000000
      7          1           0       -0.064886    2.106073    0.000000
 ---------------------------------------------------------------------
 Rotational constants (GHZ):      9.9141461      9.4199770      4.8303731
 Leave Link  202 at Wed Dec  4 11:53:43 2013, MaxMem=   436000000 cpu:         0.0
 (Enter /usr/local/gaussian/g09.d01.em64t.legacy.linda/g09/l301.exe)
 Standard basis: 3-21G (6D, 7F)
 Ernie: Thresh=  0.10000D-02 Tol=  0.10000D-05 Strict=F.
 There are    39 symmetry adapted cartesian basis functions of A'  symmetry.
 There are    10 symmetry adapted cartesian basis functions of A"  symmetry.
 There are    39 symmetry adapted basis functions of A'  symmetry.
 There are    10 symmetry adapted basis functions of A"  symmetry.
    49 basis functions,    81 primitive gaussians,    49 cartesian basis functions
    18 alpha electrons       18 beta electrons
       nuclear repulsion energy       160.5168159540 Hartrees.
 IExCor= 1009 DFT=T Ex=PBE Corr=PBE ExCW=0 ScaHFX=  0.000000
 ScaDFX=  1.000000  1.000000  1.000000  1.000000 ScalE2=  1.000000  1.000000
 IRadAn=      5 IRanWt=     -1 IRanGd=            0 ICorTp=0 IEmpDi=  4
 NAtoms=    7 NActive=    7 NUniq=    7 SFac= 1.00D+00 NAtFMM=   60 NAOKFM=F Big=F
 Integral buffers will be    131072 words long.
 Raffenetti 2 integral format.
 Two-electron integral symmetry is turned on.
 Leave Link  301 at Wed Dec  4 11:53:43 2013, MaxMem=   436000000 cpu:         0.3
 (Enter /usr/local/gaussian/g09.d01.em64t.legacy.linda/g09/l302.exe)
 NPDir=0 NMtPBC=     1 NCelOv=     1 NCel=       1 NClECP=     1 NCelD=      1
         NCelK=      1 NCelE2=     1 NClLst=     1 CellRange=     0.0.
 One-electron integrals computed using PRISM.
 NBasis=    49 RedAO= T EigKep=  2.12D-02  NBF=    39    10
 NBsUse=    49 1.00D-06 EigRej= -1.00D+00 NBFU=    39    10
 Precomputing XC quadrature grid using
 IXCGrd= 4 IRadAn=           5 IRanWt=          -1 IRanGd=           0 AccXCQ= 0.00D+00.
 Generated NRdTot=       0 NPtTot=           0 NUsed=           0 NTot=          32
 NSgBfM=    49    49    49    49    49 MxSgAt=     7 MxSgA2=     7.
 Leave Link  302 at Wed Dec  4 11:53:43 2013, MaxMem=   436000000 cpu:         1.0
 (Enter /usr/local/gaussian/g09.d01.em64t.legacy.linda/g09/l303.exe)
 DipDrv:  MaxL=1.
 Leave Link  303 at Wed Dec  4 11:53:43 2013, MaxMem=   436000000 cpu:         0.2
 (Enter /usr/local/gaussian/g09.d01.em64t.legacy.linda/g09/l401.exe)
 Initial guess from the checkpoint file:  "/tmp/rdj3/g09-16643/Gau-2996.chk"
 B after Tr=     0.000000    0.000000    0.000000
[...]
     X                                                                             X                 X       X X                     
     X                                                                             X                 X       X X                     
     X                                                                             X                         X X                     
     X                                                                             X                         X X                     
     X                                                                             X                         X X                     
     X                                                                                                       X X                     
     X                                                                                                       X X                     
     X                                                                                                         X                     
     X                                                                                                         X                     
     X                                                                                                         X                     
     X                                                                                                         X                     
     X                                                                                                         X                     
                                                                                                               X                     
                                                                                                               X                     
                                                                                                               X                     
                                                                                                               X                     
                                                                                                               X                     
 
 ***** Axes restored to original set *****
 -------------------------------------------------------------------
 Center     Atomic                   Forces (Hartrees/Bohr)
 Number     Number              X              Y              Z
 -------------------------------------------------------------------
      1        6           0.000090723   -0.000043223    0.000000000
      2        7          -0.000018722    0.000021777    0.000000000
      3        7           0.000016670   -0.000035702    0.000000000
      4        7           0.000038806    0.000077096    0.000000000
      5        7          -0.000125940   -0.000017961    0.000000000
      6        1          -0.000000487   -0.000000022    0.000000000
      7        1          -0.000001049   -0.000001964    0.000000000
 -------------------------------------------------------------------
 Cartesian Forces:  Max     0.000125940 RMS     0.000041470
 -----------------------------------------------------------------------------------------------
                       Internal Coordinate Forces (Hartree/Bohr or radian)
  Cent   Atom   N1       Length/X         N2         Alpha/Y        N3         Beta/Z          J
 -----------------------------------------------------------------------------------------------
         X 
         X        1   0.000000(     1)
      1  C        1   0.000090(     2)      2   0.000000(     9)
      2  N        1  -0.000025(     3)      2   0.000000(    10)      3   0.000028(    16)     0
      3  N        1   0.000019(     4)      2   0.000000(    11)      3  -0.000097(    17)     0
      4  N        1  -0.000039(     5)      2   0.000000(    12)      3   0.000177(    18)     0
      5  N        1  -0.000013(     6)      2   0.000000(    13)      3  -0.000205(    19)     0
      6  H        3   0.000000(     7)      4   0.000000(    14)      5   0.000000(    20)     0
      7  H        4   0.000001(     8)      5  -0.000004(    15)      6   0.000000(    21)     0
 -----------------------------------------------------------------------------------------------
 Internal  Forces:  Max     0.000205104 RMS     0.000067094
 Force constants in Cartesian coordinates: 
                1             2             3             4             5 
      1  0.843107D+00
      2  0.783404D-01  0.516076D+00
      3  0.000000D+00  0.000000D+00  0.138914D+00
      4 -0.121161D+00 -0.307150D-01  0.000000D+00  0.458449D+00
      5 -0.699481D-01 -0.250822D+00  0.000000D+00 -0.166698D+00  0.836438D+00
      6  0.000000D+00  0.000000D+00 -0.624272D-01  0.000000D+00  0.000000D+00
      7 -0.740217D-01 -0.943243D-01  0.000000D+00 -0.106101D+00 -0.380677D-01
      8 -0.110585D-01 -0.336355D-01  0.000000D+00 -0.117778D-01 -0.846836D-01
      9  0.000000D+00  0.000000D+00  0.189132D-01  0.000000D+00  0.000000D+00
     10 -0.119329D+00  0.395408D-01  0.000000D+00 -0.921885D-01  0.316163D-01
     11 -0.360937D-01  0.141064D-01  0.000000D+00  0.911022D-01 -0.680516D-01
     12  0.000000D+00  0.000000D+00  0.148968D-01  0.000000D+00  0.000000D+00
     13 -0.209040D+00  0.103093D+00  0.000000D+00  0.893432D-02  0.848222D-01
     14  0.984195D-01 -0.176920D+00  0.000000D+00 -0.533807D-02 -0.899842D-01
     15  0.000000D+00  0.000000D+00 -0.721779D-01  0.000000D+00  0.000000D+00
     16 -0.333261D+00 -0.836824D-01  0.000000D+00  0.133169D-02  0.469892D-02
     17 -0.797258D-01 -0.663649D-01  0.000000D+00 -0.324977D-01 -0.601733D-02
     18  0.000000D+00  0.000000D+00 -0.314083D-01  0.000000D+00  0.000000D+00
     19  0.137045D-01 -0.122521D-01  0.000000D+00 -0.149265D+00  0.153576D+00
     20  0.200661D-01 -0.244010D-02  0.000000D+00  0.155924D+00 -0.336880D+00
     21  0.000000D+00  0.000000D+00 -0.671048D-02  0.000000D+00  0.000000D+00
                6             7             8             9            10 
      6  0.889232D-01
      7  0.000000D+00  0.280777D+00
      8  0.000000D+00  0.793642D-01  0.384022D+00
      9 -0.568685D-01  0.000000D+00  0.000000D+00  0.899099D-01
     10  0.000000D+00 -0.795646D-01 -0.142194D-01  0.000000D+00  0.381210D+00
     11  0.000000D+00  0.514767D-01 -0.166990D+00  0.000000D+00 -0.865089D-01
     12  0.195781D-01  0.000000D+00  0.000000D+00 -0.751897D-01  0.000000D+00
     13  0.000000D+00 -0.233816D-01 -0.751115D-01  0.000000D+00 -0.794362D-01
     14  0.000000D+00  0.526497D-02 -0.999053D-01  0.000000D+00  0.319295D-01
     15  0.218753D-01  0.000000D+00  0.000000D+00  0.270291D-01  0.000000D+00
     16  0.000000D+00  0.665134D-03  0.482277D-02  0.000000D+00 -0.820346D-03
     17  0.000000D+00  0.711231D-03 -0.586171D-02  0.000000D+00  0.583168D-02
     18 -0.654353D-03  0.000000D+00  0.000000D+00  0.479951D-02  0.000000D+00
     19  0.000000D+00  0.162756D-02  0.279802D-01  0.000000D+00 -0.987121D-02
     20  0.000000D+00 -0.442509D-02  0.705413D-02  0.000000D+00 -0.818994D-02
     21 -0.104265D-01  0.000000D+00  0.000000D+00 -0.859348D-02  0.000000D+00
               11            12            13            14            15 
     11  0.271704D+00
     12  0.000000D+00  0.969185D-01
     13 -0.224304D-01  0.000000D+00  0.318580D+00
     14 -0.498326D-01  0.000000D+00 -0.113563D+00  0.411484D+00
     15  0.000000D+00 -0.712197D-01  0.000000D+00  0.000000D+00  0.916791D-01
     16 -0.831115D-03  0.000000D+00 -0.132287D-01 -0.780834D-02  0.000000D+00
     17 -0.188252D-02  0.000000D+00  0.217693D-01  0.904180D-02  0.000000D+00
     18  0.000000D+00  0.859885D-02  0.000000D+00  0.000000D+00 -0.358266D-02
     19  0.328525D-02  0.000000D+00 -0.242821D-02 -0.890423D-02  0.000000D+00
     20  0.946023D-03  0.000000D+00  0.142120D-02 -0.388361D-02  0.000000D+00
     21  0.000000D+00  0.641707D-02  0.000000D+00  0.000000D+00  0.639677D-02
               16            17            18            19            20 
     16  0.345607D+00
     17  0.836045D-01  0.717365D-01
     18  0.000000D+00  0.000000D+00  0.230695D-01
     19 -0.293459D-03  0.306786D-03  0.000000D+00  0.146526D+00
     20 -0.804324D-03 -0.651866D-03  0.000000D+00 -0.163992D+00  0.335855D+00
     21  0.000000D+00  0.000000D+00 -0.822622D-03  0.000000D+00  0.000000D+00
               21 
     21  0.137393D-01
 Force constants in internal coordinates: 
                1             2             3             4             5 
      1  0.000000D+00
      2  0.000000D+00  0.548802D+00
      3  0.000000D+00 -0.292086D-01  0.504920D+00
      4  0.000000D+00  0.543278D-01 -0.617048D-01  0.416958D+00
      5  0.000000D+00  0.124455D+00  0.512292D-01 -0.481558D-01  0.381637D+00
      6  0.000000D+00  0.915079D-01  0.946276D-01  0.716311D-01 -0.350221D-01
      7  0.000000D+00  0.116555D-01 -0.351299D-02 -0.342187D-02 -0.760942D-03
      8  0.000000D+00 -0.102675D-01  0.791885D-02 -0.105152D-01 -0.208399D-02
      9  0.000000D+00  0.000000D+00  0.000000D+00  0.000000D+00  0.000000D+00
     10  0.000000D+00  0.000000D+00  0.000000D+00  0.000000D+00  0.000000D+00
     11  0.000000D+00  0.000000D+00  0.000000D+00  0.000000D+00  0.000000D+00
     12  0.000000D+00  0.000000D+00  0.000000D+00  0.000000D+00  0.000000D+00
     13  0.000000D+00  0.000000D+00  0.000000D+00  0.000000D+00  0.000000D+00
     14  0.000000D+00 -0.733446D-01  0.406976D-01  0.113685D-01 -0.119625D-01
     15  0.000000D+00  0.409889D-01 -0.536431D-01  0.157962D-01  0.244664D-01
     16  0.000000D+00  0.286156D+00  0.168039D+00 -0.202740D+00 -0.225504D+00
     17  0.000000D+00  0.154334D+00  0.128896D+00 -0.317390D-01 -0.187691D+00
     18  0.000000D+00 -0.827903D-01  0.220983D+00  0.258528D+00  0.198063D+00
     19  0.000000D+00 -0.384861D+00 -0.955239D-01  0.125483D+00  0.126627D+00
     20  0.000000D+00  0.000000D+00  0.000000D+00  0.000000D+00  0.000000D+00
     21  0.000000D+00  0.000000D+00  0.000000D+00  0.000000D+00  0.000000D+00
                6             7             8             9            10 
      6  0.419908D+00
      7 -0.486042D-02  0.369102D+00
      8 -0.104972D-02  0.717088D-03  0.430532D+00
      9  0.000000D+00  0.000000D+00  0.000000D+00  0.345170D+00
     10  0.000000D+00  0.000000D+00  0.000000D+00 -0.372898D+00  0.618378D+00
     11  0.000000D+00  0.000000D+00  0.000000D+00  0.129091D+00 -0.534918D+00
     12  0.000000D+00  0.000000D+00  0.000000D+00  0.132996D+00  0.167124D+00
     13  0.000000D+00  0.000000D+00  0.000000D+00 -0.234498D+00  0.120934D+00
     14  0.201817D-01  0.347441D-02  0.111923D-02  0.000000D+00  0.000000D+00
     15 -0.185240D-01 -0.126116D-02 -0.407919D-02  0.000000D+00  0.000000D+00
     16  0.131198D+00  0.141738D-01 -0.822316D-02  0.000000D+00  0.000000D+00
     17 -0.162317D+00  0.378132D-02  0.421849D-02  0.000000D+00  0.000000D+00
     18 -0.112273D+00 -0.298531D-02  0.194634D-02  0.000000D+00  0.000000D+00
     19 -0.177765D+00 -0.116084D-01 -0.404283D-02  0.000000D+00  0.000000D+00
     20  0.000000D+00  0.000000D+00  0.000000D+00 -0.104256D-01  0.388593D-01
     21  0.000000D+00  0.000000D+00  0.000000D+00 -0.243405D-01  0.250350D-01
               11            12            13            14            15 
     11  0.773757D+00
     12 -0.520208D+00  0.498984D+00
     13  0.155265D+00 -0.281430D+00  0.240883D+00
     14  0.000000D+00  0.000000D+00  0.000000D+00  0.202126D+00
     15  0.000000D+00  0.000000D+00  0.000000D+00  0.447394D-03  0.193534D+00
     16  0.000000D+00  0.000000D+00  0.000000D+00  0.178561D-01 -0.265333D-01
     17  0.000000D+00  0.000000D+00  0.000000D+00 -0.260075D-01 -0.258294D-01
     18  0.000000D+00  0.000000D+00  0.000000D+00 -0.742987D-02  0.145695D-01
     19  0.000000D+00  0.000000D+00  0.000000D+00  0.825878D-01 -0.545311D-02
     20 -0.545197D-01  0.357488D-01 -0.986749D-02  0.000000D+00  0.000000D+00
     21 -0.680928D-02 -0.111685D-01  0.173125D-01  0.000000D+00  0.000000D+00
               16            17            18            19            20 
     16  0.213989D+01
     17 -0.667676D+00  0.203788D+01
     18 -0.364282D+00 -0.924704D+00  0.143199D+01
     19 -0.228413D+00 -0.113352D+00 -0.911978D-01  0.814973D+00
     20  0.000000D+00  0.000000D+00  0.000000D+00  0.000000D+00  0.665983D-01
     21  0.000000D+00  0.000000D+00  0.000000D+00  0.000000D+00 -0.233361D-02
               21 
     21  0.383024D-01
 Leave Link  716 at Wed Dec  4 11:54:14 2013, MaxMem=   436000000 cpu:         0.2
 (Enter /usr/local/gaussian/g09.d01.em64t.legacy.linda/g09/l103.exe)

 GradGradGradGradGradGradGradGradGradGradGradGradGradGradGradGradGradGrad
 Berny optimization.
 Search for a local minimum.
 Step number   1 out of a maximum of    2
 All quantities printed in internal units (Hartrees-Bohrs-Radians)
 Second derivative matrix not updated -- analytic derivatives used.
 The second derivative matrix:
                          rn1       rn2       rn3       rn4       rch
           rn1          0.50492
           rn2         -0.06170   0.41696
           rn3          0.05123  -0.04816   0.38164
           rn4          0.09463   0.07163  -0.03502   0.41991
           rch         -0.00351  -0.00342  -0.00076  -0.00486   0.36910
           rnh          0.00792  -0.01052  -0.00208  -0.00105   0.00072
           an1          0.16804  -0.20274  -0.22550   0.13120   0.01417
           an2          0.12890  -0.03174  -0.18769  -0.16232   0.00378
           an3          0.22098   0.25853   0.19806  -0.11227  -0.00299
           an4         -0.09552   0.12548   0.12663  -0.17777  -0.01161
           ach          0.04070   0.01137  -0.01196   0.02018   0.00347
           anh         -0.05364   0.01580   0.02447  -0.01852  -0.00126
                          rnh       an1       an2       an3       an4
           rnh          0.43053
           an1         -0.00822   2.13989
           an2          0.00422  -0.66768   2.03788
           an3          0.00195  -0.36428  -0.92470   1.43199
           an4         -0.00404  -0.22841  -0.11335  -0.09120   0.81497
           ach          0.00112   0.01786  -0.02601  -0.00743   0.08259
           anh         -0.00408  -0.02653  -0.02583   0.01457  -0.00545
                          ach       anh
           ach          0.20213
           anh          0.00045   0.19353
 ITU=  0
     Eigenvalues ---    0.00001   0.14187   0.19234   0.24080   0.36843
     Eigenvalues ---    0.42965   0.47438   0.50645   0.65386   1.03745
     Eigenvalues ---    2.37560   2.92261
 Angle between quadratic step and forces=  89.22 degrees.
 Linear search not attempted -- first point.
 Variable       Old X    -DE/DX   Delta X   Delta X   Delta X     New X
                                 (Linear)    (Quad)   (Total)
   rn1        2.67121  -0.00002   0.00000   0.11140   0.11140   2.78261
   rn2        2.94664   0.00002   0.00000   0.10139   0.10139   3.04803
   rn3        2.29762  -0.00004   0.00000  -0.00036  -0.00036   2.29726
   rn4        1.62101  -0.00001   0.00000  -0.12178  -0.12178   1.49924
   rch        2.04694   0.00000   0.00000  -0.00001  -0.00001   2.04693
   rnh        1.93200   0.00000   0.00000   0.00000   0.00000   1.93200
   an1        1.15818   0.00003   0.00000  -0.04613  -0.04613   1.11204
   an2        2.15847  -0.00010   0.00000  -0.08735  -0.08735   2.07113
   an3        3.14406   0.00018   0.00000  -0.11731  -0.11731   3.02675
   an4        4.67468  -0.00021   0.00000  -0.06753  -0.06753   4.60715
   ach        2.16238   0.00000   0.00000   0.00012   0.00012   2.16250
   anh        2.09807   0.00000   0.00000  -0.00008  -0.00008   2.09798
         Item               Value     Threshold  Converged?
 Maximum Force            0.000205     0.000450     YES
 RMS     Force            0.000085     0.000300     YES
 Maximum Displacement     0.121776     0.001800     NO 
 RMS     Displacement     0.073937     0.001200     NO 
 Predicted change in Energy=-5.138563D-07
 GradGradGradGradGradGradGradGradGradGradGradGradGradGradGradGradGradGrad

 Leave Link  103 at Wed Dec  4 11:54:14 2013, MaxMem=   436000000 cpu:         0.1
 (Enter /usr/local/gaussian/g09.d01.em64t.legacy.linda/g09/l9999.exe)
 1\1\GINC-N514\Freq\RPBEPBE\3-21G\C1H2N4\RDJ3\04-Dec-2013\1\\#P Geom=Al
 lCheck Guess=TCheck SCRF=Check GenChk RPBEPBE/3-21G Freq\\1H-tetrazole
  CH2N4 casno=288948 state=1 config=1 method=69 basis=2\\0,1\X\X,1,1.\C
 ,1,1.,2,90.\N,1,rn1,2,90.,3,an1,0\N,1,rn2,2,90.,3,an2,0\N,1,rn3,2,90.,
 3,an3,0\N,1,rn4,2,90.,3,an4,0\H,3,rch,4,ach,5,180.,0\H,4,rnh,5,anh,6,1
 80.,0\\rn1=1.41354505\rn2=1.55929392\rn3=1.21584633\rn4=0.85780398\rch
 =1.08319429\rnh=1.02236986\an1=66.35858636\an2=123.67145879\an3=180.14
 161217\an4=267.83967265\ach=123.89508974\anh=120.21035503\\Version=EM6
 4L-G09RevD.01\State=1-A'\HF=-256.5202381\RMSD=4.889e-09\RMSF=4.147e-05
 \ZeroPoint=0.043096\Thermal=0.0467791\Dipole=1.8252769,-1.0410562,0.\D
 ipoleDeriv=0.1507566,0.0761705,0.,-0.1497343,0.3018352,0.,0.,0.,0.0412
 247,-0.3690376,0.1800298,0.,0.2143461,-0.2812288,0.,0.,0.,-0.2433588,0
 .2389185,-0.2044768,0.,-0.1837331,-0.1763253,0.,0.,0.,-0.0612891,0.119
 7582,0.0392097,0.,0.1556985,-0.0719816,0.,0.,0.,-0.1503092,-0.4016301,
 -0.0761531,0.,-0.0336931,-0.1469484,0.,0.,0.,-0.1722902,0.0585097,-0.0
 185637,0.,0.0113756,0.1316073,0.,0.,0.,0.1941523,0.2027247,0.0037837,0
 .,-0.0142598,0.2430417,0.,0.,0.,0.3918703\Polar=37.6885199,-0.3479852,
 35.1761235,0.,0.,11.5115981\PG=CS [SG(C1H2N4)]\NImag=0\\0.84310742,0.0
 7834044,0.51607578,0.,0.,0.13891385,-0.12116059,-0.03071503,0.,0.45844
 932,-0.06994813,-0.25082151,0.,-0.16669768,0.83643829,0.,0.,-0.0624271
 8,0.,0.,0.08892317,-0.07402173,-0.09432427,0.,-0.10610126,-0.03806768,
 0.,0.28077657,-0.01105846,-0.03363549,0.,-0.01177776,-0.08468364,0.,0.
 07936416,0.38402168,0.,0.,0.01891323,0.,0.,-0.05686853,0.,0.,0.0899098
 9,-0.11932922,0.03954076,0.,-0.09218853,0.03161634,0.,-0.07956464,-0.0
 1421938,0.,0.38121016,-0.03609367,0.01410643,0.,0.09110222,-0.06805162
 ,0.,0.05147668,-0.16698965,0.,-0.08650894,0.27170390,0.,0.,0.01489679,
 0.,0.,0.01957814,0.,0.,-0.07518970,0.,0.,0.09691852,-0.20903962,0.1030
 9261,0.,0.00893432,0.08482219,0.,-0.02338163,-0.07511149,0.,-0.0794362
 1,-0.02243043,0.,0.31858008,0.09841952,-0.17692023,0.,-0.00533807,-0.0
 8998424,0.,0.00526497,-0.09990532,0.,0.03192948,-0.04983256,0.,-0.1135
 6333,0.41148417,0.,0.,-0.07217793,0.,0.,0.02187528,0.,0.,0.02702908,0.
 ,0.,-0.07121968,0.,0.,0.09167914,-0.33326080,-0.08368243,0.,0.00133169
 ,0.00469892,0.,0.00066513,0.00482277,0.,-0.00082035,-0.00083112,0.,-0.
 01322873,-0.00780834,0.,0.34560652,-0.07972577,-0.06636488,0.,-0.03249
 771,-0.00601733,0.,0.00071123,-0.00586171,0.,0.00583168,-0.00188252,0.
 ,0.02176926,0.00904180,0.,0.08360452,0.07173651,0.,0.,-0.03140828,0.,0
 .,-0.00065435,0.,0.,0.00479951,0.,0.,0.00859885,0.,0.,-0.00358266,0.,0
 .,0.02306954,0.01370455,-0.01225209,0.,-0.14926495,0.15357604,0.,0.001
 62756,0.02798017,0.,-0.00987121,0.00328525,0.,-0.00242821,-0.00890423,
 0.,-0.00029346,0.00030679,0.,0.14652572,0.02006607,-0.00244010,0.,0.15
 592403,-0.33687995,0.,-0.00442509,0.00705413,0.,-0.00818994,0.00094602
 ,0.,0.00142120,-0.00388361,0.,-0.00080432,-0.00065187,0.,-0.16399193,0
 .33585538,0.,0.,-0.00671048,0.,0.,-0.01042651,0.,0.,-0.00859348,0.,0.,
 0.00641707,0.,0.,0.00639677,0.,0.,-0.00082262,0.,0.,0.01373926\\-0.000
 09072,0.00004322,0.,0.00001872,-0.00002178,0.,-0.00001667,0.00003570,0
 .,-0.00003881,-0.00007710,0.,0.00012594,0.00001796,0.,0.00000049,0.000
 00002,0.,0.00000105,0.00000196,0.\\\@


 BE NOT THE FIRST BY WHOM THE NEW ARE TRIED,
 NOR YET THE THE LAST TO LAY THE OLD ASIDE.

                          -- ALEXANDER POPE
 Job cpu time:       0 days  0 hours  0 minutes 43.3 seconds.
 File lengths (MBytes):  RWF=      5 Int=      0 D2E=      0 Chk=      1 Scr=      1
 Normal termination of Gaussian 09 at Wed Dec  4 11:54:14 2013.
