 Entering Gaussian System, Link 0=g09
 Initial command:
 /usr/local/gaussian/g09.d01.em64t.legacy.linda/g09/l1.exe "/tmp/rdj3/g09-16643/Gau-11179.inp" -scrdir="/tmp/rdj3/g09-16643/"
 Entering Link 1 = /usr/local/gaussian/g09.d01.em64t.legacy.linda/g09/l1.exe PID=     11180.
  
 Copyright (c) 1988,1990,1992,1993,1995,1998,2003,2009,2013,
            Gaussian, Inc.  All Rights Reserved.
  
 This is part of the Gaussian(R) 09 program.  It is based on
 the Gaussian(R) 03 system (copyright 2003, Gaussian, Inc.),
 the Gaussian(R) 98 system (copyright 1998, Gaussian, Inc.),
 the Gaussian(R) 94 system (copyright 1995, Gaussian, Inc.),
 the Gaussian 92(TM) system (copyright 1992, Gaussian, Inc.),
 the Gaussian 90(TM) system (copyright 1990, Gaussian, Inc.),
 the Gaussian 88(TM) system (copyright 1988, Gaussian, Inc.),
 the Gaussian 86(TM) system (copyright 1986, Carnegie Mellon
 University), and the Gaussian 82(TM) system (copyright 1983,
 Carnegie Mellon University). Gaussian is a federally registered
 trademark of Gaussian, Inc.
  
 This software contains proprietary and confidential information,
 including trade secrets, belonging to Gaussian, Inc.
  
 This software is provided under written license and may be
 used, copied, transmitted, or stored only in accord with that
 written license.
  
 The following legend is applicable only to US Government
 contracts under FAR:
  
                    RESTRICTED RIGHTS LEGEND
  
 Use, reproduction and disclosure by the US Government is
 subject to restrictions as set forth in subparagraphs (a)
 and (c) of the Commercial Computer Software - Restricted
 Rights clause in FAR 52.227-19.
  
 Gaussian, Inc.
 340 Quinnipiac St., Bldg. 40, Wallingford CT 06492
  
  
 ---------------------------------------------------------------
 Warning -- This program may not be used in any manner that
 competes with the business of Gaussian, Inc. or will provide
 assistance to any competitor of Gaussian, Inc.  The licensee
 of this program is prohibited from giving any competitor of
 Gaussian, Inc. access to this program.  By using this program,
 the user acknowledges that Gaussian, Inc. is engaged in the
 business of creating and licensing software in the field of
 computational chemistry and represents and warrants to the
 licensee that it is not a competitor of Gaussian, Inc. and that
 it will not use this program in any manner prohibited above.
 ---------------------------------------------------------------
  

 Cite this work as:
 Gaussian 09, Revision D.01,
 M. J. Frisch, G. W. Trucks, H. B. Schlegel, G. E. Scuseria, 
 M. A. Robb, J. R. Cheeseman, G. Scalmani, V. Barone, B. Mennucci, 
 G. A. Petersson, H. Nakatsuji, M. Caricato, X. Li, H. P. Hratchian, 
 A. F. Izmaylov, J. Bloino, G. Zheng, J. L. Sonnenberg, M. Hada, 
 M. Ehara, K. Toyota, R. Fukuda, J. Hasegawa, M. Ishida, T. Nakajima, 
 Y. Honda, O. Kitao, H. Nakai, T. Vreven, J. A. Montgomery, Jr., 
 J. E. Peralta, F. Ogliaro, M. Bearpark, J. J. Heyd, E. Brothers, 
 K. N. Kudin, V. N. Staroverov, T. Keith, R. Kobayashi, J. Normand, 
 K. Raghavachari, A. Rendell, J. C. Burant, S. S. Iyengar, J. Tomasi, 
 M. Cossi, N. Rega, J. M. Millam, M. Klene, J. E. Knox, J. B. Cross, 
 V. Bakken, C. Adamo, J. Jaramillo, R. Gomperts, R. E. Stratmann, 
 O. Yazyev, A. J. Austin, R. Cammi, C. Pomelli, J. W. Ochterski, 
 R. L. Martin, K. Morokuma, V. G. Zakrzewski, G. A. Voth, 
 P. Salvador, J. J. Dannenberg, S. Dapprich, A. D. Daniels, 
 O. Farkas, J. B. Foresman, J. V. Ortiz, J. Cioslowski, 
 and D. J. Fox, Gaussian, Inc., Wallingford CT, 2013.
 
 ******************************************
 Gaussian 09:  EM64L-G09RevD.01 24-Apr-2013
                 4-Dec-2013 
 ******************************************
 %Nproc=8
 Will use up to    8 processors via shared memory.
 %mem=436000000
 ----------------------------------------------------------
 #PBEPBE/6-311G* integral(grid=ultrafine) opt=z-matrix freq
 ----------------------------------------------------------
 1/10=7,14=-1,18=40,26=4,38=1/1,3;
 2/12=2,17=6,18=5,29=3,40=1/2;
 3/5=4,6=6,7=1,11=2,16=1,25=1,30=1,71=1,74=1009,75=-5/1,2,3;
 4//1;
 5/5=2,38=5/2;
 6/7=2,8=2,9=2,10=2,28=1/1;
 7/29=1/1,2,3,16;
 1/10=7,14=-1,18=40,26=4/3(2);
 2/29=3/2;
 99//99;
 2/29=3/2;
 3/5=4,6=6,7=1,11=2,16=1,25=1,30=1,71=1,74=1009,75=-5/1,2,3;
 4/5=5,16=3,69=1/1;
 5/5=2,38=5/2;
 7//1,2,3,16;
 1/14=-1,18=40,26=4/3(-5);
 2/29=3/2;
 6/7=2,8=2,9=2,10=2,19=2,28=1/1;
 99/9=1/99;
 Leave Link    1 at Wed Dec  4 12:05:02 2013, MaxMem=   436000000 cpu:         0.4
 (Enter /usr/local/gaussian/g09.d01.em64t.legacy.linda/g09/l101.exe)
 ------------------------------------------------------------------
 1H-tetrazole CH2N4 casno=288948 state=1 config=1 method=69 basis=7
 ------------------------------------------------------------------
 Symbolic Z-matrix:
 Charge =  0 Multiplicity = 1
 X
 X                    1     1. 
 C                    1     1.       2     90. 
 N                    1    rn1      2     90.      3    an1      0
 N                    1    rn2      2     90.      3    an2      0
 N                    1    rn3      2     90.      3    an3      0
 N                    1    rn4      2     90.      3    an4      0
 H                    3    rch      4    ach      5     180.     0
 H                    4    rnh      5    anh      6     180.     0
       Variables:
  rn1                   1.2426                   
  rn2                   1.333                    
  rn3                   1.1146                   
  rn4                   0.9264                   
  rch                   1.0678                   
  rnh                   0.9941                   
  an1                  71.8427                   
  an2                 133.7028                   
  an3                 194.4597                   
  an4                 276.0768                   
  ach                 125.0248                   
  anh                 120.7626                   
 
 NAtoms=      7 NQM=        7 NQMF=       0 NMMI=      0 NMMIF=      0
                NMic=       0 NMicF=      0.
                    Isotopes and Nuclear Properties:
 (Nuclear quadrupole moments (NQMom) in fm**2, nuclear magnetic moments (NMagM)
  in nuclear magnetons)

  Atom         1           2           3           4           5           6           7
 IAtWgt=          12          14          14          14          14           1           1
 AtmWgt=  12.0000000  14.0030740  14.0030740  14.0030740  14.0030740   1.0078250   1.0078250
 NucSpn=           0           2           2           2           2           1           1
 AtZEff=   0.0000000   0.0000000   0.0000000   0.0000000   0.0000000   0.0000000   0.0000000
 NQMom=    0.0000000   2.0440000   2.0440000   2.0440000   2.0440000   0.0000000   0.0000000
 NMagM=    0.0000000   0.4037610   0.4037610   0.4037610   0.4037610   2.7928460   2.7928460
 AtZNuc=   6.0000000   7.0000000   7.0000000   7.0000000   7.0000000   1.0000000   1.0000000
 Leave Link  101 at Wed Dec  4 12:05:02 2013, MaxMem=   436000000 cpu:         0.7
 (Enter /usr/local/gaussian/g09.d01.em64t.legacy.linda/g09/l103.exe)

 GradGradGradGradGradGradGradGradGradGradGradGradGradGradGradGradGradGrad
 Berny optimization.
 Initialization pass.
                       ----------------------------
                       !    Initial Parameters    !
                       ! (Angstroms and Degrees)  !
 ----------------------                            ----------------------
 !      Name          Value   Derivative information (Atomic Units)     !
 ------------------------------------------------------------------------
 !       rn1         1.2426   estimate D2E/DX2                          !
 !       rn2         1.333    estimate D2E/DX2                          !
 !       rn3         1.1146   estimate D2E/DX2                          !
 !       rn4         0.9264   estimate D2E/DX2                          !
 !       rch         1.0678   estimate D2E/DX2                          !
 !       rnh         0.9941   estimate D2E/DX2                          !
 !       an1        71.8427   estimate D2E/DX2                          !
 !       an2       133.7028   estimate D2E/DX2                          !
 !       an3       194.4597   estimate D2E/DX2                          !
 !       an4       276.0768   estimate D2E/DX2                          !
 !       ach       125.0248   estimate D2E/DX2                          !
 !       anh       120.7626   estimate D2E/DX2                          !
 ------------------------------------------------------------------------
 Trust Radius=3.00D-01 FncErr=1.00D-07 GrdErr=1.00D-06
 Number of steps in this run=     22 maximum allowed number of steps=    100.
 GradGradGradGradGradGradGradGradGradGradGradGradGradGradGradGradGradGrad

 Leave Link  103 at Wed Dec  4 12:05:02 2013, MaxMem=   436000000 cpu:         0.1
 (Enter /usr/local/gaussian/g09.d01.em64t.legacy.linda/g09/l202.exe)
 ---------------------------------------------------------------------------------------------------
                            Z-MATRIX (ANGSTROMS AND DEGREES)
   CD    Cent   Atom    N1       Length/X        N2       Alpha/Y        N3        Beta/Z          J
 ---------------------------------------------------------------------------------------------------
      1         X 
      2         X        1   1.000000(     1)
      3      1  C        1   1.000000(     2)      2   90.000(     9)
      4      2  N        1   1.242600(     3)      2   90.000(    10)      3   71.843(    16)      0
      5      3  N        1   1.333000(     4)      2   90.000(    11)      3  133.703(    17)      0
      6      4  N        1   1.114600(     5)      2   90.000(    12)      3  194.460(    18)      0
      7      5  N        1   0.926400(     6)      2   90.000(    13)      3  276.077(    19)      0
      8      6  H        3   1.067800(     7)      4  125.025(    14)      5  180.000(    20)      0
      9      7  H        4   0.994100(     8)      5  120.763(    15)      6  180.000(    21)      0
 ---------------------------------------------------------------------------------------------------
                         Z-Matrix orientation:                         
 ---------------------------------------------------------------------
 Center     Atomic      Atomic             Coordinates (Angstroms)
 Number     Number       Type             X           Y           Z
 ---------------------------------------------------------------------
      1         -1           0        0.000000    0.000000    0.000000
      2         -1           0        0.000000    0.000000    1.000000
      3          6           0        1.000000    0.000000    0.000000
      4          7           0        0.387228   -1.180724    0.000000
      5          7           0       -0.920993   -0.963670    0.000000
      6          7           0       -1.079293    0.278314    0.000000
      7          7           0        0.098070    0.921194    0.000000
      8          1           0        2.058429    0.141157    0.000000
      9          1           0        0.749017   -2.106652    0.000000
 ---------------------------------------------------------------------
                    Distance matrix (angstroms):
                    1          2          3          4          5
     1  X    0.000000
     2  X    1.000000   0.000000
     3  C    1.000000   1.414214   0.000000
     4  N    1.242600   1.595009   1.330263   0.000000
     5  N    1.333000   1.666400   2.149157   1.326105   0.000000
     6  N    1.114600   1.497442   2.097837   2.068690   1.252032
     7  N    0.926400   1.363164   1.289216   2.121715   2.142710
     8  H    2.063263   2.292827   1.067800   2.130794   3.177672
     9  H    2.235847   2.449288   2.121551   0.994100   2.023695
                    6          7          8          9
     6  N    0.000000
     7  N    1.341447   0.000000
     8  H    3.140719   2.109850   0.000000
     9  H    3.005127   3.097029   2.601385   0.000000
 Stoichiometry    CH2N4
 Framework group  CS[SG(CH2N4)]
 Deg. of freedom    11
 Full point group                 CS      NOp   2
 Largest Abelian subgroup         CS      NOp   2
 Largest concise Abelian subgroup C1      NOp   1
                         Standard orientation:                         
 ---------------------------------------------------------------------
 Center     Atomic      Atomic             Coordinates (Angstroms)
 Number     Number       Type             X           Y           Z
 ---------------------------------------------------------------------
      1          6           0        1.052733    0.225621    0.000000
      2          7           0        0.000000    1.038857    0.000000
      3          7           0       -1.095416    0.291448    0.000000
      4          7           0       -0.716382   -0.901832    0.000000
      5          7           0        0.622191   -0.989579    0.000000
      6          1           0        2.072287    0.542964    0.000000
      7          1           0       -0.061439    2.031056    0.000000
 ---------------------------------------------------------------------
 Rotational constants (GHZ):     10.9201517     10.7345054      5.4132664
 Leave Link  202 at Wed Dec  4 12:05:02 2013, MaxMem=   436000000 cpu:         0.0
 (Enter /usr/local/gaussian/g09.d01.em64t.legacy.linda/g09/l301.exe)
 Standard basis: 6-311G(d) (5D, 7F)
 Ernie: Thresh=  0.10000D-02 Tol=  0.10000D-05 Strict=F.
 There are    76 symmetry adapted cartesian basis functions of A'  symmetry.
 There are    25 symmetry adapted cartesian basis functions of A"  symmetry.
 There are    71 symmetry adapted basis functions of A'  symmetry.
 There are    25 symmetry adapted basis functions of A"  symmetry.
    96 basis functions,   170 primitive gaussians,   101 cartesian basis functions
    18 alpha electrons       18 beta electrons
       nuclear repulsion energy       169.8308489506 Hartrees.
 IExCor= 1009 DFT=T Ex=PBE Corr=PBE ExCW=0 ScaHFX=  0.000000
 ScaDFX=  1.000000  1.000000  1.000000  1.000000 ScalE2=  1.000000  1.000000
 IRadAn=      5 IRanWt=     -1 IRanGd=            0 ICorTp=0 IEmpDi=  4
 NAtoms=    7 NActive=    7 NUniq=    7 SFac= 1.00D+00 NAtFMM=   60 NAOKFM=F Big=F
 Integral buffers will be    131072 words long.
 Raffenetti 2 integral format.
 Two-electron integral symmetry is turned on.
 Leave Link  301 at Wed Dec  4 12:05:02 2013, MaxMem=   436000000 cpu:         0.3
 (Enter /usr/local/gaussian/g09.d01.em64t.legacy.linda/g09/l302.exe)
 NPDir=0 NMtPBC=     1 NCelOv=     1 NCel=       1 NClECP=     1 NCelD=      1
         NCelK=      1 NCelE2=     1 NClLst=     1 CellRange=     0.0.
 One-electron integrals computed using PRISM.
 NBasis=    96 RedAO= T EigKep=  4.27D-03  NBF=    71    25
 NBsUse=    96 1.00D-06 EigRej= -1.00D+00 NBFU=    71    25
 Precomputing XC quadrature grid using
 IXCGrd= 4 IRadAn=           5 IRanWt=          -1 IRanGd=           0 AccXCQ= 0.00D+00.
 Generated NRdTot=       0 NPtTot=           0 NUsed=           0 NTot=          32
 NSgBfM=   101   101   101   101   101 MxSgAt=     7 MxSgA2=     7.
 Leave Link  302 at Wed Dec  4 12:05:03 2013, MaxMem=   436000000 cpu:         1.3
 (Enter /usr/local/gaussian/g09.d01.em64t.legacy.linda/g09/l303.exe)
 DipDrv:  MaxL=1.
 Leave Link  303 at Wed Dec  4 12:05:03 2013, MaxMem=   436000000 cpu:         0.2
 (Enter /usr/local/gaussian/g09.d01.em64t.legacy.linda/g09/l401.exe)
 ExpMin= 1.03D-01 ExpMax= 6.29D+03 ExpMxC= 9.49D+02 IAcc=3 IRadAn=         5 AccDes= 0.00D+00
 Harris functional with IExCor= 1009 and IRadAn=       5 diagonalized for initial guess.
 HarFok:  IExCor= 1009 AccDes= 0.00D+00 IRadAn=         5 IDoV= 1 UseB2=F ITyADJ=14
 ICtDFT=  3500011 ScaDFX=  1.000000  1.000000  1.000000  1.000000
 FoFCou: FMM=F IPFlag=           0 FMFlag=      100000 FMFlg1=           0
         NFxFlg=           0 DoJE=T BraDBF=F KetDBF=T FulRan=T
         wScrn=  0.000000 ICntrl=     500 IOpCl=  0 I1Cent=   200000004 NGrid=           0
         NMat0=    1 NMatS0=      1 NMatT0=    0 NMatD0=    1 NMtDS0=    0 NMtDT0=    0
 Petite list used in FoFCou.
 Harris En= -258.031079769056    
 JPrj=0 DoOrth=F DoCkMO=F.
 Initial guess orbital symmetries:
       Occupied  (A') (A') (A') (A') (A') (A') (A') (A') (A') (A')
                 (A') (A') (A") (A') (A") (A') (A") (A')
       Virtual   (A") (A") (A') (A') (A') (A') (A') (A') (A') (A')
                 (A") (A') (A') (A') (A') (A") (A') (A") (A') (A')
                 (A') (A") (A") (A') (A') (A') (A') (A') (A') (A")
                 (A') (A') (A") (A') (A") (A") (A') (A") (A') (A')
                 (A') (A') (A') (A") (A') (A") (A') (A') (A") (A')
                 (A") (A') (A') (A") (A") (A') (A') (A') (A') (A')
                 (A') (A") (A") (A') (A") (A') (A') (A") (A') (A')
                 (A') (A') (A') (A') (A') (A') (A') (A')
 The electronic state of the initial guess is 1-A'.
 Leave Link  401 at Wed Dec  4 12:05:03 2013, MaxMem=   436000000 cpu:         2.2
 (Enter /usr/local/gaussian/g09.d01.em64t.legacy.linda/g09/l502.exe)
 Closed shell SCF:
 Using DIIS extrapolation, IDIIS=  1040.
 Integral symmetry usage will be decided dynamically.
 Keep J ints in memory in symmetry-blocked form, NReq=16630616.
 IVT=       50743 IEndB=       50743 NGot=   436000000 MDV=   430210977
 LenX=   430210977 LenY=   430200335
 Requested convergence on RMS density matrix=1.00D-08 within 128 cycles.
 Requested convergence on MAX density matrix=1.00D-06.
 Requested convergence on             energy=1.00D-06.
 No special actions if energy rises.
 FoFCou: FMM=F IPFlag=           0 FMFlag=           0 FMFlg1=           0
         NFxFlg=           0 DoJE=F BraDBF=F KetDBF=F FulRan=T
         wScrn=  0.000000 ICntrl=     600 IOpCl=  0 I1Cent=           0 NGrid=           0
         NMat0=    1 NMatS0=   4656 NMatT0=    0 NMatD0=    1 NMtDS0=    0 NMtDT0=    0
 Petite list used in FoFCou.
 Integral accuracy reduced to 1.0D-05 until final iterations.

 Cycle   1  Pass 0  IDiag  1:
 E= -257.987417095881    
 DIIS: error= 2.04D-02 at cycle   1 NSaved=   1.
 NSaved= 1 IEnMin= 1 EnMin= -257.987417095881     IErMin= 1 ErrMin= 2.04D-02
 ErrMax= 2.04D-02  0.00D+00 EMaxC= 1.00D-01 BMatC= 5.77D-02 BMatP= 5.77D-02
 IDIUse=3 WtCom= 7.96D-01 WtEn= 2.04D-01
 Coeff-Com:  0.100D+01
 Coeff-En:   0.100D+01
 Coeff:      0.100D+01
 Gap=     0.159 Goal=   None    Shift=    0.000
 GapD=    0.159 DampG=1.000 DampE=0.500 DampFc=0.5000 IDamp=-1.
 Damping current iteration by 5.00D-01
 RMSDP=6.82D-03 MaxDP=1.55D-01              OVMax= 1.92D-01

 Cycle   2  Pass 0  IDiag  1:
 E= -257.989098210917     Delta-E=       -0.001681115036 Rises=F Damp=T
 DIIS: error= 1.77D-02 at cycle   2 NSaved=   2.
 NSaved= 2 IEnMin= 2 EnMin= -257.989098210917     IErMin= 2 ErrMin= 1.77D-02
 ErrMax= 1.77D-02  0.00D+00 EMaxC= 1.00D-01 BMatC= 2.05D-02 BMatP= 5.77D-02
 IDIUse=3 WtCom= 8.23D-01 WtEn= 1.77D-01
 Coeff-Com:  0.276D+00 0.724D+00
 Coeff-En:   0.483D+00 0.517D+00
 Coeff:      0.313D+00 0.687D+00
 Gap=     0.209 Goal=   None    Shift=    0.000
 RMSDP=2.23D-03 MaxDP=2.85D-02 DE=-1.68D-03 OVMax= 1.73D-01

 Cycle   3  Pass 0  IDiag  1:
 E= -258.012258911501     Delta-E=       -0.023160700584 Rises=F Damp=F
 DIIS: error= 2.05D-02 at cycle   3 NSaved=   3.
 NSaved= 3 IEnMin= 3 EnMin= -258.012258911501     IErMin= 2 ErrMin= 1.77D-02
 ErrMax= 2.05D-02  0.00D+00 EMaxC= 1.00D-01 BMatC= 2.23D-02 BMatP= 2.05D-02
 IDIUse=3 WtCom= 7.95D-01 WtEn= 2.05D-01
 Coeff-Com: -0.229D-01 0.520D+00 0.503D+00
 Coeff-En:   0.000D+00 0.257D+00 0.743D+00
 Coeff:     -0.182D-01 0.466D+00 0.552D+00
 Gap=     0.188 Goal=   None    Shift=    0.000
 RMSDP=1.44D-03 MaxDP=2.07D-02 DE=-2.32D-02 OVMax= 6.99D-02

 Cycle   4  Pass 0  IDiag  1:
 E= -258.027263402173     Delta-E=       -0.015004490671 Rises=F Damp=F
 DIIS: error= 1.09D-02 at cycle   4 NSaved=   4.
 NSaved= 4 IEnMin= 4 EnMin= -258.027263402173     IErMin= 4 ErrMin= 1.09D-02
 ErrMax= 1.09D-02  0.00D+00 EMaxC= 1.00D-01 BMatC= 4.69D-03 BMatP= 2.05D-02
 IDIUse=3 WtCom= 8.91D-01 WtEn= 1.09D-01
 Coeff-Com: -0.177D-01 0.209D+00 0.365D+00 0.444D+00
 Coeff-En:   0.000D+00 0.000D+00 0.226D+00 0.774D+00
 Coeff:     -0.157D-01 0.186D+00 0.350D+00 0.480D+00
 Gap=     0.192 Goal=   None    Shift=    0.000
 RMSDP=6.10D-04 MaxDP=8.94D-03 DE=-1.50D-02 OVMax= 2.92D-02

 Cycle   5  Pass 0  IDiag  1:
 E= -258.030621417328     Delta-E=       -0.003358015155 Rises=F Damp=F
 DIIS: error= 4.25D-03 at cycle   5 NSaved=   5.
 NSaved= 5 IEnMin= 5 EnMin= -258.030621417328     IErMin= 5 ErrMin= 4.25D-03
 ErrMax= 4.25D-03  0.00D+00 EMaxC= 1.00D-01 BMatC= 6.78D-04 BMatP= 4.69D-03
 IDIUse=3 WtCom= 9.57D-01 WtEn= 4.25D-02
 Coeff-Com: -0.703D-02 0.522D-01 0.165D+00 0.352D+00 0.439D+00
 Coeff-En:   0.000D+00 0.000D+00 0.000D+00 0.142D+00 0.858D+00
 Coeff:     -0.673D-02 0.499D-01 0.158D+00 0.343D+00 0.456D+00
 Gap=     0.190 Goal=   None    Shift=    0.000
 RMSDP=2.35D-04 MaxDP=4.13D-03 DE=-3.36D-03 OVMax= 1.11D-02

 Cycle   6  Pass 0  IDiag  1:
 E= -258.031140662253     Delta-E=       -0.000519244925 Rises=F Damp=F
 DIIS: error= 6.68D-04 at cycle   6 NSaved=   6.
 NSaved= 6 IEnMin= 6 EnMin= -258.031140662253     IErMin= 6 ErrMin= 6.68D-04
 ErrMax= 6.68D-04  0.00D+00 EMaxC= 1.00D-01 BMatC= 3.54D-05 BMatP= 6.78D-04
 IDIUse=3 WtCom= 9.93D-01 WtEn= 6.68D-03
 Coeff-Com: -0.377D-02 0.131D-01 0.612D-01 0.159D+00 0.273D+00 0.498D+00
 Coeff-En:   0.000D+00 0.000D+00 0.000D+00 0.000D+00 0.794D-02 0.992D+00
 Coeff:     -0.374D-02 0.131D-01 0.608D-01 0.158D+00 0.271D+00 0.501D+00
 Gap=     0.189 Goal=   None    Shift=    0.000
 RMSDP=5.13D-05 MaxDP=8.12D-04 DE=-5.19D-04 OVMax= 2.16D-03

 Cycle   7  Pass 0  IDiag  1:
 E= -258.031168155786     Delta-E=       -0.000027493533 Rises=F Damp=F
 DIIS: error= 1.71D-04 at cycle   7 NSaved=   7.
 NSaved= 7 IEnMin= 7 EnMin= -258.031168155786     IErMin= 7 ErrMin= 1.71D-04
 ErrMax= 1.71D-04  0.00D+00 EMaxC= 1.00D-01 BMatC= 1.73D-06 BMatP= 3.54D-05
 IDIUse=3 WtCom= 9.98D-01 WtEn= 1.71D-03
 Coeff-Com: -0.210D-02 0.700D-02 0.344D-01 0.911D-01 0.161D+00 0.324D+00
 Coeff-Com:  0.384D+00
 Coeff-En:   0.000D+00 0.000D+00 0.000D+00 0.000D+00 0.000D+00 0.000D+00
 Coeff-En:   0.100D+01
 Coeff:     -0.210D-02 0.699D-02 0.343D-01 0.910D-01 0.161D+00 0.324D+00
 Coeff:      0.385D+00
 Gap=     0.189 Goal=   None    Shift=    0.000
 RMSDP=1.18D-05 MaxDP=1.73D-04 DE=-2.75D-05 OVMax= 5.12D-04

 Cycle   8  Pass 0  IDiag  1:
 E= -258.031169494400     Delta-E=       -0.000001338614 Rises=F Damp=F
 DIIS: error= 5.08D-05 at cycle   8 NSaved=   8.
 NSaved= 8 IEnMin= 8 EnMin= -258.031169494400     IErMin= 8 ErrMin= 5.08D-05
 ErrMax= 5.08D-05  0.00D+00 EMaxC= 1.00D-01 BMatC= 1.39D-07 BMatP= 1.73D-06
 IDIUse=1 WtCom= 1.00D+00 WtEn= 0.00D+00
 Coeff-Com: -0.261D-03 0.724D-03 0.414D-02 0.116D-01 0.218D-01 0.609D-01
 Coeff-Com:  0.232D+00 0.669D+00
 Coeff:     -0.261D-03 0.724D-03 0.414D-02 0.116D-01 0.218D-01 0.609D-01
 Coeff:      0.232D+00 0.669D+00
 Gap=     0.189 Goal=   None    Shift=    0.000
 RMSDP=3.14D-06 MaxDP=5.93D-05 DE=-1.34D-06 OVMax= 1.88D-04

 Initial convergence to 1.0D-05 achieved.  Increase integral accuracy.
 Cycle   9  Pass 1  IDiag  1:
 E= -258.031166754720     Delta-E=        0.000002739680 Rises=F Damp=F
 DIIS: error= 1.70D-05 at cycle   1 NSaved=   1.
 NSaved= 1 IEnMin= 1 EnMin= -258.031166754720     IErMin= 1 ErrMin= 1.70D-05
 ErrMax= 1.70D-05  0.00D+00 EMaxC= 1.00D-01 BMatC= 1.87D-08 BMatP= 1.87D-08
 IDIUse=1 WtCom= 1.00D+00 WtEn= 0.00D+00
 Coeff-Com:  0.100D+01
 Coeff:      0.100D+01
 Gap=     0.189 Goal=   None    Shift=    0.000
 RMSDP=3.14D-06 MaxDP=5.93D-05 DE= 2.74D-06 OVMax= 1.89D-04

 Cycle  10  Pass 1  IDiag  1:
 E= -258.031166699807     Delta-E=        0.000000054913 Rises=F Damp=F
 DIIS: error= 3.93D-05 at cycle   2 NSaved=   2.
 NSaved= 2 IEnMin= 1 EnMin= -258.031166754720     IErMin= 1 ErrMin= 1.70D-05
 ErrMax= 3.93D-05  0.00D+00 EMaxC= 1.00D-01 BMatC= 7.81D-08 BMatP= 1.87D-08
 IDIUse=1 WtCom= 1.00D+00 WtEn= 0.00D+00
 Coeff-Com:  0.674D+00 0.326D+00
 Coeff:      0.674D+00 0.326D+00
 Gap=     0.189 Goal=   None    Shift=    0.000
 RMSDP=2.10D-06 MaxDP=4.36D-05 DE= 5.49D-08 OVMax= 1.41D-04

 Cycle  11  Pass 1  IDiag  1:
 E= -258.031166771039     Delta-E=       -0.000000071232 Rises=F Damp=F
 DIIS: error= 4.23D-06 at cycle   3 NSaved=   3.
 NSaved= 3 IEnMin= 3 EnMin= -258.031166771039     IErMin= 3 ErrMin= 4.23D-06
 ErrMax= 4.23D-06  0.00D+00 EMaxC= 1.00D-01 BMatC= 8.22D-10 BMatP= 1.87D-08
 IDIUse=1 WtCom= 1.00D+00 WtEn= 0.00D+00
 Coeff-Com:  0.349D+00 0.184D+00 0.468D+00
 Coeff:      0.349D+00 0.184D+00 0.468D+00
 Gap=     0.189 Goal=   None    Shift=    0.000
 RMSDP=3.00D-07 MaxDP=4.24D-06 DE=-7.12D-08 OVMax= 1.45D-05

 Cycle  12  Pass 1  IDiag  1:
 E= -258.031166771575     Delta-E=       -0.000000000536 Rises=F Damp=F
 DIIS: error= 1.77D-06 at cycle   4 NSaved=   4.
 NSaved= 4 IEnMin= 4 EnMin= -258.031166771575     IErMin= 4 ErrMin= 1.77D-06
 ErrMax= 1.77D-06  0.00D+00 EMaxC= 1.00D-01 BMatC= 2.33D-10 BMatP= 8.22D-10
 IDIUse=1 WtCom= 1.00D+00 WtEn= 0.00D+00
 Coeff-Com:  0.907D-01 0.568D-01 0.343D+00 0.509D+00
 Coeff:      0.907D-01 0.568D-01 0.343D+00 0.509D+00
 Gap=     0.189 Goal=   None    Shift=    0.000
 RMSDP=1.09D-07 MaxDP=1.85D-06 DE=-5.36D-10 OVMax= 3.63D-06

 Cycle  13  Pass 1  IDiag  1:
 E= -258.031166771751     Delta-E=       -0.000000000177 Rises=F Damp=F
 DIIS: error= 2.79D-07 at cycle   5 NSaved=   5.
 NSaved= 5 IEnMin= 5 EnMin= -258.031166771751     IErMin= 5 ErrMin= 2.79D-07
 ErrMax= 2.79D-07  0.00D+00 EMaxC= 1.00D-01 BMatC= 5.44D-12 BMatP= 2.33D-10
 IDIUse=1 WtCom= 1.00D+00 WtEn= 0.00D+00
 Coeff-Com:  0.390D-02 0.577D-02 0.103D+00 0.210D+00 0.677D+00
 Coeff:      0.390D-02 0.577D-02 0.103D+00 0.210D+00 0.677D+00
 Gap=     0.189 Goal=   None    Shift=    0.000
 RMSDP=3.27D-08 MaxDP=4.61D-07 DE=-1.77D-10 OVMax= 1.24D-06

 Cycle  14  Pass 1  IDiag  1:
 E= -258.031166771753     Delta-E=       -0.000000000002 Rises=F Damp=F
 DIIS: error= 1.98D-07 at cycle   6 NSaved=   6.
 NSaved= 6 IEnMin= 6 EnMin= -258.031166771753     IErMin= 6 ErrMin= 1.98D-07
 ErrMax= 1.98D-07  0.00D+00 EMaxC= 1.00D-01 BMatC= 3.08D-12 BMatP= 5.44D-12
 IDIUse=1 WtCom= 1.00D+00 WtEn= 0.00D+00
 Coeff-Com: -0.122D-02 0.137D-02 0.554D-01 0.120D+00 0.492D+00 0.332D+00
 Coeff:     -0.122D-02 0.137D-02 0.554D-01 0.120D+00 0.492D+00 0.332D+00
 Gap=     0.189 Goal=   None    Shift=    0.000
 RMSDP=1.38D-08 MaxDP=1.81D-07 DE=-1.93D-12 OVMax= 6.70D-07

 Cycle  15  Pass 1  IDiag  1:
 E= -258.031166771755     Delta-E=       -0.000000000002 Rises=F Damp=F
 DIIS: error= 1.42D-08 at cycle   7 NSaved=   7.
 NSaved= 7 IEnMin= 7 EnMin= -258.031166771755     IErMin= 7 ErrMin= 1.42D-08
 ErrMax= 1.42D-08  0.00D+00 EMaxC= 1.00D-01 BMatC= 1.08D-14 BMatP= 3.08D-12
 IDIUse=1 WtCom= 1.00D+00 WtEn= 0.00D+00
 Coeff-Com: -0.526D-03 0.111D-03 0.139D-01 0.295D-01 0.135D+00 0.101D+00
 Coeff-Com:  0.721D+00
 Coeff:     -0.526D-03 0.111D-03 0.139D-01 0.295D-01 0.135D+00 0.101D+00
 Coeff:      0.721D+00
 Gap=     0.189 Goal=   None    Shift=    0.000
 RMSDP=1.70D-09 MaxDP=2.50D-08 DE=-2.05D-12 OVMax= 4.32D-08

 SCF Done:  E(RPBE-PBE) =  -258.031166772     A.U. after   15 cycles
            NFock= 15  Conv=0.17D-08     -V/T= 2.0002
 KE= 2.579716513685D+02 PE=-9.435347655237D+02 EE= 2.577010984329D+02
 Leave Link  502 at Wed Dec  4 12:05:05 2013, MaxMem=   436000000 cpu:        18.7
 (Enter /usr/local/gaussian/g09.d01.em64t.legacy.linda/g09/l601.exe)
 Copying SCF densities to generalized density rwf, IOpCl= 0 IROHF=0.

 **********************************************************************

            Population analysis using the SCF density.

 **********************************************************************

 Orbital symmetries:
       Occupied  (A') (A') (A') (A') (A') (A') (A') (A') (A') (A')
                 (A') (A") (A') (A') (A") (A") (A') (A')
       Virtual   (A") (A") (A') (A') (A') (A') (A') (A') (A') (A")
                 (A') (A') (A') (A') (A') (A") (A") (A') (A') (A')
                 (A') (A") (A") (A') (A') (A') (A') (A') (A') (A')
                 (A") (A') (A") (A') (A") (A") (A') (A") (A') (A')
                 (A') (A') (A') (A") (A') (A") (A') (A') (A") (A')
                 (A") (A') (A') (A") (A") (A') (A') (A') (A') (A')
                 (A') (A") (A") (A') (A") (A') (A') (A") (A') (A')
                 (A') (A') (A') (A') (A') (A') (A') (A')
 The electronic state is 1-A'.
 Alpha  occ. eigenvalues --  -14.08754 -14.04519 -14.02705 -14.00093  -9.96154
 Alpha  occ. eigenvalues --   -1.08493  -0.88294  -0.83363  -0.63138  -0.61926
 Alpha  occ. eigenvalues --   -0.55554  -0.46489  -0.45943  -0.33428  -0.30434
 Alpha  occ. eigenvalues --   -0.28729  -0.25505  -0.23810
 Alpha virt. eigenvalues --   -0.04889  -0.01535   0.00082   0.04686   0.13838
 Alpha virt. eigenvalues --    0.15900   0.18938   0.25523   0.29634   0.35076
 Alpha virt. eigenvalues --    0.36904   0.39787   0.45843   0.51453   0.51810
 Alpha virt. eigenvalues --    0.52425   0.56000   0.56174   0.58274   0.61250
 Alpha virt. eigenvalues --    0.63820   0.65176   0.69361   0.69779   0.78690
 Alpha virt. eigenvalues --    0.81959   0.88366   0.93170   0.96676   1.12301
 Alpha virt. eigenvalues --    1.12333   1.17075   1.18846   1.30631   1.43631
 Alpha virt. eigenvalues --    1.58554   1.62819   1.64745   1.70235   1.76543
 Alpha virt. eigenvalues --    1.80299   1.96168   2.13446   2.13658   2.18277
 Alpha virt. eigenvalues --    2.24309   2.27117   2.36878   2.38320   2.52249
 Alpha virt. eigenvalues --    2.53248   2.58246   2.63778   2.67619   2.71941
 Alpha virt. eigenvalues --    2.74929   2.97807   3.06153   3.15878   3.22145
 Alpha virt. eigenvalues --    3.39242   3.42568   3.53959   3.68749   3.73233
 Alpha virt. eigenvalues --    3.79799   3.83550   3.83735   4.28304   4.42025
 Alpha virt. eigenvalues --    4.51445   4.76890   5.64114  23.55628  34.89817
 Alpha virt. eigenvalues --   35.12261  35.23421  35.31903
          Condensed to atoms (all electrons):
               1          2          3          4          5          6
     1  C    4.982876   0.347033  -0.120099  -0.145315   0.484959   0.372837
     2  N    0.347033   6.744144   0.195903  -0.067223  -0.072376  -0.029179
     3  N   -0.120099   0.195903   6.750823   0.295041  -0.096359   0.004331
     4  N   -0.145315  -0.067223   0.295041   6.682804   0.310134   0.003594
     5  N    0.484959  -0.072376  -0.096359   0.310134   6.600849  -0.016358
     6  H    0.372837  -0.029179   0.004331   0.003594  -0.016358   0.417129
     7  H   -0.035219   0.290926  -0.022947   0.008687   0.010269  -0.000050
               7
     1  C   -0.035219
     2  N    0.290926
     3  N   -0.022947
     4  N    0.008687
     5  N    0.010269
     6  H   -0.000050
     7  H    0.384198
 Mulliken charges:
               1
     1  C    0.112928
     2  N   -0.409229
     3  N   -0.006692
     4  N   -0.087722
     5  N   -0.221118
     6  H    0.247696
     7  H    0.364137
 Sum of Mulliken charges =   0.00000
 Mulliken charges with hydrogens summed into heavy atoms:
               1
     1  C    0.360624
     2  N   -0.045092
     3  N   -0.006692
     4  N   -0.087722
     5  N   -0.221118
 Electronic spatial extent (au):  <R**2>=            244.3184
 Charge=              0.0000 electrons
 Dipole moment (field-independent basis, Debye):
    X=              2.3787    Y=              4.6728    Z=              0.0000  Tot=              5.2434
 Quadrupole moment (field-independent basis, Debye-Ang):
   XX=            -28.9194   YY=            -26.3587   ZZ=            -28.0291
   XY=              1.6912   XZ=              0.0000   YZ=              0.0000
 Traceless Quadrupole moment (field-independent basis, Debye-Ang):
   XX=             -1.1504   YY=              1.4104   ZZ=             -0.2600
   XY=              1.6912   XZ=              0.0000   YZ=              0.0000
 Octapole moment (field-independent basis, Debye-Ang**2):
  XXX=             11.0587  YYY=             21.4440  ZZZ=              0.0000  XYY=             -0.6412
  XXY=              4.2791  XXZ=              0.0000  XZZ=             -0.8675  YZZ=              0.4072
  YYZ=              0.0000  XYZ=              0.0000
 Hexadecapole moment (field-independent basis, Debye-Ang**3):
 XXXX=           -139.4580 YYYY=           -118.3179 ZZZZ=            -24.9337 XXXY=              6.1129
 XXXZ=              0.0000 YYYX=             -0.5398 YYYZ=              0.0000 ZZZX=              0.0000
 ZZZY=              0.0000 XXYY=            -52.2707 XXZZ=            -29.6699 YYZZ=            -27.8524
 XXYZ=              0.0000 YYXZ=              0.0000 ZZXY=             -0.1795
 N-N= 1.698308489506D+02 E-N=-9.435347661416D+02  KE= 2.579716513685D+02
 Symmetry A'   KE= 2.483047526290D+02
 Symmetry A"   KE= 9.666898739457D+00
 No NMR shielding tensors so no spin-rotation constants.
 Leave Link  601 at Wed Dec  4 12:05:06 2013, MaxMem=   436000000 cpu:         1.5
 (Enter /usr/local/gaussian/g09.d01.em64t.legacy.linda/g09/l701.exe)
 Compute integral first derivatives.
 ... and contract with generalized density number  0.
 Leave Link  701 at Wed Dec  4 12:05:06 2013, MaxMem=   436000000 cpu:         1.2
 (Enter /usr/local/gaussian/g09.d01.em64t.legacy.linda/g09/l702.exe)
 L702 exits ... SP integral derivatives will be done elsewhere.
 Leave Link  702 at Wed Dec  4 12:05:06 2013, MaxMem=   436000000 cpu:         0.2
 (Enter /usr/local/gaussian/g09.d01.em64t.legacy.linda/g09/l703.exe)
 Compute integral first derivatives, UseDBF=F ICtDFT=           0.
 Integral derivatives from FoFJK, PRISM(SPDF).
 Calling FoFJK, ICntrl=      2527 FMM=F ISym2X=1 I1Cent= 0 IOpClX= 0 NMat=1 NMatS=1 NMatT=0.
 FoFJK:  IHMeth= 1 ICntrl=    2527 DoSepK=F KAlg= 0 I1Cent=   0 FoldK=F
 IRaf=         0 NMat=   1 IRICut=       1 DoRegI=T DoRafI=F ISym2E= 1.
 FoFCou: FMM=F IPFlag=           0 FMFlag=      100000 FMFlg1=         800
         NFxFlg=           0 DoJE=F BraDBF=F KetDBF=F FulRan=T
         wScrn=  0.000000 ICntrl=    2527 IOpCl=  0 I1Cent=           0 NGrid=           0
         NMat0=    1 NMatS0=      1 NMatT0=    0 NMatD0=    1 NMtDS0=    0 NMtDT0=    0
 Petite list used in FoFCou.
 Leave Link  703 at Wed Dec  4 12:05:07 2013, MaxMem=   436000000 cpu:         6.5
 (Enter /usr/local/gaussian/g09.d01.em64t.legacy.linda/g09/l716.exe)
 Dipole        = 9.35863125D-01 1.83841584D+00 1.30838875D-32
 ***** Axes restored to original set *****
 -------------------------------------------------------------------
 Center     Atomic                   Forces (Hartrees/Bohr)
 Number     Number              X              Y              Z
 -------------------------------------------------------------------
      1        6           0.026287343   -0.004803897    0.000000000
      2        7           0.011380718   -0.010560778    0.000000000
      3        7          -0.025511094   -0.052817557    0.000000000
      4        7          -0.031666705    0.041492103    0.000000000
      5        7          -0.000755577    0.043708833    0.000000000
      6        1           0.013255876    0.001698813    0.000000000
      7        1           0.007009440   -0.018717517    0.000000000
 -------------------------------------------------------------------
 Cartesian Forces:  Max     0.052817557 RMS     0.021391089
 -----------------------------------------------------------------------------------------------
                       Internal Coordinate Forces (Hartree/Bohr or radian)
  Cent   Atom   N1       Length/X         N2         Alpha/Y        N3         Beta/Z          J
 -----------------------------------------------------------------------------------------------
         X 
         X        1   0.000000(     1)
      1  C        1   0.039592(     2)      2   0.000000(     9)
      2  N        1   0.033700(     3)      2   0.000000(    10)      3  -0.019287(    16)     0
      3  N        1   0.055634(     4)      2   0.000000(    11)      3  -0.045166(    17)     0
      4  N        1   0.041024(     5)      2   0.000000(    12)      3   0.067971(    18)     0
      5  N        1   0.043383(     6)      2   0.000000(    13)      3  -0.009416(    19)     0
      6  H        3   0.013364(     7)      4  -0.000138(    14)      5   0.000000(    20)     0
      7  H        4   0.019985(     8)      5  -0.000532(    15)      6   0.000000(    21)     0
 -----------------------------------------------------------------------------------------------
 Internal  Forces:  Max     0.067971275 RMS     0.028504397
 Force constants in Cartesian coordinates: 
                1             2             3             4             5 
      1  0.105205D+01
      2 -0.646119D-01  0.104049D+01
      3  0.000000D+00  0.000000D+00  0.194544D+00
      4 -0.280194D+00 -0.176039D+00  0.000000D+00  0.101741D+01
      5 -0.150825D+00 -0.509438D+00  0.000000D+00 -0.272076D-01  0.109828D+01
      6  0.000000D+00  0.000000D+00 -0.107133D+00  0.000000D+00  0.000000D+00
      7 -0.576538D-02  0.299212D-02  0.000000D+00 -0.597238D+00  0.343359D-01
      8 -0.347489D-01  0.180340D-01  0.000000D+00  0.832617D-01 -0.153968D+00
      9  0.000000D+00  0.000000D+00  0.901327D-02  0.000000D+00  0.000000D+00
     10 -0.138620D-01 -0.135721D-01  0.000000D+00  0.684604D-02  0.412622D-01
     11  0.253867D-01  0.248558D-01  0.000000D+00  0.872578D-03  0.525917D-02
     12  0.000000D+00  0.000000D+00  0.334526D-03  0.000000D+00  0.000000D+00
     13 -0.409698D+00  0.299688D+00  0.000000D+00  0.258890D-01 -0.134359D-01
     14  0.248008D+00 -0.447517D+00  0.000000D+00  0.253476D-01 -0.131549D-01
     15  0.000000D+00  0.000000D+00 -0.487885D-01  0.000000D+00  0.000000D+00
     16 -0.370541D+00 -0.339213D-01  0.000000D+00  0.370098D-02 -0.192074D-02
     17 -0.341529D-01 -0.120744D+00  0.000000D+00 -0.277509D-01  0.144022D-01
     18  0.000000D+00  0.000000D+00 -0.763460D-01  0.000000D+00  0.000000D+00
     19  0.280100D-01 -0.145366D-01  0.000000D+00 -0.176415D+00  0.117791D+00
     20  0.109444D-01 -0.567992D-02  0.000000D+00  0.121515D+00 -0.441384D+00
     21  0.000000D+00  0.000000D+00  0.283759D-01  0.000000D+00  0.000000D+00
                6             7             8             9            10 
      6  0.203276D+00
      7  0.000000D+00  0.705746D+00
      8  0.000000D+00 -0.130737D+00  0.942136D+00
      9 -0.489441D-01  0.000000D+00  0.000000D+00  0.501769D-01
     10  0.000000D+00 -0.127739D+00  0.484692D-01  0.000000D+00  0.596756D+00
     11  0.000000D+00  0.127675D+00 -0.813779D+00  0.000000D+00  0.805094D-01
     12  0.357783D-02  0.000000D+00  0.000000D+00 -0.334173D-01  0.000000D+00
     13  0.000000D+00  0.198157D-01  0.252566D-02  0.000000D+00 -0.462001D+00
     14  0.000000D+00 -0.362903D-01 -0.462547D-02  0.000000D+00 -0.156669D+00
     15  0.755838D-02  0.000000D+00  0.000000D+00  0.115249D-01  0.000000D+00
     16  0.000000D+00  0.000000D+00  0.000000D+00  0.000000D+00  0.000000D+00
     17  0.000000D+00  0.000000D+00  0.000000D+00  0.000000D+00  0.000000D+00
     18  0.257218D-01  0.000000D+00  0.000000D+00  0.663842D-02  0.000000D+00
     19  0.000000D+00  0.518145D-02  0.312295D-01  0.000000D+00  0.000000D+00
     20  0.000000D+00  0.202456D-02  0.122023D-01  0.000000D+00  0.000000D+00
     21 -0.840561D-01  0.000000D+00  0.000000D+00  0.500793D-02  0.000000D+00
               11            12            13            14            15 
     11  0.994476D+00
     12  0.000000D+00  0.468287D-01
     13 -0.234443D+00  0.000000D+00  0.829068D+00
     14 -0.210811D+00  0.000000D+00 -0.773865D-01  0.653539D+00
     15  0.000000D+00 -0.315440D-01  0.000000D+00  0.000000D+00  0.483742D-01
     16  0.000000D+00  0.000000D+00 -0.307428D-02 -0.300999D-02  0.000000D+00
     17  0.000000D+00  0.000000D+00  0.230518D-01  0.225697D-01  0.000000D+00
     18  0.000000D+00  0.800918D-02  0.000000D+00  0.000000D+00  0.488095D-02
     19  0.000000D+00  0.000000D+00  0.000000D+00  0.000000D+00  0.000000D+00
     20  0.000000D+00  0.000000D+00  0.000000D+00  0.000000D+00  0.000000D+00
     21  0.000000D+00  0.621095D-02  0.000000D+00  0.000000D+00  0.799404D-02
               16            17            18            19            20 
     16  0.369914D+00
     17  0.388521D-01  0.837724D-01
     18  0.000000D+00  0.000000D+00  0.422935D-01
     19  0.000000D+00  0.000000D+00  0.000000D+00  0.143223D+00
     20  0.000000D+00  0.000000D+00  0.000000D+00 -0.134484D+00  0.434861D+00
     21  0.000000D+00  0.000000D+00 -0.111979D-01  0.000000D+00  0.000000D+00
               21 
     21  0.476652D-01
 Force constants in internal coordinates: 
                1             2             3             4             5 
      1  0.000000D+00
      2  0.000000D+00  0.714021D+00
      3  0.000000D+00  0.239904D-01  0.651862D+00
      4  0.000000D+00  0.477314D-01  0.131790D-01  0.698688D+00
      5  0.000000D+00  0.197619D-01  0.347199D-01  0.733418D-01  0.582621D+00
      6  0.000000D+00  0.182039D+00  0.368833D-01  0.266152D-01  0.139672D+00
      7  0.000000D+00  0.000000D+00  0.000000D+00  0.000000D+00  0.000000D+00
      8  0.000000D+00  0.000000D+00  0.000000D+00  0.000000D+00  0.000000D+00
      9  0.000000D+00  0.000000D+00  0.000000D+00  0.000000D+00  0.000000D+00
     10  0.000000D+00  0.000000D+00  0.000000D+00  0.000000D+00  0.000000D+00
     11  0.000000D+00  0.000000D+00  0.000000D+00  0.000000D+00  0.000000D+00
     12  0.000000D+00  0.000000D+00  0.000000D+00  0.000000D+00  0.000000D+00
     13  0.000000D+00  0.000000D+00  0.000000D+00  0.000000D+00  0.000000D+00
     14  0.000000D+00 -0.103420D+00  0.454635D-01  0.000000D+00  0.000000D+00
     15  0.000000D+00  0.564930D-01 -0.102057D+00  0.527553D-01  0.000000D+00
     16  0.000000D+00  0.664361D+00  0.201189D-01 -0.750165D+00  0.425816D-01
     17  0.000000D+00 -0.819650D-01  0.721191D+00 -0.312336D+00 -0.718649D+00
     18  0.000000D+00  0.444874D-01 -0.291364D-01  0.104797D+01  0.541201D-01
     19  0.000000D+00 -0.789797D+00  0.532811D-01 -0.322785D-01  0.658511D+00
     20  0.000000D+00  0.000000D+00  0.000000D+00  0.000000D+00  0.000000D+00
     21  0.000000D+00  0.000000D+00  0.000000D+00  0.000000D+00  0.000000D+00
                6             7             8             9            10 
      6  0.639214D+00
      7  0.000000D+00  0.375095D+00
      8  0.000000D+00  0.000000D+00  0.487409D+00
      9  0.000000D+00  0.000000D+00  0.000000D+00  0.249630D+00
     10  0.000000D+00  0.000000D+00  0.000000D+00 -0.303690D+00  0.497296D+00
     11  0.000000D+00  0.000000D+00  0.000000D+00  0.196026D+00 -0.464723D+00
     12  0.000000D+00  0.000000D+00  0.000000D+00  0.227135D-03  0.185783D+00
     13  0.000000D+00  0.000000D+00  0.000000D+00 -0.141268D+00  0.791447D-01
     14  0.506551D-01  0.000000D+00  0.000000D+00  0.000000D+00  0.000000D+00
     15  0.000000D+00  0.000000D+00  0.000000D+00  0.000000D+00  0.000000D+00
     16 -0.848555D-01  0.000000D+00  0.000000D+00  0.000000D+00  0.000000D+00
     17  0.543562D-01  0.000000D+00  0.000000D+00  0.000000D+00  0.000000D+00
     18 -0.585825D+00  0.000000D+00  0.000000D+00  0.000000D+00  0.000000D+00
     19 -0.100092D+00  0.000000D+00  0.000000D+00  0.000000D+00  0.000000D+00
     20  0.000000D+00  0.000000D+00  0.000000D+00 -0.737111D-01  0.121332D+00
     21  0.000000D+00  0.000000D+00  0.000000D+00  0.439636D-01 -0.122492D+00
               11            12            13            14            15 
     11  0.555967D+00
     12 -0.331843D+00  0.275779D+00
     13  0.542972D-01 -0.137309D+00  0.148255D+00
     14  0.000000D+00  0.000000D+00  0.000000D+00  0.320000D+00
     15  0.000000D+00  0.000000D+00  0.000000D+00  0.000000D+00  0.320000D+00
     16  0.000000D+00  0.000000D+00  0.000000D+00 -0.104596D+00  0.351877D-01
     17  0.000000D+00  0.000000D+00  0.000000D+00  0.000000D+00 -0.905921D-01
     18  0.000000D+00  0.000000D+00  0.000000D+00  0.000000D+00  0.000000D+00
     19  0.000000D+00  0.000000D+00  0.000000D+00  0.731756D-01  0.000000D+00
     20 -0.118756D+00  0.556353D-01  0.141196D-01  0.000000D+00  0.000000D+00
     21  0.153088D+00 -0.943140D-01  0.225909D-01  0.000000D+00  0.000000D+00
               16            17            18            19            20 
     16  0.453257D+01
     17 -0.268051D+01  0.602300D+01
     18 -0.357339D-01 -0.319618D+01  0.447465D+01
     19 -0.122581D+00 -0.659222D-01 -0.116042D+01  0.258479D+01
     20  0.000000D+00  0.000000D+00  0.000000D+00  0.000000D+00  0.115483D+00
     21  0.000000D+00  0.000000D+00  0.000000D+00  0.000000D+00 -0.298696D-01
               21 
     21  0.124206D+00
 Leave Link  716 at Wed Dec  4 12:05:07 2013, MaxMem=   436000000 cpu:         0.2
 (Enter /usr/local/gaussian/g09.d01.em64t.legacy.linda/g09/l103.exe)

 GradGradGradGradGradGradGradGradGradGradGradGradGradGradGradGradGradGrad
 Berny optimization.
 Search for a local minimum.
 Step number   1 out of a maximum of   22
 All quantities printed in internal units (Hartrees-Bohrs-Radians)
 Second derivative matrix not updated -- first step.
 The second derivative matrix:
                          rn1       rn2       rn3       rn4       rch
           rn1          0.65186
           rn2          0.01318   0.69869
           rn3          0.03472   0.07334   0.58262
           rn4          0.03688   0.02662   0.13967   0.63921
           rch          0.00000   0.00000   0.00000   0.00000   0.37510
           rnh          0.00000   0.00000   0.00000   0.00000   0.00000
           an1          0.02012  -0.75016   0.04258  -0.08486   0.00000
           an2          0.72119  -0.31234  -0.71865   0.05436   0.00000
           an3         -0.02914   1.04797   0.05412  -0.58583   0.00000
           an4          0.05328  -0.03228   0.65851  -0.10009   0.00000
           ach          0.04546   0.00000   0.00000   0.05066   0.00000
           anh         -0.10206   0.05276   0.00000   0.00000   0.00000
                          rnh       an1       an2       an3       an4
           rnh          0.48741
           an1          0.00000   4.53257
           an2          0.00000  -2.68051   6.02300
           an3          0.00000  -0.03573  -3.19618   4.47465
           an4          0.00000  -0.12258  -0.06592  -1.16042   2.58479
           ach          0.00000  -0.10460   0.00000   0.00000   0.07318
           anh          0.00000   0.03519  -0.09059   0.00000   0.00000
                          ach       anh
           ach          0.32000
           anh          0.00000   0.32000
 ITU=  0
     Eigenvalues ---    0.00000   0.13346   0.26445   0.33044   0.37510
     Eigenvalues ---    0.40158   0.48741   0.75609   1.20990   2.99509
     Eigenvalues ---    5.09563   9.64077
 Eigenvalue     1 is  -6.96D-16 should be greater than     0.000000 Eigenvector:
                          rn4       an3       rn1       an2       rn2
   1                    0.46996   0.46737  -0.44908   0.37973  -0.34167
                          an4       an1       rn3       ach       rnh
   1                    0.22152   0.18738   0.11801   0.00000   0.00000
 RFO step:  Lambda=-1.17871642D-02 EMin=-6.95624114D-16
 Linear search not attempted -- first point.
 Variable       Old X    -DE/DX   Delta X   Delta X   Delta X     New X
                                 (Linear)    (Quad)   (Total)
   rn1        2.34817   0.03370   0.00000   0.02979   0.02979   2.37797
   rn2        2.51900   0.05563   0.00000   0.07833   0.07833   2.59733
   rn3        2.10629   0.04102   0.00000   0.07697   0.07697   2.18326
   rn4        1.75064   0.04338   0.00000   0.05079   0.05079   1.80143
   rch        2.01785   0.01336   0.00000   0.03454   0.03454   2.05239
   rnh        1.87858   0.01998   0.00000   0.04003   0.04003   1.91861
   an1        1.25389  -0.01929   0.00000   0.01568   0.01568   1.26957
   an2        2.33355  -0.04517   0.00000   0.01244   0.01244   2.34599
   an3        3.39396   0.06797   0.00000   0.00752   0.00752   3.40148
   an4        4.81845  -0.00942   0.00000  -0.01631  -0.01631   4.80214
   ach        2.18209  -0.00014   0.00000  -0.00372  -0.00372   2.17838
   anh        2.10770  -0.00053   0.00000  -0.00316  -0.00316   2.10454
         Item               Value     Threshold  Converged?
 Maximum Force            0.067971     0.000450     NO 
 RMS     Force            0.035934     0.000300     NO 
 Maximum Displacement     0.078326     0.001800     NO 
 RMS     Displacement     0.039863     0.001200     NO 
 Predicted change in Energy=-6.005967D-03
 Lowest energy point so far.  Saving SCF results.
 GradGradGradGradGradGradGradGradGradGradGradGradGradGradGradGradGradGrad

 Leave Link  103 at Wed Dec  4 12:05:07 2013, MaxMem=   436000000 cpu:         0.1
 (Enter /usr/local/gaussian/g09.d01.em64t.legacy.linda/g09/l202.exe)
 ---------------------------------------------------------------------------------------------------
                            Z-MATRIX (ANGSTROMS AND DEGREES)
   CD    Cent   Atom    N1       Length/X        N2       Alpha/Y        N3        Beta/Z          J
 ---------------------------------------------------------------------------------------------------
      1         X 
      2         X        1   1.000000(     1)
      3      1  C        1   1.000000(     2)      2   90.000(     9)
      4      2  N        1   1.258365(     3)      2   90.000(    10)      3   72.741(    16)      0
      5      3  N        1   1.374448(     4)      2   90.000(    11)      3  134.415(    17)      0
      6      4  N        1   1.155331(     5)      2   90.000(    12)      3  194.891(    18)      0
      7      5  N        1   0.953277(     6)      2   90.000(    13)      3  275.143(    19)      0
      8      6  H        3   1.086079(     7)      4  124.812(    14)      5  180.000(    20)      0
      9      7  H        4   1.015285(     8)      5  120.582(    15)      6  180.000(    21)      0
 ---------------------------------------------------------------------------------------------------
                         Z-Matrix orientation:                         
 ---------------------------------------------------------------------
 Center     Atomic      Atomic             Coordinates (Angstroms)
 Number     Number       Type             X           Y           Z
 ---------------------------------------------------------------------
      1         -1           0        0.000000    0.000000    0.000000
      2         -1           0        0.000000    0.000000    1.000000
      3          6           0        1.000000    0.000000    0.000000
      4          7           0        0.373350   -1.201704    0.000000
      5          7           0       -0.961915   -0.981747    0.000000
      6          7           0       -1.116534    0.296889    0.000000
      7          7           0        0.085446    0.949440    0.000000
      8          1           0        2.077345    0.137464    0.000000
      9          1           0        0.740953   -2.148104    0.000000
 ---------------------------------------------------------------------
                    Distance matrix (angstroms):
                    1          2          3          4          5
     1  X    0.000000
     2  X    1.000000   0.000000
     3  C    1.000000   1.414214   0.000000
     4  N    1.258365   1.607322   1.355280   0.000000
     5  N    1.374448   1.699737   2.193841   1.353260   0.000000
     6  N    1.155331   1.528002   2.137255   2.113181   1.287951
     7  N    0.953277   1.381570   1.318273   2.170325   2.196918
     8  H    2.081888   2.309601   1.086079   2.167249   3.238786
     9  H    2.272303   2.482612   2.163667   1.015285   2.064012
                    6          7          8          9
     6  N    0.000000
     7  N    1.367691   0.000000
     8  H    3.197855   2.151038   0.000000
     9  H    3.070545   3.166144   2.647596   0.000000
 Stoichiometry    CH2N4
 Framework group  CS[SG(CH2N4)]
 Deg. of freedom    11
 Full point group                 CS      NOp   2
 RotChk:  IX=0 Diff= 4.45D-03
 Largest Abelian subgroup         CS      NOp   2
 Largest concise Abelian subgroup C1      NOp   1
                         Standard orientation:                         
 ---------------------------------------------------------------------
 Center     Atomic      Atomic             Coordinates (Angstroms)
 Number     Number       Type             X           Y           Z
 ---------------------------------------------------------------------
      1          6           0        1.071545    0.230920    0.000000
      2          7           0        0.000000    1.060723    0.000000
      3          7           0       -1.121117    0.302824    0.000000
      4          7           0       -0.727176   -0.923401    0.000000
      5          7           0        0.637520   -1.013856    0.000000
      6          1           0        2.107734    0.556315    0.000000
      7          1           0       -0.061593    2.074138    0.000000
 ---------------------------------------------------------------------
 Rotational constants (GHZ):     10.4753097     10.2686808      5.1854831
 Leave Link  202 at Wed Dec  4 12:05:07 2013, MaxMem=   436000000 cpu:         0.0
 (Enter /usr/local/gaussian/g09.d01.em64t.legacy.linda/g09/l301.exe)
 Standard basis: 6-311G(d) (5D, 7F)
 Ernie: Thresh=  0.10000D-02 Tol=  0.10000D-05 Strict=F.
 There are    76 symmetry adapted cartesian basis functions of A'  symmetry.
 There are    25 symmetry adapted cartesian basis functions of A"  symmetry.
 There are    71 symmetry adapted basis functions of A'  symmetry.
 There are    25 symmetry adapted basis functions of A"  symmetry.
    96 basis functions,   170 primitive gaussians,   101 cartesian basis functions
    18 alpha electrons       18 beta electrons
       nuclear repulsion energy       166.2048267749 Hartrees.
 IExCor= 1009 DFT=T Ex=PBE Corr=PBE ExCW=0 ScaHFX=  0.000000
 ScaDFX=  1.000000  1.000000  1.000000  1.000000 ScalE2=  1.000000  1.000000
 IRadAn=      5 IRanWt=     -1 IRanGd=            0 ICorTp=0 IEmpDi=  4
 NAtoms=    7 NActive=    7 NUniq=    7 SFac= 1.00D+00 NAtFMM=   60 NAOKFM=F Big=F
 Integral buffers will be    131072 words long.
 Raffenetti 2 integral format.
 Two-electron integral symmetry is turned on.
 Leave Link  301 at Wed Dec  4 12:05:07 2013, MaxMem=   436000000 cpu:         0.3
 (Enter /usr/local/gaussian/g09.d01.em64t.legacy.linda/g09/l302.exe)
 NPDir=0 NMtPBC=     1 NCelOv=     1 NCel=       1 NClECP=     1 NCelD=      1
         NCelK=      1 NCelE2=     1 NClLst=     1 CellRange=     0.0.
 One-electron integrals computed using PRISM.
 NBasis=    96 RedAO= T EigKep=  4.85D-03  NBF=    71    25
 NBsUse=    96 1.00D-06 EigRej= -1.00D+00 NBFU=    71    25
 Precomputing XC quadrature grid using
 IXCGrd= 4 IRadAn=           5 IRanWt=          -1 IRanGd=           0 AccXCQ= 0.00D+00.
 Generated NRdTot=       0 NPtTot=           0 NUsed=           0 NTot=          32
 NSgBfM=   101   101   101   101   101 MxSgAt=     7 MxSgA2=     7.
 Leave Link  302 at Wed Dec  4 12:05:07 2013, MaxMem=   436000000 cpu:         1.3
 (Enter /usr/local/gaussian/g09.d01.em64t.legacy.linda/g09/l303.exe)
 DipDrv:  MaxL=1.
 Leave Link  303 at Wed Dec  4 12:05:07 2013, MaxMem=   436000000 cpu:         0.2
 (Enter /usr/local/gaussian/g09.d01.em64t.legacy.linda/g09/l401.exe)
 Initial guess from the checkpoint file:  "/tmp/rdj3/g09-16643/Gau-11180.chk"
 B after Tr=     0.000000    0.000000    0.000000
         Rot=    1.000000    0.000000    0.000000   -0.000189 Ang=  -0.02 deg.
 Guess basis will be translated and rotated to current coordinates.
 JPrj=2 DoOrth=T DoCkMO=T.
 Initial guess orbital symmetries:
       Occupied  (A') (A') (A') (A') (A') (A') (A') (A') (A') (A')
                 (A') (A") (A') (A') (A") (A") (A') (A')
       Virtual   (A') (A') (A') (A') (A') (A') (A') (A') (A') (A')
                 (A') (A') (A') (A') (A') (A') (A') (A') (A') (A')
                 (A') (A') (A') (A') (A') (A') (A') (A') (A') (A')
                 (A') (A') (A') (A') (A') (A') (A') (A') (A') (A')
                 (A') (A') (A') (A') (A') (A') (A') (A') (A') (A')
                 (A') (A') (A') (A') (A') (A') (A") (A") (A") (A")
                 (A") (A") (A") (A") (A") (A") (A") (A") (A") (A")
                 (A") (A") (A") (A") (A") (A") (A") (A")
 The electronic state of the initial guess is 1-A'.
 Generating alternative initial guess.
 ExpMin= 1.03D-01 ExpMax= 6.29D+03 ExpMxC= 9.49D+02 IAcc=2 IRadAn=         4 AccDes= 0.00D+00
 Harris functional with IExCor= 1009 and IRadAn=       4 diagonalized for initial guess.
 HarFok:  IExCor= 1009 AccDes= 0.00D+00 IRadAn=         4 IDoV= 1 UseB2=F ITyADJ=14
 ICtDFT=  3500011 ScaDFX=  1.000000  1.000000  1.000000  1.000000
 FoFCou: FMM=F IPFlag=           0 FMFlag=      100000 FMFlg1=           0
         NFxFlg=           0 DoJE=T BraDBF=F KetDBF=T FulRan=T
         wScrn=  0.000000 ICntrl=     500 IOpCl=  0 I1Cent=   200000004 NGrid=           0
         NMat0=    1 NMatS0=      1 NMatT0=    0 NMatD0=    1 NMtDS0=    0 NMtDT0=    0
 Petite list used in FoFCou.
 Harris En= -258.031229213418    
 Leave Link  401 at Wed Dec  4 12:05:07 2013, MaxMem=   436000000 cpu:         1.9
 (Enter /usr/local/gaussian/g09.d01.em64t.legacy.linda/g09/l502.exe)
 Closed shell SCF:
 Using DIIS extrapolation, IDIIS=  1040.
 Integral symmetry usage will be decided dynamically.
 Keep J ints in memory in symmetry-blocked form, NReq=16630616.
 IVT=       50743 IEndB=       50743 NGot=   436000000 MDV=   430210977
 LenX=   430210977 LenY=   430200335
 Requested convergence on RMS density matrix=1.00D-08 within 128 cycles.
 Requested convergence on MAX density matrix=1.00D-06.
 Requested convergence on             energy=1.00D-06.
 No special actions if energy rises.
 FoFCou: FMM=F IPFlag=           0 FMFlag=           0 FMFlg1=           0
         NFxFlg=           0 DoJE=F BraDBF=F KetDBF=F FulRan=T
         wScrn=  0.000000 ICntrl=     600 IOpCl=  0 I1Cent=           0 NGrid=           0
         NMat0=    1 NMatS0=   4656 NMatT0=    0 NMatD0=    1 NMtDS0=    0 NMtDT0=    0
 Petite list used in FoFCou.
 Integral accuracy reduced to 1.0D-05 until final iterations.

 Cycle   1  Pass 0  IDiag  1:
 E= -258.035659389407    
 DIIS: error= 5.19D-03 at cycle   1 NSaved=   1.
 NSaved= 1 IEnMin= 1 EnMin= -258.035659389407     IErMin= 1 ErrMin= 5.19D-03
 ErrMax= 5.19D-03  0.00D+00 EMaxC= 1.00D-01 BMatC= 1.95D-03 BMatP= 1.95D-03
 IDIUse=3 WtCom= 9.48D-01 WtEn= 5.19D-02
 Coeff-Com:  0.100D+01
 Coeff-En:   0.100D+01
 Coeff:      0.100D+01
 Gap=     0.852 Goal=   None    Shift=    0.000
 GapD=    0.852 DampG=2.000 DampE=1.000 DampFc=2.0000 IDamp=-1.
 RMSDP=7.01D-04 MaxDP=1.16D-02              OVMax= 1.61D-02

 Cycle   2  Pass 0  IDiag  1:
 E= -258.037169365567     Delta-E=       -0.001509976160 Rises=F Damp=F
 DIIS: error= 2.62D-03 at cycle   2 NSaved=   2.
 NSaved= 2 IEnMin= 2 EnMin= -258.037169365567     IErMin= 2 ErrMin= 2.62D-03
 ErrMax= 2.62D-03  0.00D+00 EMaxC= 1.00D-01 BMatC= 4.64D-04 BMatP= 1.95D-03
 IDIUse=3 WtCom= 9.74D-01 WtEn= 2.62D-02
 Coeff-Com:  0.274D+00 0.726D+00
 Coeff-En:   0.000D+00 0.100D+01
 Coeff:      0.267D+00 0.733D+00
 Gap=     0.185 Goal=   None    Shift=    0.000
 RMSDP=2.87D-04 MaxDP=5.60D-03 DE=-1.51D-03 OVMax= 9.65D-03

 Cycle   3  Pass 0  IDiag  1:
 E= -258.037264168890     Delta-E=       -0.000094803324 Rises=F Damp=F
 DIIS: error= 2.33D-03 at cycle   3 NSaved=   3.
 NSaved= 3 IEnMin= 3 EnMin= -258.037264168890     IErMin= 3 ErrMin= 2.33D-03
 ErrMax= 2.33D-03  0.00D+00 EMaxC= 1.00D-01 BMatC= 3.61D-04 BMatP= 4.64D-04
 IDIUse=3 WtCom= 9.77D-01 WtEn= 2.33D-02
 Coeff-Com:  0.609D-01 0.465D+00 0.474D+00
 Coeff-En:   0.000D+00 0.440D+00 0.560D+00
 Coeff:      0.595D-01 0.464D+00 0.476D+00
 Gap=     0.188 Goal=   None    Shift=    0.000
 RMSDP=1.94D-04 MaxDP=3.43D-03 DE=-9.48D-05 OVMax= 9.82D-03

 Cycle   4  Pass 0  IDiag  1:
 E= -258.037463079105     Delta-E=       -0.000198910215 Rises=F Damp=F
 DIIS: error= 1.73D-03 at cycle   4 NSaved=   4.
 NSaved= 4 IEnMin= 4 EnMin= -258.037463079105     IErMin= 4 ErrMin= 1.73D-03
 ErrMax= 1.73D-03  0.00D+00 EMaxC= 1.00D-01 BMatC= 1.20D-04 BMatP= 3.61D-04
 IDIUse=3 WtCom= 9.83D-01 WtEn= 1.73D-02
 Coeff-Com:  0.113D-01 0.271D+00 0.375D+00 0.343D+00
 Coeff-En:   0.000D+00 0.000D+00 0.284D+00 0.716D+00
 Coeff:      0.111D-01 0.267D+00 0.373D+00 0.349D+00
 Gap=     0.186 Goal=   None    Shift=    0.000
 RMSDP=9.78D-05 MaxDP=1.15D-03 DE=-1.99D-04 OVMax= 4.64D-03

 Cycle   5  Pass 0  IDiag  1:
 E= -258.037568550736     Delta-E=       -0.000105471630 Rises=F Damp=F
 DIIS: error= 2.87D-04 at cycle   5 NSaved=   5.
 NSaved= 5 IEnMin= 5 EnMin= -258.037568550736     IErMin= 5 ErrMin= 2.87D-04
 ErrMax= 2.87D-04  0.00D+00 EMaxC= 1.00D-01 BMatC= 4.06D-06 BMatP= 1.20D-04
 IDIUse=3 WtCom= 9.97D-01 WtEn= 2.87D-03
 Coeff-Com:  0.379D-02 0.143D+00 0.207D+00 0.227D+00 0.419D+00
 Coeff-En:   0.000D+00 0.000D+00 0.000D+00 0.000D+00 0.100D+01
 Coeff:      0.378D-02 0.143D+00 0.207D+00 0.227D+00 0.420D+00
 Gap=     0.186 Goal=   None    Shift=    0.000
 RMSDP=1.87D-05 MaxDP=3.16D-04 DE=-1.05D-04 OVMax= 1.12D-03

 Cycle   6  Pass 0  IDiag  1:
 E= -258.037571313619     Delta-E=       -0.000002762883 Rises=F Damp=F
 DIIS: error= 1.69D-04 at cycle   6 NSaved=   6.
 NSaved= 6 IEnMin= 6 EnMin= -258.037571313619     IErMin= 6 ErrMin= 1.69D-04
 ErrMax= 1.69D-04  0.00D+00 EMaxC= 1.00D-01 BMatC= 9.31D-07 BMatP= 4.06D-06
 IDIUse=3 WtCom= 9.98D-01 WtEn= 1.69D-03
 Coeff-Com:  0.310D-03 0.393D-01 0.616D-01 0.881D-01 0.333D+00 0.477D+00
 Coeff-En:   0.000D+00 0.000D+00 0.000D+00 0.000D+00 0.220D+00 0.780D+00
 Coeff:      0.310D-03 0.392D-01 0.615D-01 0.880D-01 0.333D+00 0.478D+00
 Gap=     0.186 Goal=   None    Shift=    0.000
 RMSDP=7.59D-06 MaxDP=1.40D-04 DE=-2.76D-06 OVMax= 4.80D-04

 Initial convergence to 1.0D-05 achieved.  Increase integral accuracy.
 Cycle   7  Pass 1  IDiag  1:
 E= -258.037569580361     Delta-E=        0.000001733258 Rises=F Damp=F
 DIIS: error= 2.83D-05 at cycle   1 NSaved=   1.
 NSaved= 1 IEnMin= 1 EnMin= -258.037569580361     IErMin= 1 ErrMin= 2.83D-05
 ErrMax= 2.83D-05  0.00D+00 EMaxC= 1.00D-01 BMatC= 4.55D-08 BMatP= 4.55D-08
 IDIUse=1 WtCom= 1.00D+00 WtEn= 0.00D+00
 Coeff-Com:  0.100D+01
 Coeff:      0.100D+01
 Gap=     0.186 Goal=   None    Shift=    0.000
 RMSDP=7.59D-06 MaxDP=1.40D-04 DE= 1.73D-06 OVMax= 3.61D-04

 Cycle   8  Pass 1  IDiag  1:
 E= -258.037569345033     Delta-E=        0.000000235328 Rises=F Damp=F
 DIIS: error= 7.45D-05 at cycle   2 NSaved=   2.
 NSaved= 2 IEnMin= 1 EnMin= -258.037569580361     IErMin= 1 ErrMin= 2.83D-05
 ErrMax= 7.45D-05  0.00D+00 EMaxC= 1.00D-01 BMatC= 2.81D-07 BMatP= 4.55D-08
 IDIUse=1 WtCom= 1.00D+00 WtEn= 0.00D+00
 Coeff-Com:  0.716D+00 0.284D+00
 Coeff:      0.716D+00 0.284D+00
 Gap=     0.186 Goal=   None    Shift=    0.000
 RMSDP=4.53D-06 MaxDP=6.42D-05 DE= 2.35D-07 OVMax= 2.60D-04

 Cycle   9  Pass 1  IDiag  1:
 E= -258.037569625287     Delta-E=       -0.000000280254 Rises=F Damp=F
 DIIS: error= 6.13D-06 at cycle   3 NSaved=   3.
 NSaved= 3 IEnMin= 3 EnMin= -258.037569625287     IErMin= 3 ErrMin= 6.13D-06
 ErrMax= 6.13D-06  0.00D+00 EMaxC= 1.00D-01 BMatC= 2.46D-09 BMatP= 4.55D-08
 IDIUse=1 WtCom= 1.00D+00 WtEn= 0.00D+00
 Coeff-Com:  0.390D+00 0.161D+00 0.449D+00
 Coeff:      0.390D+00 0.161D+00 0.449D+00
 Gap=     0.186 Goal=   None    Shift=    0.000
 RMSDP=4.25D-07 MaxDP=6.51D-06 DE=-2.80D-07 OVMax= 2.01D-05

 Cycle  10  Pass 1  IDiag  1:
 E= -258.037569626756     Delta-E=       -0.000000001469 Rises=F Damp=F
 DIIS: error= 3.42D-06 at cycle   4 NSaved=   4.
 NSaved= 4 IEnMin= 4 EnMin= -258.037569626756     IErMin= 4 ErrMin= 3.42D-06
 ErrMax= 3.42D-06  0.00D+00 EMaxC= 1.00D-01 BMatC= 5.50D-10 BMatP= 2.46D-09
 IDIUse=1 WtCom= 1.00D+00 WtEn= 0.00D+00
 Coeff-Com:  0.142D+00 0.597D-01 0.318D+00 0.480D+00
 Coeff:      0.142D+00 0.597D-01 0.318D+00 0.480D+00
 Gap=     0.186 Goal=   None    Shift=    0.000
 RMSDP=1.66D-07 MaxDP=2.39D-06 DE=-1.47D-09 OVMax= 1.02D-05

 Cycle  11  Pass 1  IDiag  1:
 E= -258.037569627155     Delta-E=       -0.000000000399 Rises=F Damp=F
 DIIS: error= 1.06D-06 at cycle   5 NSaved=   5.
 NSaved= 5 IEnMin= 5 EnMin= -258.037569627155     IErMin= 5 ErrMin= 1.06D-06
 ErrMax= 1.06D-06  0.00D+00 EMaxC= 1.00D-01 BMatC= 4.87D-11 BMatP= 5.50D-10
 IDIUse=1 WtCom= 1.00D+00 WtEn= 0.00D+00
 Coeff-Com:  0.617D-01 0.265D-01 0.177D+00 0.317D+00 0.418D+00
 Coeff:      0.617D-01 0.265D-01 0.177D+00 0.317D+00 0.418D+00
 Gap=     0.186 Goal=   None    Shift=    0.000
 RMSDP=8.03D-08 MaxDP=9.85D-07 DE=-3.99D-10 OVMax= 3.97D-06

 Cycle  12  Pass 1  IDiag  1:
 E= -258.037569627181     Delta-E=       -0.000000000026 Rises=F Damp=F
 DIIS: error= 7.17D-07 at cycle   6 NSaved=   6.
 NSaved= 6 IEnMin= 6 EnMin= -258.037569627181     IErMin= 6 ErrMin= 7.17D-07
 ErrMax= 7.17D-07  0.00D+00 EMaxC= 1.00D-01 BMatC= 1.78D-11 BMatP= 4.87D-11
 IDIUse=1 WtCom= 1.00D+00 WtEn= 0.00D+00
 Coeff-Com:  0.306D-02 0.192D-02 0.357D-01 0.961D-01 0.374D+00 0.489D+00
 Coeff:      0.306D-02 0.192D-02 0.357D-01 0.961D-01 0.374D+00 0.489D+00
 Gap=     0.186 Goal=   None    Shift=    0.000
 RMSDP=3.34D-08 MaxDP=4.27D-07 DE=-2.58D-11 OVMax= 1.80D-06

 Cycle  13  Pass 1  IDiag  1:
 E= -258.037569627196     Delta-E=       -0.000000000015 Rises=F Damp=F
 DIIS: error= 4.06D-08 at cycle   7 NSaved=   7.
 NSaved= 7 IEnMin= 7 EnMin= -258.037569627196     IErMin= 7 ErrMin= 4.06D-08
 ErrMax= 4.06D-08  0.00D+00 EMaxC= 1.00D-01 BMatC= 1.78D-13 BMatP= 1.78D-11
 IDIUse=1 WtCom= 1.00D+00 WtEn= 0.00D+00
 Coeff-Com: -0.150D-03 0.313D-03 0.129D-01 0.400D-01 0.180D+00 0.242D+00
 Coeff-Com:  0.526D+00
 Coeff:     -0.150D-03 0.313D-03 0.129D-01 0.400D-01 0.180D+00 0.242D+00
 Coeff:      0.526D+00
 Gap=     0.186 Goal=   None    Shift=    0.000
 RMSDP=4.12D-09 MaxDP=8.35D-08 DE=-1.55D-11 OVMax= 1.50D-07

 SCF Done:  E(RPBE-PBE) =  -258.037569627     A.U. after   13 cycles
            NFock= 13  Conv=0.41D-08     -V/T= 2.0019
 KE= 2.575370829364D+02 PE=-9.360446613866D+02 EE= 2.542651820482D+02
 Leave Link  502 at Wed Dec  4 12:05:10 2013, MaxMem=   436000000 cpu:        17.5
 (Enter /usr/local/gaussian/g09.d01.em64t.legacy.linda/g09/l701.exe)
 Compute integral first derivatives.
 ... and contract with generalized density number  0.
 Leave Link  701 at Wed Dec  4 12:05:10 2013, MaxMem=   436000000 cpu:         1.2
 (Enter /usr/local/gaussian/g09.d01.em64t.legacy.linda/g09/l702.exe)
 L702 exits ... SP integral derivatives will be done elsewhere.
 Leave Link  702 at Wed Dec  4 12:05:10 2013, MaxMem=   436000000 cpu:         0.1
 (Enter /usr/local/gaussian/g09.d01.em64t.legacy.linda/g09/l703.exe)
 Compute integral first derivatives, UseDBF=F ICtDFT=           0.
 Integral derivatives from FoFJK, PRISM(SPDF).
 Calling FoFJK, ICntrl=      2527 FMM=F ISym2X=1 I1Cent= 0 IOpClX= 0 NMat=1 NMatS=1 NMatT=0.
 FoFJK:  IHMeth= 1 ICntrl=    2527 DoSepK=F KAlg= 0 I1Cent=   0 FoldK=F
 IRaf=         0 NMat=   1 IRICut=       1 DoRegI=T DoRafI=F ISym2E= 1.
 FoFCou: FMM=F IPFlag=           0 FMFlag=      100000 FMFlg1=         800
         NFxFlg=           0 DoJE=F BraDBF=F KetDBF=F FulRan=T
         wScrn=  0.000000 ICntrl=    2527 IOpCl=  0 I1Cent=           0 NGrid=           0
         NMat0=    1 NMatS0=      1 NMatT0=    0 NMatD0=    1 NMtDS0=    0 NMtDT0=    0
 Petite list used in FoFCou.
 Leave Link  703 at Wed Dec  4 12:05:11 2013, MaxMem=   436000000 cpu:         6.5
 (Enter /usr/local/gaussian/g09.d01.em64t.legacy.linda/g09/l716.exe)
 Dipole        = 9.50550963D-01 1.84595230D+00 3.23199296D-33
 ***** Axes restored to original set *****
 -------------------------------------------------------------------
 Center     Atomic                   Forces (Hartrees/Bohr)
 Number     Number              X              Y              Z
 -------------------------------------------------------------------
      1        6           0.002975127   -0.002901758    0.000000000
      2        7           0.004430596    0.003049806    0.000000000
      3        7          -0.004800902   -0.011788220    0.000000000
      4        7          -0.005028360    0.008444609    0.000000000
      5        7           0.002305928    0.003812351    0.000000000
      6        1           0.000040535   -0.000075029    0.000000000
      7        1           0.000077077   -0.000541760    0.000000000
 -------------------------------------------------------------------
 Cartesian Forces:  Max     0.011788220 RMS     0.003933784
 -----------------------------------------------------------------------------------------------
                       Internal Coordinate Forces (Hartree/Bohr or radian)
  Cent   Atom   N1       Length/X         N2         Alpha/Y        N3         Beta/Z          J
 -----------------------------------------------------------------------------------------------
         X 
         X        1   0.000000(     1)
      1  C        1   0.003072(     2)      2   0.000000(     9)
      2  N        1  -0.001019(     3)      2   0.000000(    10)      3  -0.011799(    16)     0
      3  N        1   0.011704(     4)      2   0.000000(    11)      3  -0.012382(    17)     0
      4  N        1   0.007030(     5)      2   0.000000(    12)      3   0.014997(    18)     0
      5  N        1   0.004004(     6)      2   0.000000(    13)      3   0.003522(    19)     0
      6  H        3   0.000031(     7)      4  -0.000163(    14)      5   0.000000(    20)     0
      7  H        4   0.000533(     8)      5  -0.000238(    15)      6   0.000000(    21)     0
 -----------------------------------------------------------------------------------------------
 Internal  Forces:  Max     0.014996536 RMS     0.005948590
 Leave Link  716 at Wed Dec  4 12:05:11 2013, MaxMem=   436000000 cpu:         0.2
 (Enter /usr/local/gaussian/g09.d01.em64t.legacy.linda/g09/l103.exe)

 GradGradGradGradGradGradGradGradGradGradGradGradGradGradGradGradGradGrad
 Berny optimization.
 Search for a local minimum.
 Step number   2 out of a maximum of   22
 All quantities printed in internal units (Hartrees-Bohrs-Radians)
 Update second derivatives using D2CorN and points    1    2
 DE= -6.40D-03 DEPred=-6.01D-03 R= 1.07D+00
 TightC=F SS=  1.41D+00  RLast= 1.38D-01 DXNew= 5.0454D-01 4.1427D-01
 Trust test= 1.07D+00 RLast= 1.38D-01 DXMaxT set to 4.14D-01
 The second derivative matrix:
                          rn1       rn2       rn3       rn4       rch
           rn1          0.65400
           rn2          0.00757   0.65441
           rn3          0.03270   0.03901   0.55791
           rn4          0.03605   0.00527   0.12465   0.63014
           rch          0.00154  -0.00899  -0.00479  -0.00258   0.37578
           rnh          0.00139  -0.01144  -0.00655  -0.00366   0.00034
           an1          0.03004  -0.72998   0.06425  -0.07030   0.01101
           an2          0.73142  -0.29012  -0.69536   0.06993   0.01147
           an3         -0.04051   1.01523   0.02283  -0.60635  -0.01343
           an4          0.04979  -0.03530   0.65363  -0.10358  -0.00352
           ach          0.04542   0.00130   0.00084   0.05115   0.00007
           anh         -0.10201   0.05406   0.00091   0.00055   0.00015
                          rnh       an1       an2       an3       an4
           rnh          0.48728
           an1          0.01255   4.54242
           an2          0.01313  -2.67145   6.03117
           an3         -0.01566  -0.03950  -3.19858   4.46877
           an4         -0.00387  -0.12923  -0.07249  -1.15478   2.58796
           ach          0.00013  -0.10571  -0.00118   0.00148   0.07349
           anh          0.00022   0.03428  -0.09156   0.00127   0.00022
                          ach       anh
           ach          0.31998
           anh         -0.00003   0.31997
 ITU=  1  0
     Eigenvalues ---    0.00000   0.12775   0.26459   0.32807   0.37542
     Eigenvalues ---    0.39557   0.48710   0.72948   1.20986   2.99029
     Eigenvalues ---    5.08508   9.63659
 Eigenvalue     1 is  -9.69D-07 should be greater than     0.000000 Eigenvector:
                          rn4       an3       rn1       an2       rn2
   1                    0.46996   0.46735  -0.44924   0.37985  -0.34117
                          an4       an1       rn3       anh       rnh
   1                    0.22140   0.18750   0.11852  -0.00013   0.00010
 RFO step:  Lambda=-1.76767354D-04 EMin=-9.69414437D-07
 Quartic linear search produced a step of  0.14855.
 Variable       Old X    -DE/DX   Delta X   Delta X   Delta X     New X
                                 (Linear)    (Quad)   (Total)
   rn1        2.37797  -0.00102   0.00443  -0.15977  -0.15534   2.22262
   rn2        2.59733   0.01170   0.01163  -0.10170  -0.09007   2.50726
   rn3        2.18326   0.00703   0.01143   0.04571   0.05715   2.24041
   rn4        1.80143   0.00400   0.00754   0.15121   0.15875   1.96019
   rch        2.05239   0.00003   0.00513  -0.00399   0.00114   2.05353
   rnh        1.91861   0.00053   0.00595  -0.00374   0.00221   1.92082
   an1        1.26957  -0.01180   0.00233   0.06196   0.06429   1.33386
   an2        2.34599  -0.01238   0.00185   0.12644   0.12829   2.47428
   an3        3.40148   0.01500   0.00112   0.15351   0.15463   3.55611
   an4        4.80214   0.00352  -0.00242   0.07331   0.07089   4.87304
   ach        2.17838  -0.00016  -0.00055   0.00157   0.00102   2.17940
   anh        2.10454  -0.00024  -0.00047  -0.00596  -0.00642   2.09812
         Item               Value     Threshold  Converged?
 Maximum Force            0.014997     0.000450     NO 
 RMS     Force            0.007819     0.000300     NO 
 Maximum Displacement     0.158754     0.001800     NO 
 RMS     Displacement     0.095868     0.001200     NO 
 Predicted change in Energy=-1.720245D-04
 Lowest energy point so far.  Saving SCF results.
 GradGradGradGradGradGradGradGradGradGradGradGradGradGradGradGradGradGrad

 Leave Link  103 at Wed Dec  4 12:05:11 2013, MaxMem=   436000000 cpu:         0.1
 (Enter /usr/local/gaussian/g09.d01.em64t.legacy.linda/g09/l202.exe)
 ---------------------------------------------------------------------------------------------------
                            Z-MATRIX (ANGSTROMS AND DEGREES)
   CD    Cent   Atom    N1       Length/X        N2       Alpha/Y        N3        Beta/Z          J
 ---------------------------------------------------------------------------------------------------
      1         X 
      2         X        1   1.000000(     1)
      3      1  C        1   1.000000(     2)      2   90.000(     9)
      4      2  N        1   1.176161(     3)      2   90.000(    10)      3   76.425(    16)      0
      5      3  N        1   1.326787(     4)      2   90.000(    11)      3  141.766(    17)      0
      6      4  N        1   1.185571(     5)      2   90.000(    12)      3  203.750(    18)      0
      7      5  N        1   1.037286(     6)      2   90.000(    13)      3  279.204(    19)      0
      8      6  H        3   1.086682(     7)      4  124.870(    14)      5  180.000(    20)      0
      9      7  H        4   1.016453(     8)      5  120.213(    15)      6  180.000(    21)      0
 ---------------------------------------------------------------------------------------------------
                         Z-Matrix orientation:                         
 ---------------------------------------------------------------------
 Center     Atomic      Atomic             Coordinates (Angstroms)
 Number     Number       Type             X           Y           Z
 ---------------------------------------------------------------------
      1         -1           0        0.000000    0.000000    0.000000
      2         -1           0        0.000000    0.000000    1.000000
      3          6           0        1.000000    0.000000    0.000000
      4          7           0        0.276075   -1.143301    0.000000
      5          7           0       -1.042172   -0.821122    0.000000
      6          7           0       -1.085166    0.477488    0.000000
      7          7           0        0.165921    1.023930    0.000000
      8          1           0        2.085624    0.047943    0.000000
      9          1           0        0.564415   -2.117999    0.000000
 ---------------------------------------------------------------------
                    Distance matrix (angstroms):
                    1          2          3          4          5
     1  X    0.000000
     2  X    1.000000   0.000000
     3  C    1.000000   1.414214   0.000000
     4  N    1.176161   1.543812   1.353220   0.000000
     5  N    1.326787   1.661434   2.201069   1.357046   0.000000
     6  N    1.185571   1.550993   2.139138   2.116586   1.299321
     7  N    1.037286   1.440820   1.320652   2.170029   2.205380
     8  H    2.086175   2.313466   1.086682   2.166456   3.246287
     9  H    2.191914   2.409250   2.162326   1.016453   2.064707
                    6          7          8          9
     6  N    0.000000
     7  N    1.365216   0.000000
     8  H    3.199753   2.153558   0.000000
     9  H    3.075333   3.167099   2.646769   0.000000
 Stoichiometry    CH2N4
 Framework group  CS[SG(CH2N4)]
 Deg. of freedom    11
 Full point group                 CS      NOp   2
 RotChk:  IX=0 Diff= 1.15D-01
 Largest Abelian subgroup         CS      NOp   2
 Largest concise Abelian subgroup C1      NOp   1
                         Standard orientation:                         
 ---------------------------------------------------------------------
 Center     Atomic      Atomic             Coordinates (Angstroms)
 Number     Number       Type             X           Y           Z
 ---------------------------------------------------------------------
      1          6           0        1.072083    0.234306    0.000000
      2          7           0        0.000000    1.060044    0.000000
      3          7           0       -1.127839    0.305356    0.000000
      4          7           0       -0.722918   -0.929259    0.000000
      5          7           0        0.639694   -1.013556    0.000000
      6          1           0        2.108324    0.561543    0.000000
      7          1           0       -0.063378    2.074519    0.000000
 ---------------------------------------------------------------------
 Rotational constants (GHZ):     10.4457350     10.2240234      5.1668451
 Leave Link  202 at Wed Dec  4 12:05:11 2013, MaxMem=   436000000 cpu:         0.0
 (Enter /usr/local/gaussian/g09.d01.em64t.legacy.linda/g09/l301.exe)
 Standard basis: 6-311G(d) (5D, 7F)
 Ernie: Thresh=  0.10000D-02 Tol=  0.10000D-05 Strict=F.
 There are    76 symmetry adapted cartesian basis functions of A'  symmetry.
 There are    25 symmetry adapted cartesian basis functions of A"  symmetry.
 There are    71 symmetry adapted basis functions of A'  symmetry.
 There are    25 symmetry adapted basis functions of A"  symmetry.
    96 basis functions,   170 primitive gaussians,   101 cartesian basis functions
    18 alpha electrons       18 beta electrons
       nuclear repulsion energy       165.8859260236 Hartrees.
 IExCor= 1009 DFT=T Ex=PBE Corr=PBE ExCW=0 ScaHFX=  0.000000
 ScaDFX=  1.000000  1.000000  1.000000  1.000000 ScalE2=  1.000000  1.000000
 IRadAn=      5 IRanWt=     -1 IRanGd=            0 ICorTp=0 IEmpDi=  4
 NAtoms=    7 NActive=    7 NUniq=    7 SFac= 1.00D+00 NAtFMM=   60 NAOKFM=F Big=F
 Integral buffers will be    131072 words long.
 Raffenetti 2 integral format.
 Two-electron integral symmetry is turned on.
 Leave Link  301 at Wed Dec  4 12:05:11 2013, MaxMem=   436000000 cpu:         0.3
 (Enter /usr/local/gaussian/g09.d01.em64t.legacy.linda/g09/l302.exe)
 NPDir=0 NMtPBC=     1 NCelOv=     1 NCel=       1 NClECP=     1 NCelD=      1
         NCelK=      1 NCelE2=     1 NClLst=     1 CellRange=     0.0.
 One-electron integrals computed using PRISM.
 NBasis=    96 RedAO= T EigKep=  4.95D-03  NBF=    71    25
 NBsUse=    96 1.00D-06 EigRej= -1.00D+00 NBFU=    71    25
 Precomputing XC quadrature grid using
[...]
     X                                                                           X           X  X       X       X                    
     X                                                                                          X       X       X                    
     X                                                                                          X       X       X                    
     X                                                                                                          X                    
     X                                                                                                          X                    
     X                                                                                                          X                    
     X                                                                                                          X                    
     X                                                                                                          X                    
     X                                                                                                          X                    
     X                                                                                                          X                    
                                                                                                                X                    
                                                                                                                X                    
                                                                                                                X                    
                                                                                                                X                    
                                                                                                                X                    
                                                                                                                X                    
                                                                                                                X                    
 
 ***** Axes restored to original set *****
 -------------------------------------------------------------------
 Center     Atomic                   Forces (Hartrees/Bohr)
 Number     Number              X              Y              Z
 -------------------------------------------------------------------
      1        6          -0.000030282   -0.000036043    0.000000000
      2        7           0.000018389   -0.000032293    0.000000000
      3        7           0.000115163    0.000175394    0.000000000
      4        7          -0.000202307   -0.000060898    0.000000000
      5        7           0.000078512   -0.000057646    0.000000000
      6        1           0.000008914   -0.000000966    0.000000000
      7        1           0.000011611    0.000012453    0.000000000
 -------------------------------------------------------------------
 Cartesian Forces:  Max     0.000202307 RMS     0.000069733
 -----------------------------------------------------------------------------------------------
                       Internal Coordinate Forces (Hartree/Bohr or radian)
  Cent   Atom   N1       Length/X         N2         Alpha/Y        N3         Beta/Z          J
 -----------------------------------------------------------------------------------------------
         X 
         X        1   0.000000(     1)
      1  C        1  -0.000020(     2)      2   0.000000(     9)
      2  N        1   0.000016(     3)      2   0.000000(    10)      3  -0.000064(    16)     0
      3  N        1  -0.000192(     4)      2   0.000000(    11)      3   0.000139(    17)     0
      4  N        1   0.000164(     5)      2   0.000000(    12)      3  -0.000297(    18)     0
      5  N        1  -0.000045(     6)      2   0.000000(    13)      3   0.000167(    19)     0
      6  H        3   0.000009(     7)      4  -0.000003(    14)      5   0.000000(    20)     0
      7  H        4  -0.000008(     8)      5   0.000028(    15)      6   0.000000(    21)     0
 -----------------------------------------------------------------------------------------------
 Internal  Forces:  Max     0.000296767 RMS     0.000099256
 Force constants in Cartesian coordinates: 
                1             2             3             4             5 
      1  0.896846D+00
      2 -0.339753D-02  0.568253D+00
      3  0.000000D+00  0.000000D+00  0.125617D+00
      4 -0.168965D+00 -0.740974D-01  0.000000D+00  0.508565D+00
      5 -0.105500D+00 -0.249647D+00  0.000000D+00 -0.745838D-01  0.955656D+00
      6  0.000000D+00  0.000000D+00 -0.564383D-01  0.000000D+00  0.000000D+00
      7 -0.936355D-01 -0.844758D-01  0.000000D+00 -0.197537D+00 -0.251451D-01
      8  0.804004D-02 -0.158500D-01  0.000000D+00  0.197770D-02 -0.970806D-01
      9  0.000000D+00  0.000000D+00  0.198269D-01  0.000000D+00  0.000000D+00
     10 -0.110995D+00  0.758998D-01  0.000000D+00 -0.643790D-01  0.345933D-01
     11 -0.195288D-01  0.189415D-01  0.000000D+00  0.106380D+00 -0.102230D+00
     12  0.000000D+00  0.000000D+00  0.182301D-01  0.000000D+00  0.000000D+00
     13 -0.195521D+00  0.120904D+00  0.000000D+00  0.222910D-01  0.714656D-01
     14  0.124453D+00 -0.265594D+00  0.000000D+00 -0.329263D-01 -0.101495D+00
     15  0.000000D+00  0.000000D+00 -0.731372D-01  0.000000D+00  0.000000D+00
     16 -0.344584D+00 -0.216544D-01  0.000000D+00 -0.373560D-02  0.319415D-02
     17 -0.172061D-01 -0.512867D-01  0.000000D+00 -0.298168D-01  0.427424D-02
     18  0.000000D+00  0.000000D+00 -0.249606D-01  0.000000D+00  0.000000D+00
     19  0.168556D-01 -0.131791D-01  0.000000D+00 -0.962396D-01  0.959755D-01
     20  0.131389D-01 -0.481770D-02  0.000000D+00  0.103066D+00 -0.409478D+00
     21  0.000000D+00  0.000000D+00 -0.913778D-02  0.000000D+00  0.000000D+00
                6             7             8             9            10 
      6  0.877720D-01
      7  0.000000D+00  0.423545D+00
      8  0.000000D+00  0.839904D-01  0.508041D+00
      9 -0.642699D-01  0.000000D+00  0.000000D+00  0.108114D+00
     10  0.000000D+00 -0.100185D+00 -0.208241D-01  0.000000D+00  0.447265D+00
     11  0.000000D+00  0.376750D-01 -0.301624D+00  0.000000D+00 -0.952946D-01
     12  0.244633D-01  0.000000D+00  0.000000D+00 -0.914506D-01  0.000000D+00
     13  0.000000D+00 -0.368338D-01 -0.108844D+00  0.000000D+00 -0.158734D+00
     14  0.000000D+00 -0.102848D-01 -0.880801D-01  0.000000D+00  0.372700D-02
     15  0.194885D-01  0.000000D+00  0.000000D+00  0.335330D-01  0.000000D+00
     16  0.000000D+00  0.590521D-04  0.237241D-02  0.000000D+00 -0.128960D-02
     17  0.000000D+00 -0.164138D-02 -0.678565D-02  0.000000D+00  0.611948D-02
     18 -0.347017D-02  0.000000D+00  0.000000D+00  0.573399D-02  0.000000D+00
     19  0.000000D+00  0.458805D-02  0.332871D-01  0.000000D+00 -0.116823D-01
     20  0.000000D+00 -0.118321D-03  0.137921D-02  0.000000D+00 -0.422087D-02
     21 -0.754541D-02  0.000000D+00  0.000000D+00 -0.114877D-01  0.000000D+00
               11            12            13            14            15 
     11  0.480031D+00
     12  0.000000D+00  0.117654D+00
     13 -0.354816D-01  0.000000D+00  0.382919D+00
     14 -0.923610D-01  0.000000D+00 -0.726420D-01  0.541941D+00
     15  0.000000D+00 -0.851357D-01  0.000000D+00  0.000000D+00  0.103474D+00
     16 -0.481658D-03  0.000000D+00 -0.100887D-01 -0.231915D-02  0.000000D+00
     17 -0.342077D-02  0.000000D+00  0.229117D-01  0.921229D-02  0.000000D+00
     18  0.000000D+00  0.849969D-02  0.000000D+00  0.000000D+00 -0.550869D-02
     19  0.673130D-02  0.000000D+00 -0.403260D-02 -0.100077D-01  0.000000D+00
     20  0.663283D-03  0.000000D+00  0.168562D-02 -0.362359D-02  0.000000D+00
     21  0.000000D+00  0.773918D-02  0.000000D+00  0.000000D+00  0.728602D-02
               16            17            18            19            20 
     16  0.360190D+00
     17  0.194665D-01  0.482967D-01
     18  0.000000D+00  0.000000D+00  0.203679D-01
     19 -0.550812D-03  0.166631D-03  0.000000D+00  0.910616D-01
     20 -0.577811D-03 -0.290085D-03  0.000000D+00 -0.112974D+00  0.416167D+00
     21  0.000000D+00  0.000000D+00 -0.662051D-03  0.000000D+00  0.000000D+00
               21 
     21  0.138077D-01
 Force constants in internal coordinates: 
                1             2             3             4             5 
      1  0.000000D+00
      2  0.000000D+00  0.588108D+00
      3  0.000000D+00  0.252573D-01  0.550333D+00
      4  0.000000D+00  0.730108D-01 -0.425568D-01  0.531614D+00
      5  0.000000D+00  0.101288D+00  0.788841D-01 -0.141411D-01  0.518381D+00
      6  0.000000D+00  0.817322D-01  0.950966D-01  0.712527D-01 -0.180580D-01
      7  0.000000D+00  0.147948D-01 -0.300301D-02 -0.164194D-02  0.609504D-03
      8  0.000000D+00 -0.729430D-02  0.135915D-01 -0.697914D-02  0.422061D-04
      9  0.000000D+00  0.000000D+00  0.000000D+00  0.000000D+00  0.000000D+00
     10  0.000000D+00  0.000000D+00  0.000000D+00  0.000000D+00  0.000000D+00
     11  0.000000D+00  0.000000D+00  0.000000D+00  0.000000D+00  0.000000D+00
     12  0.000000D+00  0.000000D+00  0.000000D+00  0.000000D+00  0.000000D+00
     13  0.000000D+00  0.000000D+00  0.000000D+00  0.000000D+00  0.000000D+00
     14  0.000000D+00 -0.634323D-01  0.330003D-01  0.117714D-01 -0.143758D-01
     15  0.000000D+00  0.369579D-01 -0.483433D-01  0.175106D-01  0.268627D-01
     16  0.000000D+00  0.372499D+00  0.118995D+00 -0.319156D+00 -0.211402D+00
     17  0.000000D+00  0.156219D+00  0.220752D+00 -0.122498D+00 -0.372212D+00
     18  0.000000D+00 -0.134875D+00  0.218162D+00  0.416442D+00  0.178555D+00
     19  0.000000D+00 -0.457651D+00 -0.126675D+00  0.166871D+00  0.266986D+00
     20  0.000000D+00  0.000000D+00  0.000000D+00  0.000000D+00  0.000000D+00
     21  0.000000D+00  0.000000D+00  0.000000D+00  0.000000D+00  0.000000D+00
                6             7             8             9            10 
      6  0.517249D+00
      7 -0.305509D-02  0.361394D+00
      8  0.304316D-04  0.404018D-03  0.451569D+00
      9  0.000000D+00  0.000000D+00  0.000000D+00  0.339320D+00
     10  0.000000D+00  0.000000D+00  0.000000D+00 -0.308256D+00  0.454355D+00
     11  0.000000D+00  0.000000D+00  0.000000D+00  0.103851D+00 -0.423637D+00
     12  0.000000D+00  0.000000D+00  0.000000D+00  0.151054D+00  0.158724D+00
     13  0.000000D+00  0.000000D+00  0.000000D+00 -0.292528D+00  0.111814D+00
     14  0.260525D-01  0.274291D-02  0.623719D-03  0.000000D+00  0.000000D+00
     15 -0.211424D-01 -0.133176D-02 -0.977568D-03  0.000000D+00  0.000000D+00
     16  0.130825D+00  0.103306D-01 -0.108243D-01  0.000000D+00  0.000000D+00
     17 -0.163252D+00  0.471006D-02  0.151013D-01  0.000000D+00  0.000000D+00
     18 -0.216947D+00 -0.219404D-02  0.331605D-02  0.000000D+00  0.000000D+00
     19 -0.179595D+00 -0.162426D-01 -0.552729D-02  0.000000D+00  0.000000D+00
     20  0.000000D+00  0.000000D+00  0.000000D+00  0.631718D-03  0.191951D-01
     21  0.000000D+00  0.000000D+00  0.000000D+00 -0.312017D-01  0.323027D-01
               11            12            13            14            15 
     11  0.653603D+00
     12 -0.512661D+00  0.569477D+00
     13  0.200920D+00 -0.391162D+00  0.387906D+00
     14  0.000000D+00  0.000000D+00  0.000000D+00  0.198406D+00
     15  0.000000D+00  0.000000D+00  0.000000D+00  0.441924D-03  0.205204D+00
     16  0.000000D+00  0.000000D+00  0.000000D+00  0.497378D-02 -0.338326D-01
     17  0.000000D+00  0.000000D+00  0.000000D+00 -0.224843D-01 -0.164340D-01
     18  0.000000D+00  0.000000D+00  0.000000D+00 -0.372137D-02  0.627803D-02
     19  0.000000D+00  0.000000D+00  0.000000D+00  0.867277D-01 -0.644457D-02
     20 -0.371517D-01  0.338192D-01 -0.179793D-01  0.000000D+00  0.000000D+00
     21 -0.169983D-01 -0.719310D-02  0.233992D-01  0.000000D+00  0.000000D+00
               16            17            18            19            20 
     16  0.204523D+01
     17 -0.754806D+00  0.244642D+01
     18 -0.268986D+00 -0.124686D+01  0.204919D+01
     19 -0.248105D+00 -0.244405D+00 -0.343215D+00  0.152832D+01
     20  0.000000D+00  0.000000D+00  0.000000D+00  0.000000D+00  0.578764D-01
     21  0.000000D+00  0.000000D+00  0.000000D+00  0.000000D+00 -0.185069D-02
               21 
     21  0.379553D-01
 Leave Link  716 at Wed Dec  4 12:06:18 2013, MaxMem=   436000000 cpu:         0.2
 (Enter /usr/local/gaussian/g09.d01.em64t.legacy.linda/g09/l103.exe)

 GradGradGradGradGradGradGradGradGradGradGradGradGradGradGradGradGradGrad
 Berny optimization.
 Search for a local minimum.
 Step number   1 out of a maximum of    2
 All quantities printed in internal units (Hartrees-Bohrs-Radians)
 Second derivative matrix not updated -- analytic derivatives used.
 The second derivative matrix:
                          rn1       rn2       rn3       rn4       rch
           rn1          0.55033
           rn2         -0.04256   0.53161
           rn3          0.07888  -0.01414   0.51838
           rn4          0.09510   0.07125  -0.01806   0.51725
           rch         -0.00300  -0.00164   0.00061  -0.00306   0.36139
           rnh          0.01359  -0.00698   0.00004   0.00003   0.00040
           an1          0.11899  -0.31916  -0.21140   0.13083   0.01033
           an2          0.22075  -0.12250  -0.37221  -0.16325   0.00471
           an3          0.21816   0.41644   0.17856  -0.21695  -0.00219
           an4         -0.12667   0.16687   0.26699  -0.17960  -0.01624
           ach          0.03300   0.01177  -0.01438   0.02605   0.00274
           anh         -0.04834   0.01751   0.02686  -0.02114  -0.00133
                          rnh       an1       an2       an3       an4
           rnh          0.45157
           an1         -0.01082   2.04523
           an2          0.01510  -0.75481   2.44642
           an3          0.00332  -0.26899  -1.24686   2.04919
           an4         -0.00553  -0.24810  -0.24440  -0.34321   1.52832
           ach          0.00062   0.00497  -0.02248  -0.00372   0.08673
           anh         -0.00098  -0.03383  -0.01643   0.00628  -0.00644
                          ach       anh
           ach          0.19841
           anh          0.00044   0.20520
 ITU=  0
     Eigenvalues ---    0.00003   0.14940   0.19951   0.25328   0.36150
     Eigenvalues ---    0.45068   0.57757   0.63676   0.76083   1.86478
     Eigenvalues ---    2.46670   3.68226
 Angle between quadratic step and forces=  89.31 degrees.
 Linear search not attempted -- first point.
 Variable       Old X    -DE/DX   Delta X   Delta X   Delta X     New X
                                 (Linear)    (Quad)   (Total)
   rn1        2.24891   0.00002   0.00000  -0.05535  -0.05535   2.19356
   rn2        2.52845  -0.00019   0.00000  -0.03673  -0.03673   2.49172
   rn3        2.23839   0.00016   0.00000   0.02181   0.02181   2.26020
   rn4        1.93641  -0.00005   0.00000   0.05650   0.05650   1.99291
   rch        2.05250   0.00001   0.00000   0.00003   0.00003   2.05253
   rnh        1.92018  -0.00001   0.00000  -0.00002  -0.00002   1.92015
   an1        1.32134  -0.00006   0.00000   0.02393   0.02393   1.34527
   an2        2.45091   0.00014   0.00000   0.04770   0.04770   2.49861
   an3        3.52758  -0.00030   0.00000   0.05381   0.05381   3.58138
   an4        4.86063   0.00017   0.00000   0.02596   0.02596   4.88659
   ach        2.17810   0.00000   0.00000   0.00000   0.00000   2.17810
   anh        2.09899   0.00003   0.00000   0.00013   0.00013   2.09912
         Item               Value     Threshold  Converged?
 Maximum Force            0.000297     0.000450     YES
 RMS     Force            0.000131     0.000300     YES
 Maximum Displacement     0.056500     0.001800     NO 
 RMS     Displacement     0.034759     0.001200     NO 
 Predicted change in Energy=-3.315263D-07
 GradGradGradGradGradGradGradGradGradGradGradGradGradGradGradGradGradGrad

 Leave Link  103 at Wed Dec  4 12:06:18 2013, MaxMem=   436000000 cpu:         0.1
 (Enter /usr/local/gaussian/g09.d01.em64t.legacy.linda/g09/l9999.exe)
 1\1\GINC-N514\Freq\RPBEPBE\6-311G(d)\C1H2N4\RDJ3\04-Dec-2013\1\\#P Geo
 m=AllCheck Guess=TCheck SCRF=Check GenChk RPBEPBE/6-311G(d) Freq\\1H-t
 etrazole CH2N4 casno=288948 state=1 config=1 method=69 basis=7\\0,1\X\
 X,1,1.\C,1,1.,2,90.\N,1,rn1,2,90.,3,an1,0\N,1,rn2,2,90.,3,an2,0\N,1,rn
 3,2,90.,3,an3,0\N,1,rn4,2,90.,3,an4,0\H,3,rch,4,ach,5,180.,0\H,4,rnh,5
 ,anh,6,180.,0\\rn1=1.19007146\rn2=1.33799866\rn3=1.18450543\rn4=1.0247
 0192\rch=1.08613671\rnh=1.01611324\an1=75.7071922\an2=140.42664024\an3
 =202.11516909\an4=278.49344817\ach=124.79593384\anh=120.26299266\\Vers
 ion=EM64L-G09RevD.01\State=1-A'\HF=-258.0377674\RMSD=8.272e-09\RMSF=6.
 973e-05\ZeroPoint=0.0453854\Thermal=0.0489191\Dipole=1.5519824,-1.3860
 787,0.\DipoleDeriv=0.1774906,0.0707759,0.,-0.052538,0.420058,0.,0.,0.,
 0.0620371,-0.1570294,0.2603049,0.,0.1843974,-0.294843,0.,0.,0.,-0.1459
 974,0.0630308,-0.3805519,0.,-0.3448598,-0.1159127,0.,0.,0.,-0.0914442,
 0.046243,0.1519275,0.,0.2176923,-0.0364494,0.,0.,0.,-0.1519318,-0.3447
 045,-0.1090904,0.,-0.0226133,-0.2974995,0.,0.,0.,-0.1910244,0.028192,0
 .0122451,0.,0.0078892,0.1164372,0.,0.,0.,0.1747157,0.1867775,-0.005611
 2,0.,0.0100323,0.2082094,0.,0.,0.,0.343645\Polar=41.0376911,-0.6390692
 ,39.2640197,0.,0.,17.7245642\PG=CS [SG(C1H2N4)]\NImag=0\\0.89684558,-0
 .00339753,0.56825326,0.,0.,0.12561693,-0.16896494,-0.07409736,0.,0.508
 56536,-0.10549952,-0.24964674,0.,-0.07458384,0.95565566,0.,0.,-0.05643
 833,0.,0.,0.08777200,-0.09363553,-0.08447575,0.,-0.19753722,-0.0251451
 2,0.,0.42354482,0.00804004,-0.01585001,0.,0.00197770,-0.09708056,0.,0.
 08399041,0.50804078,0.,0.,0.01982693,0.,0.,-0.06426987,0.,0.,0.1081142
 5,-0.11099528,0.07589983,0.,-0.06437898,0.03459327,0.,-0.10018540,-0.0
 2082407,0.,0.44726543,-0.01952876,0.01894146,0.,0.10638042,-0.10222999
 ,0.,0.03767496,-0.30162366,0.,-0.09529463,0.48003067,0.,0.,0.01823008,
 0.,0.,0.02446327,0.,0.,-0.09145061,0.,0.,0.11765409,-0.19552124,0.1209
 0438,0.,0.02229102,0.07146560,0.,-0.03683378,-0.10884362,0.,-0.1587339
 0,-0.03548163,0.,0.38291918,0.12445294,-0.26559355,0.,-0.03292632,-0.1
 0149491,0.,-0.01028479,-0.08808010,0.,0.00372700,-0.09236098,0.,-0.072
 64200,0.54194085,0.,0.,-0.07313721,0.,0.,0.01948851,0.,0.,0.03353298,0
 .,0.,-0.08513570,0.,0.,0.10347409,-0.34458423,-0.02165442,0.,-0.003735
 60,0.00319415,0.,0.00005905,0.00237241,0.,-0.00128960,-0.00048166,0.,-
 0.01008867,-0.00231915,0.,0.36018986,-0.01720606,-0.05128671,0.,-0.029
 81679,0.00427424,0.,-0.00164138,-0.00678565,0.,0.00611948,-0.00342077,
 0.,0.02291165,0.00921229,0.,0.01946648,0.04829670,0.,0.,-0.02496063,0.
 ,0.,-0.00347017,0.,0.,0.00573399,0.,0.,0.00849969,0.,0.,-0.00550869,0.
 ,0.,0.02036786,0.01685564,-0.01317915,0.,-0.09623964,0.09597547,0.,0.0
 0458805,0.03328713,0.,-0.01168227,0.00673130,0.,-0.00403260,-0.0100076
 7,0.,-0.00055081,0.00016663,0.,0.09106163,0.01313890,-0.00481770,0.,0.
 10306620,-0.40947770,0.,-0.00011832,0.00137921,0.,-0.00422087,0.000663
 28,0.,0.00168562,-0.00362359,0.,-0.00057781,-0.00029008,0.,-0.11297371
 ,0.41616658,0.,0.,-0.00913778,0.,0.,-0.00754541,0.,0.,-0.01148768,0.,0
 .,0.00773918,0.,0.,0.00728602,0.,0.,-0.00066205,0.,0.,0.01380772\\0.00
 003028,0.00003604,0.,-0.00001839,0.00003229,0.,-0.00011516,-0.00017539
 ,0.,0.00020231,0.00006090,0.,-0.00007851,0.00005765,0.,-0.00000891,0.0
 0000097,0.,-0.00001161,-0.00001245,0.\\\@


 MANHOOD BEGINS BY TRYING TO SHAVE FACE,
 AND ENDS BY TRYING TO SAVE FACE.
 Job cpu time:       0 days  0 hours  2 minutes 33.3 seconds.
 File lengths (MBytes):  RWF=     12 Int=      0 D2E=      0 Chk=      2 Scr=      1
 Normal termination of Gaussian 09 at Wed Dec  4 12:06:19 2013.
