 Entering Gaussian System, Link 0=g09
 Initial command:
 /usr/local/gaussian/g09.d01.em64t.legacy.linda/g09/l1.exe "/tmp/rdj3/g09-11838/Gau-11893.inp" -scrdir="/tmp/rdj3/g09-11838/"
 Entering Link 1 = /usr/local/gaussian/g09.d01.em64t.legacy.linda/g09/l1.exe PID=     11894.
  
 Copyright (c) 1988,1990,1992,1993,1995,1998,2003,2009,2013,
            Gaussian, Inc.  All Rights Reserved.
  
 This is part of the Gaussian(R) 09 program.  It is based on
 the Gaussian(R) 03 system (copyright 2003, Gaussian, Inc.),
 the Gaussian(R) 98 system (copyright 1998, Gaussian, Inc.),
 the Gaussian(R) 94 system (copyright 1995, Gaussian, Inc.),
 the Gaussian 92(TM) system (copyright 1992, Gaussian, Inc.),
 the Gaussian 90(TM) system (copyright 1990, Gaussian, Inc.),
 the Gaussian 88(TM) system (copyright 1988, Gaussian, Inc.),
 the Gaussian 86(TM) system (copyright 1986, Carnegie Mellon
 University), and the Gaussian 82(TM) system (copyright 1983,
 Carnegie Mellon University). Gaussian is a federally registered
 trademark of Gaussian, Inc.
  
 This software contains proprietary and confidential information,
 including trade secrets, belonging to Gaussian, Inc.
  
 This software is provided under written license and may be
 used, copied, transmitted, or stored only in accord with that
 written license.
  
 The following legend is applicable only to US Government
 contracts under FAR:
  
                    RESTRICTED RIGHTS LEGEND
  
 Use, reproduction and disclosure by the US Government is
 subject to restrictions as set forth in subparagraphs (a)
 and (c) of the Commercial Computer Software - Restricted
 Rights clause in FAR 52.227-19.
  
 Gaussian, Inc.
 340 Quinnipiac St., Bldg. 40, Wallingford CT 06492
  
  
 ---------------------------------------------------------------
 Warning -- This program may not be used in any manner that
 competes with the business of Gaussian, Inc. or will provide
 assistance to any competitor of Gaussian, Inc.  The licensee
 of this program is prohibited from giving any competitor of
 Gaussian, Inc. access to this program.  By using this program,
 the user acknowledges that Gaussian, Inc. is engaged in the
 business of creating and licensing software in the field of
 computational chemistry and represents and warrants to the
 licensee that it is not a competitor of Gaussian, Inc. and that
 it will not use this program in any manner prohibited above.
 ---------------------------------------------------------------
  

 Cite this work as:
 Gaussian 09, Revision D.01,
 M. J. Frisch, G. W. Trucks, H. B. Schlegel, G. E. Scuseria, 
 M. A. Robb, J. R. Cheeseman, G. Scalmani, V. Barone, B. Mennucci, 
 G. A. Petersson, H. Nakatsuji, M. Caricato, X. Li, H. P. Hratchian, 
 A. F. Izmaylov, J. Bloino, G. Zheng, J. L. Sonnenberg, M. Hada, 
 M. Ehara, K. Toyota, R. Fukuda, J. Hasegawa, M. Ishida, T. Nakajima, 
 Y. Honda, O. Kitao, H. Nakai, T. Vreven, J. A. Montgomery, Jr., 
 J. E. Peralta, F. Ogliaro, M. Bearpark, J. J. Heyd, E. Brothers, 
 K. N. Kudin, V. N. Staroverov, T. Keith, R. Kobayashi, J. Normand, 
 K. Raghavachari, A. Rendell, J. C. Burant, S. S. Iyengar, J. Tomasi, 
 M. Cossi, N. Rega, J. M. Millam, M. Klene, J. E. Knox, J. B. Cross, 
 V. Bakken, C. Adamo, J. Jaramillo, R. Gomperts, R. E. Stratmann, 
 O. Yazyev, A. J. Austin, R. Cammi, C. Pomelli, J. W. Ochterski, 
 R. L. Martin, K. Morokuma, V. G. Zakrzewski, G. A. Voth, 
 P. Salvador, J. J. Dannenberg, S. Dapprich, A. D. Daniels, 
 O. Farkas, J. B. Foresman, J. V. Ortiz, J. Cioslowski, 
 and D. J. Fox, Gaussian, Inc., Wallingford CT, 2013.
 
 ******************************************
 Gaussian 09:  EM64L-G09RevD.01 24-Apr-2013
                 4-Dec-2013 
 ******************************************
 %Nproc=8
 Will use up to    8 processors via shared memory.
 %mem=436000000
 ------------------------------------------
 #CCD/aug-cc-pVDZ opt=z-matrix freq density
 ------------------------------------------
 1/10=7,18=40,38=1/1,3;
 2/12=2,17=6,18=5,29=3,40=1/2;
 3/5=16,7=10,11=9,16=1,25=1,30=1,71=1/1,2,3;
 4//1;
 5/5=2,38=5/2;
 8/6=4,9=120000,10=1/1,4;
 9/5=6,15=1/13;
 11/28=-6,29=200,42=3/11;
 10/5=5/2;
 6/7=2,8=2,9=2,10=2,22=-1/1;
 7/12=7,29=1/1,2,3,16;
 1/10=7,18=40/3(2);
 2/29=3/2;
 99//99;
 2/29=3/2;
 3/5=16,7=10,11=9,16=1,25=1,30=1,71=1/1,2,3;
 4/5=5,16=3,69=1/1;
 5/5=2,38=5/2;
 8/6=4,9=120000,10=1/1,4;
 9/5=6,15=1/13;
 11/28=-6,29=200,42=3/11;
 10/5=5/2;
 7/12=7/1,2,3,16;
 1/18=40/3(-9);
 2/29=3/2;
 6/7=2,8=2,9=2,10=2,22=-1/1;
 99//99;
 ------------------------------------------------------------------
 1H-tetrazole CH2N4 casno=288948 state=1 config=1 method=6 basis=17
 ------------------------------------------------------------------
 Symbolic Z-matrix:
 Charge =  0 Multiplicity = 1
 X
 X                    1     1. 
 C                    1     1.       2     90. 
 N                    1    rn1      2     90.      3    an1      0
 N                    1    rn2      2     90.      3    an2      0
 N                    1    rn3      2     90.      3    an3      0
 N                    1    rn4      2     90.      3    an4      0
 H                    3    rch      4    ach      5     180.     0
 H                    4    rnh      5    anh      6     180.     0
       Variables:
  rn1                   1.2426                   
  rn2                   1.333                    
  rn3                   1.1146                   
  rn4                   0.9264                   
  rch                   1.0678                   
  rnh                   0.9941                   
  an1                  71.8427                   
  an2                 133.7028                   
  an3                 194.4597                   
  an4                 276.0768                   
  ach                 125.0248                   
  anh                 120.7626                   
 

 GradGradGradGradGradGradGradGradGradGradGradGradGradGradGradGradGradGrad
 Berny optimization.
 Initialization pass.
                       ----------------------------
                       !    Initial Parameters    !
                       ! (Angstroms and Degrees)  !
 ----------------------                            ----------------------
 !      Name          Value   Derivative information (Atomic Units)     !
 ------------------------------------------------------------------------
 !       rn1         1.2426   estimate D2E/DX2                          !
 !       rn2         1.333    estimate D2E/DX2                          !
 !       rn3         1.1146   estimate D2E/DX2                          !
 !       rn4         0.9264   estimate D2E/DX2                          !
 !       rch         1.0678   estimate D2E/DX2                          !
 !       rnh         0.9941   estimate D2E/DX2                          !
 !       an1        71.8427   estimate D2E/DX2                          !
 !       an2       133.7028   estimate D2E/DX2                          !
 !       an3       194.4597   estimate D2E/DX2                          !
 !       an4       276.0768   estimate D2E/DX2                          !
 !       ach       125.0248   estimate D2E/DX2                          !
 !       anh       120.7626   estimate D2E/DX2                          !
 ------------------------------------------------------------------------
 Trust Radius=3.00D-01 FncErr=1.00D-07 GrdErr=1.00D-07
 Number of steps in this run=     22 maximum allowed number of steps=    100.
 GradGradGradGradGradGradGradGradGradGradGradGradGradGradGradGradGradGrad

 ---------------------------------------------------------------------------------------------------
                            Z-MATRIX (ANGSTROMS AND DEGREES)
   CD    Cent   Atom    N1       Length/X        N2       Alpha/Y        N3        Beta/Z          J
 ---------------------------------------------------------------------------------------------------
      1         X 
      2         X        1   1.000000(     1)
      3      1  C        1   1.000000(     2)      2   90.000(     9)
      4      2  N        1   1.242600(     3)      2   90.000(    10)      3   71.843(    16)      0
      5      3  N        1   1.333000(     4)      2   90.000(    11)      3  133.703(    17)      0
      6      4  N        1   1.114600(     5)      2   90.000(    12)      3  194.460(    18)      0
      7      5  N        1   0.926400(     6)      2   90.000(    13)      3  276.077(    19)      0
      8      6  H        3   1.067800(     7)      4  125.025(    14)      5  180.000(    20)      0
      9      7  H        4   0.994100(     8)      5  120.763(    15)      6  180.000(    21)      0
 ---------------------------------------------------------------------------------------------------
                         Z-Matrix orientation:                         
 ---------------------------------------------------------------------
 Center     Atomic      Atomic             Coordinates (Angstroms)
 Number     Number       Type             X           Y           Z
 ---------------------------------------------------------------------
      1         -1           0        0.000000    0.000000    0.000000
      2         -1           0        0.000000    0.000000    1.000000
      3          6           0        1.000000    0.000000    0.000000
      4          7           0        0.387228   -1.180724    0.000000
      5          7           0       -0.920993   -0.963670    0.000000
      6          7           0       -1.079293    0.278314    0.000000
      7          7           0        0.098070    0.921194    0.000000
      8          1           0        2.058429    0.141157    0.000000
      9          1           0        0.749017   -2.106652    0.000000
 ---------------------------------------------------------------------
                    Distance matrix (angstroms):
                    1          2          3          4          5
     1  X    0.000000
     2  X    1.000000   0.000000
     3  C    1.000000   1.414214   0.000000
     4  N    1.242600   1.595009   1.330263   0.000000
     5  N    1.333000   1.666400   2.149157   1.326105   0.000000
     6  N    1.114600   1.497442   2.097837   2.068690   1.252032
     7  N    0.926400   1.363164   1.289216   2.121715   2.142710
     8  H    2.063263   2.292827   1.067800   2.130794   3.177672
     9  H    2.235847   2.449288   2.121551   0.994100   2.023695
                    6          7          8          9
     6  N    0.000000
     7  N    1.341447   0.000000
     8  H    3.140719   2.109850   0.000000
     9  H    3.005127   3.097029   2.601385   0.000000
 Stoichiometry    CH2N4
 Framework group  CS[SG(CH2N4)]
 Deg. of freedom    11
 Full point group                 CS      NOp   2
 Largest Abelian subgroup         CS      NOp   2
 Largest concise Abelian subgroup C1      NOp   1
                         Standard orientation:                         
 ---------------------------------------------------------------------
 Center     Atomic      Atomic             Coordinates (Angstroms)
 Number     Number       Type             X           Y           Z
 ---------------------------------------------------------------------
      1          6           0        1.052733    0.225621    0.000000
      2          7           0        0.000000    1.038857    0.000000
      3          7           0       -1.095416    0.291448    0.000000
      4          7           0       -0.716382   -0.901832    0.000000
      5          7           0        0.622191   -0.989579    0.000000
      6          1           0        2.072287    0.542964    0.000000
      7          1           0       -0.061439    2.031056    0.000000
 ---------------------------------------------------------------------
 Rotational constants (GHZ):     10.9201517     10.7345054      5.4132664
 Standard basis: Aug-CC-pVDZ (5D, 7F)
 There are   104 symmetry adapted cartesian basis functions of A'  symmetry.
 There are    39 symmetry adapted cartesian basis functions of A"  symmetry.
 There are    94 symmetry adapted basis functions of A'  symmetry.
 There are    39 symmetry adapted basis functions of A"  symmetry.
   133 basis functions,   237 primitive gaussians,   143 cartesian basis functions
    18 alpha electrons       18 beta electrons
       nuclear repulsion energy       169.8308489506 Hartrees.
 NAtoms=    7 NActive=    7 NUniq=    7 SFac= 1.00D+00 NAtFMM=   60 NAOKFM=F Big=F
 Integral buffers will be    131072 words long.
 Raffenetti 1 integral format.
 Two-electron integral symmetry is turned on.
 One-electron integrals computed using PRISM.
 NBasis=   133 RedAO= T EigKep=  1.19D-04  NBF=    94    39
 NBsUse=   133 1.00D-06 EigRej= -1.00D+00 NBFU=    94    39
 ExpMin= 2.97D-02 ExpMax= 9.05D+03 ExpMxC= 3.09D+02 IAcc=3 IRadAn=         5 AccDes= 0.00D+00
 Harris functional with IExCor=  205 and IRadAn=       5 diagonalized for initial guess.
 HarFok:  IExCor=  205 AccDes= 0.00D+00 IRadAn=         5 IDoV= 1 UseB2=F ITyADJ=14
 ICtDFT=  3500011 ScaDFX=  1.000000  1.000000  1.000000  1.000000
 FoFCou: FMM=F IPFlag=           0 FMFlag=      100000 FMFlg1=           0
         NFxFlg=           0 DoJE=T BraDBF=F KetDBF=T FulRan=T
         wScrn=  0.000000 ICntrl=     500 IOpCl=  0 I1Cent=   200000004 NGrid=           0
         NMat0=    1 NMatS0=      1 NMatT0=    0 NMatD0=    1 NMtDS0=    0 NMtDT0=    0
 Petite list used in FoFCou.
 Initial guess orbital symmetries:
       Occupied  (A') (A') (A') (A') (A') (A') (A') (A') (A') (A')
                 (A') (A') (A") (A') (A") (A") (A') (A')
       Virtual   (A") (A") (A') (A') (A') (A") (A') (A') (A') (A')
                 (A') (A') (A") (A") (A') (A') (A') (A') (A") (A')
                 (A") (A') (A') (A') (A") (A') (A') (A') (A') (A')
                 (A") (A') (A') (A') (A") (A') (A") (A') (A') (A')
                 (A') (A') (A") (A") (A') (A') (A") (A') (A") (A')
                 (A') (A") (A") (A') (A') (A') (A") (A') (A') (A")
                 (A') (A') (A") (A') (A') (A") (A") (A') (A') (A")
                 (A') (A") (A') (A") (A') (A') (A') (A") (A') (A')
                 (A') (A") (A') (A") (A') (A') (A") (A") (A') (A')
                 (A") (A') (A') (A') (A') (A') (A") (A') (A') (A")
                 (A') (A") (A') (A") (A') (A') (A') (A") (A') (A')
                 (A') (A') (A') (A') (A')
 The electronic state of the initial guess is 1-A'.
 Keep R1 ints in memory in symmetry-blocked form, NReq=60288506.
 Requested convergence on RMS density matrix=1.00D-08 within 128 cycles.
 Requested convergence on MAX density matrix=1.00D-06.
 Requested convergence on             energy=1.00D-06.
 No special actions if energy rises.
 SCF Done:  E(RHF) =  -256.797933873     A.U. after   15 cycles
            NFock= 15  Conv=0.69D-08     -V/T= 2.0004
 ExpMin= 2.97D-02 ExpMax= 9.05D+03 ExpMxC= 3.09D+02 IAcc=3 IRadAn=         5 AccDes= 0.00D+00
 HarFok:  IExCor=  205 AccDes= 0.00D+00 IRadAn=         5 IDoV=-2 UseB2=F ITyADJ=14
 ICtDFT= 12500011 ScaDFX=  1.000000  1.000000  1.000000  1.000000
 Range of M.O.s used for correlation:     6   133
 NBasis=   133 NAE=    18 NBE=    18 NFC=     5 NFV=     0
 NROrb=    128 NOA=    13 NOB=    13 NVA=   115 NVB=   115

 **** Warning!!: The largest alpha MO coefficient is  0.30297523D+02

 Semi-Direct transformation.
 ModeAB=           2 MOrb=            13 LenV=     435426566
 LASXX=      6519262 LTotXX=     6519262 LenRXX=     6519262
 LTotAB=     6692444 MaxLAS=    17132544 LenRXY=    17132544
 NonZer=    17472000 LenScr=    26969600 LnRSAI=           0
 LnScr1=           0 LExtra=           0 Total=     50621406
 MaxDsk=          -1 SrtSym=           F ITran=            4
 JobTyp=0 Pass  1:  I=   1 to  13.
 (rs|ai) integrals will be sorted in core.
 Spin components of T(2) and E(2):
     alpha-alpha T2 =       0.3894380315D-01 E2=     -0.1125161132D+00
     alpha-beta  T2 =       0.1937619642D+00 E2=     -0.5825331987D+00
     beta-beta   T2 =       0.3894380315D-01 E2=     -0.1125161132D+00
 ANorm=    0.1127674408D+01
 E2 =    -0.8075654250D+00 EUMP2 =    -0.25760549929751D+03
 Keep R2 and R3 ints in memory in symmetry-blocked form, NReq=61458976.
 Iterations=  50 Convergence= 0.100D-07
 Iteration Nr.   1
 **********************
 DD1Dir will call FoFMem   1 times, MxPair=       182
 NAB=    91 NAA=     0 NBB=     0.
 MP4(R+Q)=  0.22482796D-01
 E3=       -0.30121981D-03        EUMP3=      -0.25760580052D+03
 E4(DQ)=    0.46583449D-03        UMP4(DQ)=   -0.25760533468D+03
 DE(Corr)= -0.78538385     E(Corr)=     -257.58331772    
 NORM(A)=   0.11188739D+01
 Iteration Nr.   2
 **********************
 DD1Dir will call FoFMem   1 times, MxPair=       182
 NAB=    91 NAA=     0 NBB=     0.
 DE(Corr)= -0.80558658     E(CORR)=     -257.60352045     Delta=-2.02D-02
 NORM(A)=   0.11273923D+01
 Iteration Nr.   3
 **********************
 DD1Dir will call FoFMem   1 times, MxPair=       182
 NAB=    91 NAA=     0 NBB=     0.
 DE(Corr)= -0.80670322     E(CORR)=     -257.60463709     Delta=-1.12D-03
 NORM(A)=   0.11281519D+01
 Iteration Nr.   4
 **********************
 DD1Dir will call FoFMem   1 times, MxPair=       182
 NAB=    91 NAA=     0 NBB=     0.
 DE(Corr)= -0.80785806     E(CORR)=     -257.60579194     Delta=-1.15D-03
 NORM(A)=   0.11284614D+01
 Iteration Nr.   5
 **********************
 DD1Dir will call FoFMem   1 times, MxPair=       182
 NAB=    91 NAA=     0 NBB=     0.
 DE(Corr)= -0.80794345     E(CORR)=     -257.60587732     Delta=-8.54D-05
 NORM(A)=   0.11285121D+01
 Iteration Nr.   6
 **********************
 DD1Dir will call FoFMem   1 times, MxPair=       182
 NAB=    91 NAA=     0 NBB=     0.
 DE(Corr)= -0.80795069     E(CORR)=     -257.60588456     Delta=-7.24D-06
 NORM(A)=   0.11285111D+01
 Iteration Nr.   7
 **********************
 DD1Dir will call FoFMem   1 times, MxPair=       182
 NAB=    91 NAA=     0 NBB=     0.
 DE(Corr)= -0.80795169     E(CORR)=     -257.60588556     Delta=-9.99D-07
 NORM(A)=   0.11285124D+01
 Iteration Nr.   8
 **********************
 DD1Dir will call FoFMem   1 times, MxPair=       182
 NAB=    91 NAA=     0 NBB=     0.
 DE(Corr)= -0.80795085     E(CORR)=     -257.60588472     Delta= 8.44D-07
 NORM(A)=   0.11285132D+01
 Iteration Nr.   9
 **********************
 DD1Dir will call FoFMem   1 times, MxPair=       182
 NAB=    91 NAA=     0 NBB=     0.
 DE(Corr)= -0.80795089     E(CORR)=     -257.60588476     Delta=-4.24D-08
 NORM(A)=   0.11285133D+01
 Iteration Nr.  10
 **********************
 DD1Dir will call FoFMem   1 times, MxPair=       182
 NAB=    91 NAA=     0 NBB=     0.
 DE(Corr)= -0.80795106     E(CORR)=     -257.60588494     Delta=-1.74D-07
 NORM(A)=   0.11285135D+01
 Iteration Nr.  11
 **********************
 DD1Dir will call FoFMem   1 times, MxPair=       182
 NAB=    91 NAA=     0 NBB=     0.
 DE(Corr)= -0.80795110     E(CORR)=     -257.60588498     Delta=-4.04D-08
 NORM(A)=   0.11285136D+01
 Iteration Nr.  12
 **********************
 DD1Dir will call FoFMem   1 times, MxPair=       182
 NAB=    91 NAA=     0 NBB=     0.
 DE(Corr)= -0.80795114     E(CORR)=     -257.60588501     Delta=-3.78D-08
 NORM(A)=   0.11285136D+01
 Iteration Nr.  13
 **********************
 DD1Dir will call FoFMem   1 times, MxPair=       182
 NAB=    91 NAA=     0 NBB=     0.
 DE(Corr)= -0.80795115     E(CORR)=     -257.60588502     Delta=-1.14D-08
 NORM(A)=   0.11285136D+01
 Iteration Nr.  14
 **********************
 DD1Dir will call FoFMem   1 times, MxPair=       182
 NAB=    91 NAA=     0 NBB=     0.
 DE(Corr)= -0.80795116     E(CORR)=     -257.60588503     Delta=-3.22D-09
 NORM(A)=   0.11285136D+01
 Largest amplitude= 5.73D-02

 Z-AMPLITUDE ITERATIONS

 Iteration Nr.   1
 **********************
 DD1Dir will call FoFMem   1 times, MxPair=       182
 NAB=    91 NAA=     0 NBB=     0.
 DE(Z)  -0.78207262D+00          E(Z)=    -0.25758000649D+03
 NORM(A)=   0.11285789D+01
 Iteration Nr.   2
 **********************
 DD1Dir will call FoFMem   1 times, MxPair=       182
 NAB=    91 NAA=     0 NBB=     0.
 DE(Z)  -0.78206806D+00          E(Z)=    -0.25758000193D+03
 NORM(A)=   0.11282676D+01
 Iteration Nr.   3
 **********************
 DD1Dir will call FoFMem   1 times, MxPair=       182
 NAB=    91 NAA=     0 NBB=     0.
 DE(Z)  -0.78208928D+00          E(Z)=    -0.25758002315D+03
 NORM(A)=   0.11282675D+01
 Iteration Nr.   4
 **********************
 DD1Dir will call FoFMem   1 times, MxPair=       182
 NAB=    91 NAA=     0 NBB=     0.
 DE(Z)  -0.78208913D+00          E(Z)=    -0.25758002300D+03
 NORM(A)=   0.11260823D+01
 Iteration Nr.   5
 **********************
 DD1Dir will call FoFMem   1 times, MxPair=       182
 NAB=    91 NAA=     0 NBB=     0.
 DE(Z)  -0.78223652D+00          E(Z)=    -0.25758017039D+03
 NORM(A)=   0.11200369D+01
 Iteration Nr.   6
 **********************
 DD1Dir will call FoFMem   1 times, MxPair=       182
 NAB=    91 NAA=     0 NBB=     0.
 DE(Z)  -0.78265281D+00          E(Z)=    -0.25758058668D+03
 NORM(A)=   0.11200367D+01
 Iteration Nr.   7
 **********************
 DD1Dir will call FoFMem   1 times, MxPair=       182
 NAB=    91 NAA=     0 NBB=     0.
 DE(Z)  -0.78265283D+00          E(Z)=    -0.25758058670D+03
 NORM(A)=   0.11200366D+01
 Iteration Nr.   8
 **********************
 DD1Dir will call FoFMem   1 times, MxPair=       182
 NAB=    91 NAA=     0 NBB=     0.
 DE(Z)  -0.78265280D+00          E(Z)=    -0.25758058667D+03
 NORM(A)=   0.11200366D+01
 Iteration Nr.   9
 **********************
 DD1Dir will call FoFMem   1 times, MxPair=       182
 NAB=    91 NAA=     0 NBB=     0.
 DE(Z)  -0.78265279D+00          E(Z)=    -0.25758058666D+03
 NORM(A)=   0.11200366D+01
 Iteration Nr.  10
 **********************
 DD1Dir will call FoFMem   1 times, MxPair=       182
 NAB=    91 NAA=     0 NBB=     0.
 DE(Z)  -0.78265279D+00          E(Z)=    -0.25758058666D+03
 NORM(A)=   0.11200366D+01
 Iteration Nr.  11
 **********************
 DD1Dir will call FoFMem   1 times, MxPair=       182
 NAB=    91 NAA=     0 NBB=     0.
 DE(Z)  -0.78265278D+00          E(Z)=    -0.25758058666D+03
 NORM(A)=   0.11200366D+01
 Discarding MO integrals.
          IDoAtm=1111111
          Differentiating once with respect to electric field.
                with respect to dipole field.
          Differentiating once with respect to nuclear coordinates.
 Keep R1 ints in memory in symmetry-blocked form, NReq=60207810.
          There are     1 degrees of freedom in the 1st order CPHF.  IDoFFX=0 NUNeed=     1.
 LinEq1:  Iter=  0 NonCon=     1 RMS=3.35D-03 Max=3.08D-02 NDo=     1
 AX will form     1 AO Fock derivatives at one time.
 LinEq1:  Iter=  1 NonCon=     1 RMS=6.82D-04 Max=1.08D-02 NDo=     1
 LinEq1:  Iter=  2 NonCon=     1 RMS=2.99D-04 Max=6.08D-03 NDo=     1
 LinEq1:  Iter=  3 NonCon=     1 RMS=9.00D-05 Max=1.34D-03 NDo=     1
 LinEq1:  Iter=  4 NonCon=     1 RMS=3.67D-05 Max=6.87D-04 NDo=     1
 LinEq1:  Iter=  5 NonCon=     1 RMS=1.25D-05 Max=1.45D-04 NDo=     1
 LinEq1:  Iter=  6 NonCon=     1 RMS=4.76D-06 Max=5.64D-05 NDo=     1
 LinEq1:  Iter=  7 NonCon=     1 RMS=2.21D-06 Max=5.08D-05 NDo=     1
 LinEq1:  Iter=  8 NonCon=     1 RMS=5.80D-07 Max=5.67D-06 NDo=     1
 LinEq1:  Iter=  9 NonCon=     1 RMS=2.75D-07 Max=2.91D-06 NDo=     1
 LinEq1:  Iter= 10 NonCon=     1 RMS=6.53D-08 Max=5.84D-07 NDo=     1
 LinEq1:  Iter= 11 NonCon=     1 RMS=1.60D-08 Max=1.69D-07 NDo=     1
 LinEq1:  Iter= 12 NonCon=     1 RMS=7.54D-09 Max=9.75D-08 NDo=     1
 LinEq1:  Iter= 13 NonCon=     1 RMS=2.05D-09 Max=1.67D-08 NDo=     1
 LinEq1:  Iter= 14 NonCon=     1 RMS=3.59D-10 Max=3.53D-09 NDo=     1
 LinEq1:  Iter= 15 NonCon=     0 RMS=6.75D-11 Max=5.56D-10 NDo=     1
 Linear equations converged to 1.000D-10 1.000D-09 after    15 iterations.
 End of Minotr F.D. properties file   721 does not exist.
 End of Minotr F.D. properties file   722 does not exist.
 End of Minotr F.D. properties file   788 does not exist.

 **********************************************************************

            Population analysis using the QCI/CC density.

 **********************************************************************

 Orbital symmetries:
       Occupied  (A') (A') (A') (A') (A') (A') (A') (A') (A') (A')
                 (A') (A") (A') (A') (A') (A') (A") (A")
       Virtual   (A') (A') (A") (A') (A') (A') (A") (A') (A') (A')
                 (A") (A") (A') (A") (A') (A') (A") (A') (A") (A')
                 (A') (A') (A') (A') (A') (A") (A') (A') (A') (A")
                 (A') (A') (A') (A") (A') (A') (A") (A') (A') (A')
                 (A') (A") (A') (A') (A') (A") (A") (A') (A') (A")
                 (A') (A") (A') (A") (A') (A') (A") (A') (A') (A")
                 (A') (A') (A') (A") (A") (A') (A") (A') (A') (A')
                 (A") (A") (A') (A") (A') (A') (A') (A") (A') (A')
                 (A') (A") (A') (A") (A') (A') (A") (A') (A") (A')
                 (A") (A') (A') (A') (A') (A') (A") (A') (A') (A")
                 (A') (A") (A') (A') (A") (A') (A') (A") (A') (A')
                 (A') (A') (A') (A') (A')
 The electronic state is 1-A'.
 Alpha  occ. eigenvalues --  -15.68574 -15.66623 -15.64868 -15.60648 -11.33972
 Alpha  occ. eigenvalues --   -1.52626  -1.27115  -1.21502  -0.91834  -0.90076
 Alpha  occ. eigenvalues --   -0.81260  -0.69241  -0.68677  -0.57679  -0.47976
 Alpha  occ. eigenvalues --   -0.46906  -0.46099  -0.42742
 Alpha virt. eigenvalues --    0.01946   0.04181   0.08133   0.08632   0.10883
 Alpha virt. eigenvalues --    0.12763   0.13622   0.14283   0.15631   0.16765
 Alpha virt. eigenvalues --    0.17027   0.17917   0.19853   0.20028   0.21572
 Alpha virt. eigenvalues --    0.24837   0.25336   0.26761   0.27561   0.28131
 Alpha virt. eigenvalues --    0.30134   0.32776   0.33650   0.36772   0.37465
 Alpha virt. eigenvalues --    0.38296   0.39713   0.41104   0.42593   0.44845
 Alpha virt. eigenvalues --    0.50001   0.53952   0.54145   0.58381   0.59113
 Alpha virt. eigenvalues --    0.62453   0.63010   0.64358   0.68937   0.70230
 Alpha virt. eigenvalues --    0.72071   0.74618   0.74642   0.75329   0.80799
 Alpha virt. eigenvalues --    0.82215   0.83214   0.84234   0.88199   0.89722
 Alpha virt. eigenvalues --    0.96098   0.99601   1.00870   1.01303   1.03318
 Alpha virt. eigenvalues --    1.04306   1.04986   1.07552   1.13226   1.15602
 Alpha virt. eigenvalues --    1.15717   1.18265   1.21897   1.27523   1.31066
 Alpha virt. eigenvalues --    1.35975   1.37682   1.38273   1.43728   1.54534
 Alpha virt. eigenvalues --    1.54998   1.60994   1.63002   1.66212   1.70580
 Alpha virt. eigenvalues --    1.76087   1.82335   1.86213   1.88451   1.96440
 Alpha virt. eigenvalues --    2.04192   2.04663   2.11690   2.12147   2.13864
 Alpha virt. eigenvalues --    2.21548   2.23132   2.30482   2.33579   2.35810
 Alpha virt. eigenvalues --    2.39187   2.41667   2.45696   2.55834   2.57536
 Alpha virt. eigenvalues --    2.62032   2.67871   2.70554   2.74114   2.83528
 Alpha virt. eigenvalues --    2.85757   2.89991   2.93222   2.95364   2.96313
 Alpha virt. eigenvalues --    3.08506   3.09883   3.22062   3.31137   3.35046
 Alpha virt. eigenvalues --    3.45253   3.52839   3.56876   3.95268   4.15376
          Condensed to atoms (all electrons):
               1          2          3          4          5          6
     1  C    5.204315   0.196234  -0.324795  -0.119513   0.166008   0.021872
     2  N    0.196234   7.312307  -0.723177   0.162234  -0.293945  -0.081112
     3  N   -0.324795  -0.723177   9.163253  -1.106223   0.326749   0.004445
     4  N   -0.119513   0.162234  -1.106223   9.175378  -0.850540  -0.010527
     5  N    0.166008  -0.293945   0.326749  -0.850540   8.010357  -0.022172
     6  H    0.021872  -0.081112   0.004445  -0.010527  -0.022172   1.242496
     7  H   -0.119572   0.453344  -0.185731   0.020612  -0.017532   0.010780
               7
     1  C   -0.119572
     2  N    0.453344
     3  N   -0.185731
     4  N    0.020612
     5  N   -0.017532
     6  H    0.010780
     7  H    0.877012
 Mulliken charges:
               1
     1  C    0.975450
     2  N   -0.025885
     3  N   -0.154521
     4  N   -0.271422
     5  N   -0.318925
     6  H   -0.165784
     7  H   -0.038912
 Sum of Mulliken charges =   0.00000
 Mulliken charges with hydrogens summed into heavy atoms:
               1
     1  C    0.809666
     2  N   -0.064797
     3  N   -0.154521
     4  N   -0.271422
     5  N   -0.318925
 Electronic spatial extent (au):  <R**2>=            246.2533
 Charge=              0.0000 electrons
 Dipole moment (field-independent basis, Debye):
    X=              2.4856    Y=              4.7804    Z=              0.0000  Tot=              5.3880
 Quadrupole moment (field-independent basis, Debye-Ang):
   XX=            -29.6084   YY=            -27.2322   ZZ=            -29.0691
   XY=              1.8569   XZ=              0.0000   YZ=              0.0000
 Traceless Quadrupole moment (field-independent basis, Debye-Ang):
   XX=             -0.9719   YY=              1.4044   ZZ=             -0.4325
   XY=              1.8569   XZ=              0.0000   YZ=              0.0000
 Octapole moment (field-independent basis, Debye-Ang**2):
  XXX=             12.0598  YYY=             22.6851  ZZZ=              0.0000  XYY=             -0.6312
  XXY=              4.8196  XXZ=              0.0000  XZZ=             -0.4854  YZZ=              0.7833
  YYZ=              0.0000  XYZ=              0.0000
 Hexadecapole moment (field-independent basis, Debye-Ang**3):
 XXXX=           -146.3057 YYYY=           -124.6314 ZZZZ=            -28.5034 XXXY=              6.9136
 XXXZ=              0.0000 YYYX=              0.0616 YYYZ=              0.0000 ZZZX=              0.0000
 ZZZY=              0.0000 XXYY=            -55.1840 XXZZ=            -31.6107 YYZZ=            -30.1679
 XXYZ=              0.0000 YYXZ=              0.0000 ZZXY=              0.1111
 N-N= 1.698308489506D+02 E-N=-9.414873437811D+02  KE= 2.575420498771D+02
 Symmetry A'   KE= 2.481002591430D+02
 Symmetry A"   KE= 9.441790734105D+00
 Calling FoFJK, ICntrl=  10002127 FMM=F ISym2X=1 I1Cent= 0 IOpClX= 0 NMat=1 NMatS=1 NMatT=0.
 ***** Axes restored to original set *****
 -------------------------------------------------------------------
 Center     Atomic                   Forces (Hartrees/Bohr)
 Number     Number              X              Y              Z
 -------------------------------------------------------------------
      1        6           0.027439287   -0.006886248    0.000000000
      2        7           0.007192519   -0.014013191    0.000000000
      3        7          -0.018184632   -0.053303011    0.000000000
      4        7          -0.033335180    0.043171029    0.000000000
      5        7          -0.002723532    0.044003491    0.000000000
      6        1           0.013831732    0.001708664    0.000000000
      7        1           0.005779806   -0.014680734    0.000000000
 -------------------------------------------------------------------
 Cartesian Forces:  Max     0.053303011 RMS     0.021361059
 -----------------------------------------------------------------------------------------------
                       Internal Coordinate Forces (Hartree/Bohr or radian)
  Cent   Atom   N1       Length/X         N2         Alpha/Y        N3         Beta/Z          J
 -----------------------------------------------------------------------------------------------
         X 
         X        1   0.000000(     1)
      1  C        1   0.041367(     2)      2   0.000000(     9)
      2  N        1   0.031203(     3)      2   0.000000(    10)      3  -0.007803(    16)     0
      3  N        1   0.051124(     4)      2   0.000000(    11)      3  -0.059698(    17)     0
      4  N        1   0.043059(     5)      2   0.000000(    12)      3   0.070518(    18)     0
      5  N        1   0.043468(     6)      2   0.000000(    13)      3  -0.012896(    19)     0
      6  H        3   0.013936(     7)      4  -0.000272(    14)      5   0.000000(    20)     0
      7  H        4   0.015777(     8)      5   0.000076(    15)      6   0.000000(    21)     0
 -----------------------------------------------------------------------------------------------
 Internal  Forces:  Max     0.070518045 RMS     0.029478862

 GradGradGradGradGradGradGradGradGradGradGradGradGradGradGradGradGradGrad
 Berny optimization.
 Search for a local minimum.
 Step number   1 out of a maximum of   22
 All quantities printed in internal units (Hartrees-Bohrs-Radians)
 Second derivative matrix not updated -- first step.
 The second derivative matrix:
                          rn1       rn2       rn3       rn4       rch
           rn1          0.65186
           rn2          0.01318   0.69869
           rn3          0.03472   0.07334   0.58262
           rn4          0.03688   0.02662   0.13967   0.63921
           rch          0.00000   0.00000   0.00000   0.00000   0.37510
           rnh          0.00000   0.00000   0.00000   0.00000   0.00000
           an1          0.02012  -0.75016   0.04258  -0.08486   0.00000
           an2          0.72119  -0.31234  -0.71865   0.05436   0.00000
           an3         -0.02914   1.04797   0.05412  -0.58583   0.00000
           an4          0.05328  -0.03228   0.65851  -0.10009   0.00000
           ach          0.04546   0.00000   0.00000   0.05066   0.00000
           anh         -0.10206   0.05276   0.00000   0.00000   0.00000
                          rnh       an1       an2       an3       an4
           rnh          0.48741
           an1          0.00000   4.53257
           an2          0.00000  -2.68051   6.02300
           an3          0.00000  -0.03573  -3.19618   4.47465
           an4          0.00000  -0.12258  -0.06592  -1.16042   2.58479
           ach          0.00000  -0.10460   0.00000   0.00000   0.07318
           anh          0.00000   0.03519  -0.09059   0.00000   0.00000
                          ach       anh
           ach          0.32000
           anh          0.00000   0.32000
 ITU=  0
     Eigenvalues ---    0.00000   0.13346   0.26445   0.33044   0.37510
     Eigenvalues ---    0.40158   0.48741   0.75609   1.20990   2.99509
     Eigenvalues ---    5.09563   9.64077
 RFO step:  Lambda=-1.12413645D-02 EMin=-6.95624114D-16
 Linear search not attempted -- first point.
 Variable       Old X    -DE/DX   Delta X   Delta X   Delta X     New X
                                 (Linear)    (Quad)   (Total)
   rn1        2.34817   0.03120   0.00000   0.03005   0.03005   2.37822
   rn2        2.51900   0.05112   0.00000   0.07059   0.07059   2.58960
   rn3        2.10629   0.04306   0.00000   0.08198   0.08198   2.18827
   rn4        1.75064   0.04347   0.00000   0.04885   0.04885   1.79949
   rch        2.01785   0.01394   0.00000   0.03607   0.03607   2.05392
   rnh        1.87858   0.01578   0.00000   0.03164   0.03164   1.91022
   an1        1.25389  -0.00780   0.00000   0.01488   0.01488   1.26878
   an2        2.33355  -0.05970   0.00000   0.00930   0.00930   2.34286
   an3        3.39396   0.07052   0.00000   0.00647   0.00647   3.40043
   an4        4.81845  -0.01290   0.00000  -0.01969  -0.01969   4.79875
   ach        2.18209  -0.00027   0.00000  -0.00337  -0.00337   2.17873
   anh        2.10770   0.00008   0.00000  -0.00079  -0.00079   2.10691
         Item               Value     Threshold  Converged?
 Maximum Force            0.070518     0.000450     NO 
 RMS     Force            0.037123     0.000300     NO 
 Maximum Displacement     0.081982     0.001800     NO 
 RMS     Displacement     0.038779     0.001200     NO 
 Predicted change in Energy=-5.722108D-03
 GradGradGradGradGradGradGradGradGradGradGradGradGradGradGradGradGradGrad

 ---------------------------------------------------------------------------------------------------
                            Z-MATRIX (ANGSTROMS AND DEGREES)
   CD    Cent   Atom    N1       Length/X        N2       Alpha/Y        N3        Beta/Z          J
 ---------------------------------------------------------------------------------------------------
      1         X 
      2         X        1   1.000000(     1)
      3      1  C        1   1.000000(     2)      2   90.000(     9)
      4      2  N        1   1.258502(     3)      2   90.000(    10)      3   72.696(    16)      0
      5      3  N        1   1.370356(     4)      2   90.000(    11)      3  134.236(    17)      0
      6      4  N        1   1.157983(     5)      2   90.000(    12)      3  194.830(    18)      0
      7      5  N        1   0.952251(     6)      2   90.000(    13)      3  274.948(    19)      0
      8      6  H        3   1.086889(     7)      4  124.832(    14)      5  180.000(    20)      0
      9      7  H        4   1.010843(     8)      5  120.717(    15)      6  180.000(    21)      0
 ---------------------------------------------------------------------------------------------------
                         Z-Matrix orientation:                         
 ---------------------------------------------------------------------
 Center     Atomic      Atomic             Coordinates (Angstroms)
 Number     Number       Type             X           Y           Z
 ---------------------------------------------------------------------
      1         -1           0        0.000000    0.000000    0.000000
      2         -1           0        0.000000    0.000000    1.000000
      3          6           0        1.000000    0.000000    0.000000
      4          7           0        0.374341   -1.201539    0.000000
      5          7           0       -0.955978   -0.981825    0.000000
      6          7           0       -1.119409    0.296392    0.000000
      7          7           0        0.082140    0.948701    0.000000
      8          1           0        2.078018    0.138581    0.000000
      9          1           0        0.742172   -2.143082    0.000000
 ---------------------------------------------------------------------
                    Distance matrix (angstroms):
                    1          2          3          4          5
     1  X    0.000000
     2  X    1.000000   0.000000
     3  C    1.000000   1.414214   0.000000
     4  N    1.258502   1.607429   1.354675   0.000000
     5  N    1.370356   1.696430   2.188569   1.348341   0.000000
     6  N    1.157983   1.530008   2.140033   2.115440   1.288623
     7  N    0.952251   1.380862   1.320039   2.170003   2.191945
     8  H    2.082634   2.310273   1.086889   2.167588   3.234261
     9  H    2.267955   2.478633   2.158536   1.010843   2.057240
                    6          7          8          9
     6  N    0.000000
     7  N    1.367197   0.000000
     8  H    3.201319   2.154025   0.000000
     9  H    3.068635   3.161450   2.643950   0.000000
 Stoichiometry    CH2N4
 Framework group  CS[SG(CH2N4)]
 Deg. of freedom    11
 Full point group                 CS      NOp   2
 Largest Abelian subgroup         CS      NOp   2
 Largest concise Abelian subgroup C1      NOp   1
                         Standard orientation:                         
 ---------------------------------------------------------------------
 Center     Atomic      Atomic             Coordinates (Angstroms)
 Number     Number       Type             X           Y           Z
 ---------------------------------------------------------------------
      1          6           0        1.071211    0.231609    0.000000
      2          7           0        0.000000    1.060857    0.000000
      3          7           0       -1.116147    0.304392    0.000000
      4          7           0       -0.729446   -0.924840    0.000000
      5          7           0        0.634826   -1.014212    0.000000
      6          1           0        2.108229    0.557064    0.000000
      7          1           0       -0.060127    2.069910    0.000000
 ---------------------------------------------------------------------
 Rotational constants (GHZ):     10.4628161     10.3042447      5.1914625
 Standard basis: Aug-CC-pVDZ (5D, 7F)
 There are   104 symmetry adapted cartesian basis functions of A'  symmetry.
 There are    39 symmetry adapted cartesian basis functions of A"  symmetry.
 There are    94 symmetry adapted basis functions of A'  symmetry.
 There are    39 symmetry adapted basis functions of A"  symmetry.
   133 basis functions,   237 primitive gaussians,   143 cartesian basis functions
    18 alpha electrons       18 beta electrons
       nuclear repulsion energy       166.3059199431 Hartrees.
 NAtoms=    7 NActive=    7 NUniq=    7 SFac= 1.00D+00 NAtFMM=   60 NAOKFM=F Big=F
 Integral buffers will be    131072 words long.
 Raffenetti 1 integral format.
 Two-electron integral symmetry is turned on.
 One-electron integrals computed using PRISM.
 NBasis=   133 RedAO= T EigKep=  1.37D-04  NBF=    94    39
 NBsUse=   133 1.00D-06 EigRej= -1.00D+00 NBFU=    94    39
 Initial guess from the checkpoint file:  "/tmp/rdj3/g09-11838/Gau-11894.chk"
 B after Tr=     0.000000    0.000000    0.000000
         Rot=    1.000000    0.000000    0.000000    0.000253 Ang=   0.03 deg.
 Initial guess orbital symmetries:
       Occupied  (A') (A') (A') (A') (A') (A') (A') (A') (A') (A')
                 (A') (A") (A') (A') (A') (A') (A") (A")
       Virtual   (A') (A') (A') (A') (A') (A') (A') (A') (A') (A')
                 (A') (A') (A') (A') (A') (A') (A') (A') (A') (A')
                 (A') (A') (A') (A') (A') (A') (A') (A') (A') (A')
                 (A') (A') (A') (A') (A') (A') (A') (A') (A') (A')
                 (A') (A') (A') (A') (A') (A') (A') (A') (A') (A')
                 (A') (A') (A') (A') (A') (A') (A') (A') (A') (A')
                 (A') (A') (A') (A') (A') (A') (A') (A') (A') (A')
                 (A') (A') (A') (A') (A') (A') (A') (A') (A') (A")
                 (A") (A") (A") (A") (A") (A") (A") (A") (A") (A")
                 (A") (A") (A") (A") (A") (A") (A") (A") (A") (A")
                 (A") (A") (A") (A") (A") (A") (A") (A") (A") (A")
                 (A") (A") (A") (A") (A")
 ExpMin= 2.97D-02 ExpMax= 9.05D+03 ExpMxC= 3.09D+02 IAcc=3 IRadAn=         5 AccDes= 0.00D+00
 Harris functional with IExCor=  205 and IRadAn=       5 diagonalized for initial guess.
 HarFok:  IExCor=  205 AccDes= 0.00D+00 IRadAn=         5 IDoV= 1 UseB2=F ITyADJ=14
 ICtDFT=  3500011 ScaDFX=  1.000000  1.000000  1.000000  1.000000
 FoFCou: FMM=F IPFlag=           0 FMFlag=      100000 FMFlg1=           0
         NFxFlg=           0 DoJE=T BraDBF=F KetDBF=T FulRan=T
         wScrn=  0.000000 ICntrl=     500 IOpCl=  0 I1Cent=   200000004 NGrid=           0
         NMat0=    1 NMatS0=      1 NMatT0=    0 NMatD0=    1 NMtDS0=    0 NMtDT0=    0
 Petite list used in FoFCou.
 Keep R1 ints in memory in symmetry-blocked form, NReq=60288506.
 Requested convergence on RMS density matrix=1.00D-08 within 128 cycles.
 Requested convergence on MAX density matrix=1.00D-06.
 Requested convergence on             energy=1.00D-06.
 No special actions if energy rises.
 SCF Done:  E(RHF) =  -256.793232436     A.U. after   13 cycles
            NFock= 13  Conv=0.46D-08     -V/T= 2.0023
 ExpMin= 2.97D-02 ExpMax= 9.05D+03 ExpMxC= 3.09D+02 IAcc=3 IRadAn=         5 AccDes= 0.00D+00
 HarFok:  IExCor=  205 AccDes= 0.00D+00 IRadAn=         5 IDoV=-2 UseB2=F ITyADJ=14
 ICtDFT= 12500011 ScaDFX=  1.000000  1.000000  1.000000  1.000000
 Range of M.O.s used for correlation:     6   133
 NBasis=   133 NAE=    18 NBE=    18 NFC=     5 NFV=     0
 NROrb=    128 NOA=    13 NOB=    13 NVA=   115 NVB=   115

 **** Warning!!: The largest alpha MO coefficient is  0.29195818D+02

 Semi-Direct transformation.
 ModeAB=           2 MOrb=            13 LenV=     435426986
 LASXX=      6519262 LTotXX=     6519262 LenRXX=     6519262
 LTotAB=     6692444 MaxLAS=    17132544 LenRXY=    17132544
 NonZer=    17472000 LenScr=    26969600 LnRSAI=           0
 LnScr1=           0 LExtra=           0 Total=     50621406
 MaxDsk=          -1 SrtSym=           F ITran=            4
 JobTyp=0 Pass  1:  I=   1 to  13.
 (rs|ai) integrals will be sorted in core.
 Spin components of T(2) and E(2):
     alpha-alpha T2 =       0.4072802250D-01 E2=     -0.1141945148D+00
     alpha-beta  T2 =       0.2030391745D+00 E2=     -0.5924827014D+00
     beta-beta   T2 =       0.4072802250D-01 E2=     -0.1141945148D+00
 ANorm=    0.1133355734D+01
 E2 =    -0.8208717310D+00 EUMP2 =    -0.25761410416679D+03
 Keep R2 and R3 ints in memory in symmetry-blocked form, NReq=61458976.
 Iterations=  50 Convergence= 0.100D-07
 Iteration Nr.   1
 **********************
 DD1Dir will call FoFMem   1 times, MxPair=       182
 NAB=    91 NAA=     0 NBB=     0.
 MP4(R+Q)=  0.24107967D-01
 E3=        0.27750027D-02        EUMP3=      -0.25761132916D+03
 E4(DQ)=    0.45737837D-03        UMP4(DQ)=   -0.25761087179D+03
 DE(Corr)= -0.79398876     E(Corr)=     -257.58722120    
 NORM(A)=   0.11227455D+01
 Iteration Nr.   2
 **********************
 DD1Dir will call FoFMem   1 times, MxPair=       182
 NAB=    91 NAA=     0 NBB=     0.
 DE(Corr)= -0.81597045     E(CORR)=     -257.60920288     Delta=-2.20D-02
 NORM(A)=   0.11320674D+01
 Iteration Nr.   3
 **********************
 DD1Dir will call FoFMem   1 times, MxPair=       182
 NAB=    91 NAA=     0 NBB=     0.
 DE(Corr)= -0.81697153     E(CORR)=     -257.61020397     Delta=-1.00D-03
 NORM(A)=   0.11329253D+01
 Iteration Nr.   4
 **********************
 DD1Dir will call FoFMem   1 times, MxPair=       182
 NAB=    91 NAA=     0 NBB=     0.
 DE(Corr)= -0.81827086     E(CORR)=     -257.61150330     Delta=-1.30D-03
 NORM(A)=   0.11332920D+01
 Iteration Nr.   5
 **********************
 DD1Dir will call FoFMem   1 times, MxPair=       182
 NAB=    91 NAA=     0 NBB=     0.
 DE(Corr)= -0.81837229     E(CORR)=     -257.61160473     Delta=-1.01D-04
 NORM(A)=   0.11333565D+01
 Iteration Nr.   6
 **********************
 DD1Dir will call FoFMem   1 times, MxPair=       182
 NAB=    91 NAA=     0 NBB=     0.
 DE(Corr)= -0.81838114     E(CORR)=     -257.61161358     Delta=-8.85D-06
 NORM(A)=   0.11333554D+01
 Iteration Nr.   7
 **********************
 DD1Dir will call FoFMem   1 times, MxPair=       182
 NAB=    91 NAA=     0 NBB=     0.
 DE(Corr)= -0.81838244     E(CORR)=     -257.61161488     Delta=-1.30D-06
 NORM(A)=   0.11333569D+01
 Iteration Nr.   8
 **********************
 DD1Dir will call FoFMem   1 times, MxPair=       182
 NAB=    91 NAA=     0 NBB=     0.
 DE(Corr)= -0.81838139     E(CORR)=     -257.61161382     Delta= 1.05D-06
 NORM(A)=   0.11333579D+01
 Iteration Nr.   9
 **********************
 DD1Dir will call FoFMem   1 times, MxPair=       182
 NAB=    91 NAA=     0 NBB=     0.
 DE(Corr)= -0.81838146     E(CORR)=     -257.61161390     Delta=-7.30D-08
 NORM(A)=   0.11333581D+01
 Iteration Nr.  10
 **********************
 DD1Dir will call FoFMem   1 times, MxPair=       182
 NAB=    91 NAA=     0 NBB=     0.
 DE(Corr)= -0.81838166     E(CORR)=     -257.61161409     Delta=-1.96D-07
 NORM(A)=   0.11333583D+01
 Iteration Nr.  11
 **********************
 DD1Dir will call FoFMem   1 times, MxPair=       182
 NAB=    91 NAA=     0 NBB=     0.
 DE(Corr)= -0.81838171     E(CORR)=     -257.61161414     Delta=-5.17D-08
 NORM(A)=   0.11333584D+01
 Iteration Nr.  12
 **********************
 DD1Dir will call FoFMem   1 times, MxPair=       182
 NAB=    91 NAA=     0 NBB=     0.
 DE(Corr)= -0.81838176     E(CORR)=     -257.61161419     Delta=-4.90D-08
 NORM(A)=   0.11333584D+01
 Iteration Nr.  13
 **********************
 DD1Dir will call FoFMem   1 times, MxPair=       182
 NAB=    91 NAA=     0 NBB=     0.
 DE(Corr)= -0.81838177     E(CORR)=     -257.61161421     Delta=-1.40D-08
 NORM(A)=   0.11333584D+01
 Iteration Nr.  14
 **********************
 DD1Dir will call FoFMem   1 times, MxPair=       182
 NAB=    91 NAA=     0 NBB=     0.
 DE(Corr)= -0.81838178     E(CORR)=     -257.61161421     Delta=-4.66D-09
 NORM(A)=   0.11333584D+01
 Largest amplitude= 6.12D-02

 Z-AMPLITUDE ITERATIONS

 Iteration Nr.   1
 **********************
 DD1Dir will call FoFMem   1 times, MxPair=       182
 NAB=    91 NAA=     0 NBB=     0.
 DE(Z)  -0.79073791D+00          E(Z)=    -0.25758397035D+03
 NORM(A)=   0.11334029D+01
 Iteration Nr.   2
 **********************
 DD1Dir will call FoFMem   1 times, MxPair=       182
 NAB=    91 NAA=     0 NBB=     0.
 DE(Z)  -0.79073393D+00          E(Z)=    -0.25758396637D+03
 NORM(A)=   0.11332900D+01
 Iteration Nr.   3
 **********************
 DD1Dir will call FoFMem   1 times, MxPair=       182
 NAB=    91 NAA=     0 NBB=     0.
 DE(Z)  -0.79074388D+00          E(Z)=    -0.25758397631D+03
 NORM(A)=   0.11333821D+01
 Iteration Nr.   4
 **********************
 DD1Dir will call FoFMem   1 times, MxPair=       182
 NAB=    91 NAA=     0 NBB=     0.
 DE(Z)  -0.79073586D+00          E(Z)=    -0.25758396829D+03
 NORM(A)=   0.11333493D+01
 Iteration Nr.   5
 **********************
 DD1Dir will call FoFMem   1 times, MxPair=       182
 NAB=    91 NAA=     0 NBB=     0.
 DE(Z)  -0.79073870D+00          E(Z)=    -0.25758397114D+03
 NORM(A)=   0.11241696D+01
 Iteration Nr.   6
 **********************
 DD1Dir will call FoFMem   1 times, MxPair=       182
 NAB=    91 NAA=     0 NBB=     0.
 DE(Z)  -0.79155354D+00          E(Z)=    -0.25758478598D+03
 NORM(A)=   0.11241689D+01
 Iteration Nr.   7
 **********************
 DD1Dir will call FoFMem   1 times, MxPair=       182
 NAB=    91 NAA=     0 NBB=     0.
 DE(Z)  -0.79155369D+00          E(Z)=    -0.25758478612D+03
 NORM(A)=   0.11241687D+01
 Iteration Nr.   8
 **********************
 DD1Dir will call FoFMem   1 times, MxPair=       182
 NAB=    91 NAA=     0 NBB=     0.
 DE(Z)  -0.79155371D+00          E(Z)=    -0.25758478615D+03
 NORM(A)=   0.11241687D+01
 Iteration Nr.   9
 **********************
 DD1Dir will call FoFMem   1 times, MxPair=       182
 NAB=    91 NAA=     0 NBB=     0.
 DE(Z)  -0.79155367D+00          E(Z)=    -0.25758478611D+03
 NORM(A)=   0.11241687D+01
 Iteration Nr.  10
 **********************
 DD1Dir will call FoFMem   1 times, MxPair=       182
 NAB=    91 NAA=     0 NBB=     0.
 DE(Z)  -0.79155368D+00          E(Z)=    -0.25758478611D+03
 NORM(A)=   0.11241687D+01
 Iteration Nr.  11
 **********************
 DD1Dir will call FoFMem   1 times, MxPair=       182
 NAB=    91 NAA=     0 NBB=     0.
 DE(Z)  -0.79155367D+00          E(Z)=    -0.25758478611D+03
 NORM(A)=   0.11241687D+01
 Iteration Nr.  12
 **********************
 DD1Dir will call FoFMem   1 times, MxPair=       182
 NAB=    91 NAA=     0 NBB=     0.
 DE(Z)  -0.79155367D+00          E(Z)=    -0.25758478611D+03
 NORM(A)=   0.11241687D+01
 Discarding MO integrals.
          IDoAtm=1111111
          Differentiating once with respect to electric field.
                with respect to dipole field.
          Differentiating once with respect to nuclear coordinates.
 Keep R1 ints in memory in symmetry-blocked form, NReq=60207810.
          There are     1 degrees of freedom in the 1st order CPHF.  IDoFFX=0 NUNeed=     1.
 LinEq1:  Iter=  0 NonCon=     1 RMS=3.48D-03 Max=3.29D-02 NDo=     1
 AX will form     1 AO Fock derivatives at one time.
 LinEq1:  Iter=  1 NonCon=     1 RMS=7.50D-04 Max=1.12D-02 NDo=     1
 LinEq1:  Iter=  2 NonCon=     1 RMS=3.38D-04 Max=7.16D-03 NDo=     1
 LinEq1:  Iter=  3 NonCon=     1 RMS=1.04D-04 Max=1.33D-03 NDo=     1
 LinEq1:  Iter=  4 NonCon=     1 RMS=4.31D-05 Max=6.65D-04 NDo=     1
 LinEq1:  Iter=  5 NonCon=     1 RMS=1.27D-05 Max=1.34D-04 NDo=     1
 LinEq1:  Iter=  6 NonCon=     1 RMS=4.97D-06 Max=7.39D-05 NDo=     1
 LinEq1:  Iter=  7 NonCon=     1 RMS=2.61D-06 Max=6.54D-05 NDo=     1
 LinEq1:  Iter=  8 NonCon=     1 RMS=8.26D-07 Max=8.71D-06 NDo=     1
 LinEq1:  Iter=  9 NonCon=     1 RMS=4.18D-07 Max=5.28D-06 NDo=     1
 LinEq1:  Iter= 10 NonCon=     1 RMS=8.72D-08 Max=8.56D-07 NDo=     1
 LinEq1:  Iter= 11 NonCon=     1 RMS=1.81D-08 Max=1.89D-07 NDo=     1
 LinEq1:  Iter= 12 NonCon=     1 RMS=7.12D-09 Max=8.73D-08 NDo=     1
 LinEq1:  Iter= 13 NonCon=     1 RMS=2.88D-09 Max=2.93D-08 NDo=     1
 LinEq1:  Iter= 14 NonCon=     1 RMS=5.38D-10 Max=4.39D-09 NDo=     1
 LinEq1:  Iter= 15 NonCon=     1 RMS=1.04D-10 Max=8.50D-10 NDo=     1
 LinEq1:  Iter= 16 NonCon=     0 RMS=1.73D-11 Max=1.12D-10 NDo=     1
 Linear equations converged to 1.000D-10 1.000D-09 after    16 iterations.
 End of Minotr F.D. properties file   721 does not exist.
 End of Minotr F.D. properties file   722 does not exist.
 End of Minotr F.D. properties file   788 does not exist.
 Calling FoFJK, ICntrl=  10002127 FMM=F ISym2X=1 I1Cent= 0 IOpClX= 0 NMat=1 NMatS=1 NMatT=0.
 ***** Axes restored to original set *****
 -------------------------------------------------------------------
 Center     Atomic                   Forces (Hartrees/Bohr)
 Number     Number              X              Y              Z
 -------------------------------------------------------------------
      1        6           0.001842359   -0.001913303    0.000000000
      2        7           0.000010868    0.005266421    0.000000000
      3        7          -0.001632345   -0.010578696    0.000000000
      4        7          -0.001890748    0.005789751    0.000000000
      5        7           0.002524392    0.001395590    0.000000000
      6        1          -0.000654520   -0.000054281    0.000000000
      7        1          -0.000200007    0.000094519    0.000000000
 -------------------------------------------------------------------
 Cartesian Forces:  Max     0.010578696 RMS     0.003049280
 -----------------------------------------------------------------------------------------------
                       Internal Coordinate Forces (Hartree/Bohr or radian)
  Cent   Atom   N1       Length/X         N2         Alpha/Y        N3         Beta/Z          J
 -----------------------------------------------------------------------------------------------
         X 
         X        1   0.000000(     1)
      1  C        1   0.001167(     2)      2   0.000000(     9)
      2  N        1  -0.005056(     3)      2   0.000000(    10)      3  -0.003281(    16)     0
      3  N        1   0.008625(     4)      2   0.000000(    11)      3  -0.015914(    17)     0
      4  N        1   0.003310(     5)      2   0.000000(    12)      3   0.011188(    18)     0
      5  N        1   0.001608(     6)      2   0.000000(    13)      3   0.004309(    19)     0
      6  H        3  -0.000656(     7)      4   0.000061(    14)      5   0.000000(    20)     0
      7  H        4  -0.000161(     8)      5  -0.000290(    15)      6   0.000000(    21)     0
 -----------------------------------------------------------------------------------------------
 Internal  Forces:  Max     0.015913643 RMS     0.004991211

 GradGradGradGradGradGradGradGradGradGradGradGradGradGradGradGradGradGrad
 Berny optimization.
 Search for a local minimum.
 Step number   2 out of a maximum of   22
 All quantities printed in internal units (Hartrees-Bohrs-Radians)
 Update second derivatives using D2CorN and points    1    2
 DE= -5.73D-03 DEPred=-5.72D-03 R= 1.00D+00
 TightC=F SS=  1.41D+00  RLast= 1.34D-01 DXNew= 5.0454D-01 4.0300D-01
 Trust test= 1.00D+00 RLast= 1.34D-01 DXMaxT set to 4.03D-01
 The second derivative matrix:
                          rn1       rn2       rn3       rn4       rch
           rn1          0.66084
           rn2          0.01721   0.66805
           rn3          0.04498   0.05088   0.57177
           rn4          0.04330   0.01394   0.13403   0.63635
           rch          0.00627  -0.00575   0.00002   0.00038   0.37722
           rnh          0.00516  -0.00586  -0.00092  -0.00023   0.00145
           an1          0.02521  -0.74665   0.04943  -0.08062   0.00388
           an2          0.73592  -0.28302  -0.68288   0.07576   0.01628
           an3         -0.03742   1.02482   0.02844  -0.60106  -0.01092
           an4          0.04657  -0.03687   0.64952  -0.10565  -0.00511
           ach          0.04488   0.00054   0.00000   0.05062  -0.00020
           anh         -0.10194   0.05348   0.00069   0.00040   0.00026
                          rnh       an1       an2       an3       an4
           rnh          0.48831
           an1          0.00324   4.53542
           an2          0.01418  -2.67301   6.03126
           an3         -0.00965  -0.03970  -3.19618   4.47067
           an4         -0.00425  -0.12633  -0.07583  -1.15517   2.58973
           ach         -0.00013  -0.10496  -0.00152   0.00102   0.07365
           anh          0.00024   0.03523  -0.09087   0.00029  -0.00005
                          ach       anh
           ach          0.32002
           anh         -0.00002   0.31999
 ITU=  1  0
     Eigenvalues ---    0.00000   0.12884   0.26607   0.33072   0.37699
     Eigenvalues ---    0.39555   0.48833   0.75829   1.20927   2.99139
     Eigenvalues ---    5.09076   9.63342
 RFO step:  Lambda=-1.88637398D-04 EMin=-6.18344194D-10
 Quartic linear search produced a step of  0.05939.
 Variable       Old X    -DE/DX   Delta X   Delta X   Delta X     New X
                                 (Linear)    (Quad)   (Total)
   rn1        2.37822  -0.00506   0.00178  -0.00342  -0.00164   2.37659
   rn2        2.58960   0.00862   0.00419   0.02310   0.02729   2.61689
   rn3        2.18827   0.00331   0.00487  -0.00169   0.00317   2.19145
   rn4        1.79949   0.00161   0.00290  -0.01212  -0.00922   1.79028
   rch        2.05392  -0.00066   0.00214  -0.00328  -0.00114   2.05278
   rnh        1.91022  -0.00016   0.00188  -0.00174   0.00014   1.91036
   an1        1.26878  -0.00328   0.00088  -0.00172  -0.00084   1.26794
   an2        2.34286  -0.01591   0.00055  -0.00786  -0.00731   2.33555
   an3        3.40043   0.01119   0.00038  -0.01171  -0.01133   3.38910
   an4        4.79875   0.00431  -0.00117  -0.00327  -0.00444   4.79431
   ach        2.17873   0.00006  -0.00020   0.00276   0.00256   2.18128
   anh        2.10691  -0.00029  -0.00005  -0.00794  -0.00798   2.09893
         Item               Value     Threshold  Converged?
 Maximum Force            0.015914     0.000450     NO 
 RMS     Force            0.006594     0.000300     NO 
 Maximum Displacement     0.027292     0.001800     NO 
 RMS     Displacement     0.009645     0.001200     NO 
 Predicted change in Energy=-1.025972D-04
 GradGradGradGradGradGradGradGradGradGradGradGradGradGradGradGradGradGrad

 ---------------------------------------------------------------------------------------------------
                            Z-MATRIX (ANGSTROMS AND DEGREES)
   CD    Cent   Atom    N1       Length/X        N2       Alpha/Y        N3        Beta/Z          J
 ---------------------------------------------------------------------------------------------------
      1         X 
      2         X        1   1.000000(     1)
      3      1  C        1   1.000000(     2)      2   90.000(     9)
      4      2  N        1   1.257636(     3)      2   90.000(    10)      3   72.647(    16)      0
      5      3  N        1   1.384798(     4)      2   90.000(    11)      3  133.817(    17)      0
      6      4  N        1   1.159663(     5)      2   90.000(    12)      3  194.181(    18)      0
      7      5  N        1   0.947373(     6)      2   90.000(    13)      3  274.694(    19)      0
      8      6  H        3   1.086286(     7)      4  124.978(    14)      5  180.000(    20)      0
      9      7  H        4   1.010920(     8)      5  120.260(    15)      6  180.000(    21)      0
 ---------------------------------------------------------------------------------------------------
                         Z-Matrix orientation:                         
 ---------------------------------------------------------------------
 Center     Atomic      Atomic             Coordinates (Angstroms)
 Number     Number       Type             X           Y           Z
 ---------------------------------------------------------------------
      1         -1           0        0.000000    0.000000    0.000000
      2         -1           0        0.000000    0.000000    1.000000
      3          6           0        1.000000    0.000000    0.000000
      4          7           0        0.375090   -1.200398    0.000000
      5          7           0       -0.958780   -0.999203    0.000000
      6          7           0       -1.124324    0.284103    0.000000
      7          7           0        0.077524    0.944196    0.000000
      8          1           0        2.077048    0.141367    0.000000
      9          1           0        0.748583   -2.139793    0.000000
 ---------------------------------------------------------------------
                    Distance matrix (angstroms):
                    1          2          3          4          5
     1  X    0.000000
     2  X    1.000000   0.000000
     3  C    1.000000   1.414214   0.000000
     4  N    1.257636   1.606751   1.353318   0.000000
     5  N    1.384798   1.708118   2.198915   1.348959   0.000000
     6  N    1.159663   1.531280   2.143237   2.109973   1.293940
     7  N    0.947373   1.377504   1.320026   2.165140   2.202437
     8  H    2.081853   2.309570   1.086286   2.167255   3.243016
     9  H    2.266956   2.477719   2.154512   1.010920   2.053298
                    6          7          8          9
     6  N    0.000000
     7  N    1.371189   0.000000
     8  H    3.204552   2.154677   0.000000
     9  H    3.063176   3.156154   2.639794   0.000000
 Stoichiometry    CH2N4
 Framework group  CS[SG(CH2N4)]
 Deg. of freedom    11
 Full point group                 CS      NOp   2
 Largest Abelian subgroup         CS      NOp   2
 Largest concise Abelian subgroup C1      NOp   1
                         Standard orientation:                         
 ---------------------------------------------------------------------
 Center     Atomic      Atomic             Coordinates (Angstroms)
 Number     Number       Type             X           Y           Z
 ---------------------------------------------------------------------
      1          6           0        1.074500    0.232600    0.000000
      2          7           0        0.000000    1.055350    0.000000
      3          7           0       -1.123116    0.308156    0.000000
      4          7           0       -0.729559   -0.924481    0.000000
      5          7           0        0.638742   -1.013427    0.000000
      6          1           0        2.110052    0.560701    0.000000
      7          1           0       -0.059523    2.064516    0.000000
 ---------------------------------------------------------------------
 Rotational constants (GHZ):     10.4860347     10.2385626      5.1804106
 Standard basis: Aug-CC-pVDZ (5D, 7F)
 There are   104 symmetry adapted cartesian basis functions of A'  symmetry.
 There are    39 symmetry adapted cartesian basis functions of A"  symmetry.
 There are    94 symmetry adapted basis functions of A'  symmetry.
 There are    39 symmetry adapted basis functions of A"  symmetry.
   133 basis functions,   237 primitive gaussians,   143 cartesian basis functions
    18 alpha electrons       18 beta electrons
       nuclear repulsion energy       166.1222251204 Hartrees.
 NAtoms=    7 NActive=    7 NUniq=    7 SFac= 1.00D+00 NAtFMM=   60 NAOKFM=F Big=F
 Integral buffers will be    131072 words long.
 Raffenetti 1 integral format.
 Two-electron integral symmetry is turned on.
 One-electron integrals computed using PRISM.
 NBasis=   133 RedAO= T EigKep=  1.38D-04  NBF=    94    39
 NBsUse=   133 1.00D-06 EigRej= -1.00D+00 NBFU=    94    39
 Initial guess from the checkpoint file:  "/tmp/rdj3/g09-11838/Gau-11894.chk"
 B after Tr=     0.000000    0.000000    0.000000
         Rot=    1.000000    0.000000    0.000000   -0.000204 Ang=  -0.02 deg.
 Initial guess orbital symmetries:
       Occupied  (A') (A') (A') (A') (A') (A') (A') (A') (A') (A')
                 (A') (A') (A") (A') (A') (A') (A") (A")
       Virtual   (A') (A') (A') (A') (A') (A') (A') (A') (A') (A')
                 (A') (A') (A') (A') (A') (A') (A') (A') (A') (A')
                 (A') (A') (A') (A') (A') (A') (A') (A') (A') (A')
                 (A') (A') (A') (A') (A') (A') (A') (A') (A') (A')
                 (A') (A') (A') (A') (A') (A') (A') (A') (A') (A')
                 (A') (A') (A') (A') (A') (A') (A') (A') (A') (A')
                 (A') (A') (A') (A') (A') (A') (A') (A') (A') (A')
                 (A') (A') (A') (A') (A') (A') (A') (A') (A') (A")
                 (A") (A") (A") (A") (A") (A") (A") (A") (A") (A")
                 (A") (A") (A") (A") (A") (A") (A") (A") (A") (A")
                 (A") (A") (A") (A") (A") (A") (A") (A") (A") (A")
                 (A") (A") (A") (A") (A")
 ExpMin= 2.97D-02 ExpMax= 9.05D+03 ExpMxC= 3.09D+02 IAcc=3 IRadAn=         5 AccDes= 0.00D+00
 Harris functional with IExCor=  205 and IRadAn=       5 diagonalized for initial guess.
 HarFok:  IExCor=  205 AccDes= 0.00D+00 IRadAn=         5 IDoV= 1 UseB2=F ITyADJ=14
 ICtDFT=  3500011 ScaDFX=  1.000000  1.000000  1.000000  1.000000
 FoFCou: FMM=F IPFlag=           0 FMFlag=      100000 FMFlg1=           0
         NFxFlg=           0 DoJE=T BraDBF=F KetDBF=T FulRan=T
         wScrn=  0.000000 ICntrl=     500 IOpCl=  0 I1Cent=   200000004 NGrid=           0
         NMat0=    1 NMatS0=      1 NMatT0=    0 NMatD0=    1 NMtDS0=    0 NMtDT0=    0
 Petite list used in FoFCou.
 Keep R1 ints in memory in symmetry-blocked form, NReq=60288506.
 Requested convergence on RMS density matrix=1.00D-08 within 128 cycles.
 Requested convergence on MAX density matrix=1.00D-06.
 Requested convergence on             energy=1.00D-06.
 No special actions if energy rises.
 SCF Done:  E(RHF) =  -256.792535749     A.U. after   11 cycles
            NFock= 11  Conv=0.85D-08     -V/T= 2.0024
 ExpMin= 2.97D-02 ExpMax= 9.05D+03 ExpMxC= 3.09D+02 IAcc=3 IRadAn=         5 AccDes= 0.00D+00
 HarFok:  IExCor=  205 AccDes= 0.00D+00 IRadAn=         5 IDoV=-2 UseB2=F ITyADJ=14
 ICtDFT= 12500011 ScaDFX=  1.000000  1.000000  1.000000  1.000000
 Range of M.O.s used for correlation:     6   133
 NBasis=   133 NAE=    18 NBE=    18 NFC=     5 NFV=     0
 NROrb=    128 NOA=    13 NOB=    13 NVA=   115 NVB=   115

 **** Warning!!: The largest alpha MO coefficient is  0.28955746D+02

 Semi-Direct transformation.
 ModeAB=           2 MOrb=            13 LenV=     435427028
 LASXX=      6519262 LTotXX=     6519262 LenRXX=     6519262
 LTotAB=     6692444 MaxLAS=    17132544 LenRXY=    17132544
 NonZer=    17472000 LenScr=    26969600 LnRSAI=           0
 LnScr1=           0 LExtra=           0 Total=     50621406
 MaxDsk=          -1 SrtSym=           F ITran=            4
 JobTyp=0 Pass  1:  I=   1 to  13.
 (rs|ai) integrals will be sorted in core.
 Spin components of T(2) and E(2):
     alpha-alpha T2 =       0.4087454054D-01 E2=     -0.1143493057D+00
     alpha-beta  T2 =       0.2037217199D+00 E2=     -0.5932409288D+00
     beta-beta   T2 =       0.4087454054D-01 E2=     -0.1143493057D+00
 ANorm=    0.1133786047D+01
 E2 =    -0.8219395402D+00 EUMP2 =    -0.25761447528918D+03
 Keep R2 and R3 ints in memory in symmetry-blocked form, NReq=61458976.
 Iterations=  50 Convergence= 0.100D-07
 Iteration Nr.   1
 **********************
 DD1Dir will call FoFMem   1 times, MxPair=       182
 NAB=    91 NAA=     0 NBB=     0.
 MP4(R+Q)=  0.24255629D-01
 E3=        0.30809814D-02        EUMP3=      -0.25761139431D+03
 E4(DQ)=    0.47316833D-03        UMP4(DQ)=   -0.25761092114D+03
 DE(Corr)= -0.79460293     E(Corr)=     -257.58713868    
 NORM(A)=   0.11229932D+01
 Iteration Nr.   2
 **********************
 DD1Dir will call FoFMem   1 times, MxPair=       182
 NAB=    91 NAA=     0 NBB=     0.
 DE(Corr)= -0.81674823     E(CORR)=     -257.60928398     Delta=-2.21D-02
 NORM(A)=   0.11323771D+01
 Iteration Nr.   3
 **********************
 DD1Dir will call FoFMem   1 times, MxPair=       182
 NAB=    91 NAA=     0 NBB=     0.
 DE(Corr)= -0.81773022     E(CORR)=     -257.61026597     Delta=-9.82D-04
 NORM(A)=   0.11332406D+01
 Iteration Nr.   4
 **********************
 DD1Dir will call FoFMem   1 times, MxPair=       182
 NAB=    91 NAA=     0 NBB=     0.
 DE(Corr)= -0.81904067     E(CORR)=     -257.61157642     Delta=-1.31D-03
 NORM(A)=   0.11336119D+01
 Iteration Nr.   5
 **********************
 DD1Dir will call FoFMem   1 times, MxPair=       182
 NAB=    91 NAA=     0 NBB=     0.
 DE(Corr)= -0.81914342     E(CORR)=     -257.61167917     Delta=-1.03D-04
 NORM(A)=   0.11336776D+01
 Iteration Nr.   6
 **********************
 DD1Dir will call FoFMem   1 times, MxPair=       182
 NAB=    91 NAA=     0 NBB=     0.
 DE(Corr)= -0.81915240     E(CORR)=     -257.61168815     Delta=-8.99D-06
 NORM(A)=   0.11336765D+01
 Iteration Nr.   7
 **********************
 DD1Dir will call FoFMem   1 times, MxPair=       182
 NAB=    91 NAA=     0 NBB=     0.
 DE(Corr)= -0.81915373     E(CORR)=     -257.61168948     Delta=-1.33D-06
 NORM(A)=   0.11336781D+01
 Iteration Nr.   8
 **********************
 DD1Dir will call FoFMem   1 times, MxPair=       182
 NAB=    91 NAA=     0 NBB=     0.
 DE(Corr)= -0.81915266     E(CORR)=     -257.61168841     Delta= 1.07D-06
 NORM(A)=   0.11336791D+01
 Iteration Nr.   9
 **********************
 DD1Dir will call FoFMem   1 times, MxPair=       182
 NAB=    91 NAA=     0 NBB=     0.
 DE(Corr)= -0.81915274     E(CORR)=     -257.61168848     Delta=-7.48D-08
 NORM(A)=   0.11336793D+01
 Iteration Nr.  10
 **********************
 DD1Dir will call FoFMem   1 times, MxPair=       182
 NAB=    91 NAA=     0 NBB=     0.
 DE(Corr)= -0.81915293     E(CORR)=     -257.61168868     Delta=-1.97D-07
 NORM(A)=   0.11336795D+01
 Iteration Nr.  11
 **********************
 DD1Dir will call FoFMem   1 times, MxPair=       182
 NAB=    91 NAA=     0 NBB=     0.
 DE(Corr)= -0.81915299     E(CORR)=     -257.61168873     Delta=-5.25D-08
 NORM(A)=   0.11336796D+01
 Iteration Nr.  12
 **********************
 DD1Dir will call FoFMem   1 times, MxPair=       182
 NAB=    91 NAA=     0 NBB=     0.
 DE(Corr)= -0.81915304     E(CORR)=     -257.61168878     Delta=-4.99D-08
 NORM(A)=   0.11336796D+01
 Iteration Nr.  13
 **********************
 DD1Dir will call FoFMem   1 times, MxPair=       182
 NAB=    91 NAA=     0 NBB=     0.
 DE(Corr)= -0.81915305     E(CORR)=     -257.61168880     Delta=-1.42D-08
 NORM(A)=   0.11336796D+01
 Iteration Nr.  14
 **********************
 DD1Dir will call FoFMem   1 times, MxPair=       182
 NAB=    91 NAA=     0 NBB=     0.
 DE(Corr)= -0.81915305     E(CORR)=     -257.61168880     Delta=-4.63D-09
 NORM(A)=   0.11336796D+01
 Largest amplitude= 6.20D-02

 Z-AMPLITUDE ITERATIONS

 Iteration Nr.   1
 **********************
 DD1Dir will call FoFMem   1 times, MxPair=       182
 NAB=    91 NAA=     0 NBB=     0.
 DE(Z)  -0.79136546D+00          E(Z)=    -0.25758390120D+03
 NORM(A)=   0.11337002D+01
 Iteration Nr.   2
 **********************
 DD1Dir will call FoFMem   1 times, MxPair=       182
 NAB=    91 NAA=     0 NBB=     0.
 DE(Z)  -0.79136357D+00          E(Z)=    -0.25758389932D+03
 NORM(A)=   0.11336707D+01
 Iteration Nr.   3
 **********************
 DD1Dir will call FoFMem   1 times, MxPair=       182
 NAB=    91 NAA=     0 NBB=     0.
 DE(Z)  -0.79136625D+00          E(Z)=    -0.25758390200D+03
 NORM(A)=   0.11336839D+01
 Iteration Nr.   4
 **********************
 DD1Dir will call FoFMem   1 times, MxPair=       182
 NAB=    91 NAA=     0 NBB=     0.
 DE(Z)  -0.79136508D+00          E(Z)=    -0.25758390083D+03
 NORM(A)=   0.11336758D+01
 Iteration Nr.   5
 **********************
 DD1Dir will call FoFMem   1 times, MxPair=       182
 NAB=    91 NAA=     0 NBB=     0.
 DE(Z)  -0.79136580D+00          E(Z)=    -0.25758390155D+03
 NORM(A)=   0.11244384D+01
 Iteration Nr.   6
 **********************
 DD1Dir will call FoFMem   1 times, MxPair=       182
 NAB=    91 NAA=     0 NBB=     0.
 DE(Z)  -0.79220563D+00          E(Z)=    -0.25758474138D+03
 NORM(A)=   0.11244368D+01
 Iteration Nr.   7
 **********************
 DD1Dir will call FoFMem   1 times, MxPair=       182
 NAB=    91 NAA=     0 NBB=     0.
 DE(Z)  -0.79220579D+00          E(Z)=    -0.25758474154D+03
 NORM(A)=   0.11244367D+01
 Iteration Nr.   8
 **********************
 DD1Dir will call FoFMem   1 times, MxPair=       182
 NAB=    91 NAA=     0 NBB=     0.
 DE(Z)  -0.79220578D+00          E(Z)=    -0.25758474153D+03
 NORM(A)=   0.11244365D+01
 Iteration Nr.   9
 **********************
 DD1Dir will call FoFMem   1 times, MxPair=       182
 NAB=    91 NAA=     0 NBB=     0.
 DE(Z)  -0.79220577D+00          E(Z)=    -0.25758474152D+03
 NORM(A)=   0.11244365D+01
 Iteration Nr.  10
 **********************
 DD1Dir will call FoFMem   1 times, MxPair=       182
 NAB=    91 NAA=     0 NBB=     0.
 DE(Z)  -0.79220577D+00          E(Z)=    -0.25758474152D+03
 NORM(A)=   0.11244365D+01
 Iteration Nr.  11
 **********************
 DD1Dir will call FoFMem   1 times, MxPair=       182
 NAB=    91 NAA=     0 NBB=     0.
 DE(Z)  -0.79220577D+00          E(Z)=    -0.25758474152D+03
 NORM(A)=   0.11244365D+01
 Discarding MO integrals.
          IDoAtm=1111111
          Differentiating once with respect to electric field.
                with respect to dipole field.
          Differentiating once with respect to nuclear coordinates.
 Keep R1 ints in memory in symmetry-blocked form, NReq=60207810.
          There are     1 degrees of freedom in the 1st order CPHF.  IDoFFX=0 NUNeed=     1.
 LinEq1:  Iter=  0 NonCon=     1 RMS=3.48D-03 Max=3.33D-02 NDo=     1
 AX will form     1 AO Fock derivatives at one time.
 LinEq1:  Iter=  1 NonCon=     1 RMS=7.52D-04 Max=1.13D-02 NDo=     1
 LinEq1:  Iter=  2 NonCon=     1 RMS=3.39D-04 Max=7.33D-03 NDo=     1
 LinEq1:  Iter=  3 NonCon=     1 RMS=1.04D-04 Max=1.24D-03 NDo=     1
 LinEq1:  Iter=  4 NonCon=     1 RMS=4.33D-05 Max=5.95D-04 NDo=     1
 LinEq1:  Iter=  5 NonCon=     1 RMS=1.22D-05 Max=1.16D-04 NDo=     1
 LinEq1:  Iter=  6 NonCon=     1 RMS=4.42D-06 Max=8.16D-05 NDo=     1
 LinEq1:  Iter=  7 NonCon=     1 RMS=2.20D-06 Max=5.77D-05 NDo=     1
 LinEq1:  Iter=  8 NonCon=     1 RMS=7.42D-07 Max=8.92D-06 NDo=     1
 LinEq1:  Iter=  9 NonCon=     1 RMS=4.11D-07 Max=6.55D-06 NDo=     1
 LinEq1:  Iter= 10 NonCon=     1 RMS=8.90D-08 Max=7.50D-07 NDo=     1
 LinEq1:  Iter= 11 NonCon=     1 RMS=2.28D-08 Max=2.87D-07 NDo=     1
 LinEq1:  Iter= 12 NonCon=     1 RMS=1.16D-08 Max=1.20D-07 NDo=     1
 LinEq1:  Iter= 13 NonCon=     1 RMS=3.17D-09 Max=3.10D-08 NDo=     1
 LinEq1:  Iter= 14 NonCon=     1 RMS=5.58D-10 Max=4.72D-09 NDo=     1
 LinEq1:  Iter= 15 NonCon=     1 RMS=1.07D-10 Max=8.96D-10 NDo=     1
 LinEq1:  Iter= 16 NonCon=     0 RMS=1.80D-11 Max=1.15D-10 NDo=     1
 Linear equations converged to 1.000D-10 1.000D-09 after    16 iterations.
 End of Minotr F.D. properties file   721 does not exist.
 End of Minotr F.D. properties file   722 does not exist.
 End of Minotr F.D. properties file   788 does not exist.
 Calling FoFJK, ICntrl=  10002127 FMM=F ISym2X=1 I1Cent= 0 IOpClX= 0 NMat=1 NMatS=1 NMatT=0.
 ***** Axes restored to original set *****
 -------------------------------------------------------------------
 Center     Atomic                   Forces (Hartrees/Bohr)
 Number     Number              X              Y              Z
 -------------------------------------------------------------------
      1        6          -0.001533654   -0.001838491    0.000000000
      2        7           0.000941167   -0.001523572    0.000000000
      3        7           0.003497217   -0.000788149    0.000000000
      4        7          -0.001564757    0.004342628    0.000000000
      5        7          -0.001327181   -0.000056437    0.000000000
      6        1          -0.000262267   -0.000188024    0.000000000
      7        1           0.000249476    0.000052045    0.000000000
 -------------------------------------------------------------------
 Cartesian Forces:  Max     0.004342628 RMS     0.001464362
 -----------------------------------------------------------------------------------------------
                       Internal Coordinate Forces (Hartree/Bohr or radian)
  Cent   Atom   N1       Length/X         N2         Alpha/Y        N3         Beta/Z          J
 -----------------------------------------------------------------------------------------------
         X 
         X        1   0.000000(     1)
      1  C        1  -0.001687(     2)      2   0.000000(     9)
      2  N        1   0.001504(     3)      2   0.000000(    10)      3  -0.001647(    16)     0
      3  N        1  -0.001699(     4)      2   0.000000(    11)      3  -0.008316(    17)     0
      4  N        1   0.002581(     5)      2   0.000000(    12)      3   0.008387(    18)     0
      5  N        1  -0.000165(     6)      2   0.000000(    13)      3  -0.002360(    19)     0
      6  H        3  -0.000285(     7)      4  -0.000313(    14)      5   0.000000(    20)     0
      7  H        4   0.000044(     8)      5   0.000480(    15)      6   0.000000(    21)     0
 -----------------------------------------------------------------------------------------------
 Internal  Forces:  Max     0.008386542 RMS     0.002784838

 GradGradGradGradGradGradGradGradGradGradGradGradGradGradGradGradGradGrad
 Berny optimization.
 Search for a local minimum.
 Step number   3 out of a maximum of   22
 All quantities printed in internal units (Hartrees-Bohrs-Radians)
 Update second derivatives using D2CorN and points    1    2    3
 DE= -7.46D-05 DEPred=-1.03D-04 R= 7.27D-01
 TightC=F SS=  1.41D+00  RLast= 3.34D-02 DXNew= 6.7777D-01 1.0024D-01
 Trust test= 7.27D-01 RLast= 3.34D-02 DXMaxT set to 4.03D-01
 The second derivative matrix:
                          rn1       rn2       rn3       rn4       rch
           rn1          0.66505
           rn2         -0.00013   0.69465
           rn3          0.04569   0.00969   0.55180
           rn4          0.05090   0.00632   0.14200   0.63616
           rch          0.00886  -0.00361   0.00116   0.00064   0.37878
           rnh          0.00656  -0.00776  -0.00273   0.00068   0.00267
           an1          0.02746  -0.72165   0.05836  -0.08365   0.00621
           an2          0.74600  -0.15618  -0.63118   0.05873   0.02505
           an3         -0.03321   0.89021   0.00390  -0.58121  -0.01897
           an4          0.04694  -0.01120   0.65946  -0.11522  -0.00733
           ach          0.04305   0.00647  -0.00209   0.04958   0.00000
           anh         -0.09672   0.04242   0.00951   0.00195  -0.00057
                          rnh       an1       an2       an3       an4
           rnh          0.48894
           an1          0.00607   4.53655
           an2          0.02713  -2.67536   5.98209
           an3         -0.01967  -0.04920  -3.21216   4.55375
           an4         -0.00422  -0.13216  -0.10783  -1.14334   2.58085
           ach         -0.00011  -0.10335   0.00605  -0.00932   0.07553
           anh          0.00035   0.02924  -0.12040   0.03362  -0.00708
                          ach       anh
           ach          0.32071
           anh         -0.00168   0.32338
 ITU=  1  1  0
     Eigenvalues ---   -0.00571   0.14590   0.29610   0.32985   0.37861
     Eigenvalues ---    0.43959   0.48884   0.75292   1.20725   2.98617
     Eigenvalues ---    5.07931   9.61388
 RFO step:  Lambda=-5.74379581D-03 EMin=-5.70682603D-03
 I=     1 Eig=   -5.71D-03 Dot1=  2.75D-04
 I=     1 Stepn=  6.00D-01 RXN=   6.00D-01 EDone=F
 Mixed    1 eigenvectors in step.  Raw Step.Grad=  2.75D-04.
 RFO eigenvector is Hessian eigenvector with negative curvature.
 Taking step of  6.00D-01 in eigenvector direction(s).  Step.Grad=  2.95D-04.
 Quartic linear search produced a step of -0.23506.
 Maximum step size (   0.403) exceeded in Quadratic search.
    -- Step size scaled by   0.672
 Variable       Old X    -DE/DX   Delta X   Delta X   Delta X     New X
                                 (Linear)    (Quad)   (Total)
   rn1        2.37659   0.00150   0.00038   0.19963   0.20001   2.57660
[...]
         X 
         X        1   0.000000(     1)
      1  C        1  -0.001329(     2)      2   0.000000(     9)
      2  N        1  -0.000344(     3)      2   0.000000(    10)      3   0.000553(    16)     0
      3  N        1  -0.000005(     4)      2   0.000000(    11)      3  -0.002375(    17)     0
      4  N        1  -0.001350(     5)      2   0.000000(    12)      3   0.002273(    18)     0
      5  N        1  -0.000165(     6)      2   0.000000(    13)      3  -0.000954(    19)     0
      6  H        3  -0.000007(     7)      4   0.000119(    14)      5   0.000000(    20)     0
      7  H        4   0.000012(     8)      5  -0.000066(    15)      6   0.000000(    21)     0
 -----------------------------------------------------------------------------------------------
 Internal  Forces:  Max     0.002374655 RMS     0.000866654

 GradGradGradGradGradGradGradGradGradGradGradGradGradGradGradGradGradGrad
 Berny optimization.
 Search for a local minimum.
 Step number   5 out of a maximum of   22
 All quantities printed in internal units (Hartrees-Bohrs-Radians)
 Update second derivatives using D2CorN and points    1    2    4    3    5

 DE= -3.04D-05 DEPred=-1.56D-04 R= 1.95D-01
 Trust test= 1.95D-01 RLast= 9.01D-02 DXMaxT set to 4.03D-01
 The second derivative matrix:
                          rn1       rn2       rn3       rn4       rch
           rn1          0.69298
           rn2         -0.01354   0.67071
           rn3          0.07725   0.01519   0.56287
           rn4          0.04449   0.02084   0.13236   0.63842
           rch          0.01006  -0.00441   0.00714   0.00228   0.37918
           rnh          0.01055  -0.00851   0.00239   0.00085   0.00346
           an1          0.01943  -0.70971   0.05099  -0.08292   0.00632
           an2          0.68389  -0.12648  -0.64051   0.08290   0.02043
           an3          0.00254   0.88551  -0.00920  -0.58997  -0.01076
           an4          0.03253   0.00466   0.64265  -0.12091  -0.01106
           ach          0.04011   0.00706  -0.00495   0.05062  -0.00003
           anh         -0.09359   0.04108   0.01449   0.00027  -0.00133
                          rnh       an1       an2       an3       an4
           rnh          0.48995
           an1          0.00552   4.53879
           an2          0.02296  -2.65650   6.03246
           an3         -0.01550  -0.06134  -3.20364   4.53132
           an4         -0.00802  -0.13147  -0.09222  -1.15825   2.58362
           ach         -0.00043  -0.10188   0.01400  -0.01488   0.07822
           anh          0.00041   0.02618  -0.13858   0.04903  -0.01219
                          ach       anh
           ach          0.32101
           anh         -0.00203   0.32356
 ITU=  0  0  1  1  0
     Eigenvalues ---   -0.00076   0.15019   0.30191   0.33453   0.37907
     Eigenvalues ---    0.45446   0.49083   0.77413   1.20627   2.98483
     Eigenvalues ---    5.07823   9.61119
 RFO step:  Lambda=-7.66875178D-04 EMin=-7.60428936D-04
 I=     1 Eig=   -7.60D-04 Dot1= -4.19D-05
 I=     1 Stepn= -6.00D-01 RXN=   6.00D-01 EDone=F
 Mixed    1 eigenvectors in step.  Raw Step.Grad=  4.19D-05.
 RFO eigenvector is Hessian eigenvector with negative curvature.
 Taking step of  6.00D-01 in eigenvector direction(s).  Step.Grad=  6.15D-05.
 Quartic linear search produced a step of  0.04465.
 Maximum step size (   0.403) exceeded in Quadratic search.
    -- Step size scaled by   0.672
 Variable       Old X    -DE/DX   Delta X   Delta X   Delta X     New X
                                 (Linear)    (Quad)   (Total)
   rn1        2.42012  -0.00034   0.00194   0.17888   0.18083   2.60095
   rn2        2.64291  -0.00001   0.00116   0.14731   0.14847   2.79139
   rn3        2.18585  -0.00135  -0.00025  -0.05229  -0.05254   2.13332
   rn4        1.74835  -0.00017  -0.00187  -0.18470  -0.18657   1.56178
   rch        2.05213  -0.00001  -0.00003   0.00068   0.00065   2.05277
   rnh        1.91031   0.00001   0.00000  -0.00005  -0.00005   1.91026
   an1        1.24862   0.00055  -0.00086  -0.07541  -0.07627   1.17234
   an2        2.29994  -0.00237  -0.00159  -0.15334  -0.15493   2.14502
   an3        3.34886   0.00227  -0.00180  -0.18561  -0.18741   3.16145
   an4        4.77222  -0.00095  -0.00099  -0.09061  -0.09160   4.68062
   ach        2.17960   0.00012  -0.00008  -0.00103  -0.00111   2.17849
   anh        2.10167  -0.00007   0.00012   0.00067   0.00079   2.10247
         Item               Value     Threshold  Converged?
 Maximum Force            0.002375     0.000450     NO 
 RMS     Force            0.001080     0.000300     NO 
 Maximum Displacement     0.187408     0.001800     NO 
 RMS     Displacement     0.117490     0.001200     NO 
 Predicted change in Energy=-8.876677D-05
 GradGradGradGradGradGradGradGradGradGradGradGradGradGradGradGradGradGrad

 ---------------------------------------------------------------------------------------------------
                            Z-MATRIX (ANGSTROMS AND DEGREES)
   CD    Cent   Atom    N1       Length/X        N2       Alpha/Y        N3        Beta/Z          J
 ---------------------------------------------------------------------------------------------------
      1         X 
      2         X        1   1.000000(     1)
      3      1  C        1   1.000000(     2)      2   90.000(     9)
      4      2  N        1   1.376362(     3)      2   90.000(    10)      3   67.170(    16)      0
      5      3  N        1   1.477137(     4)      2   90.000(    11)      3  122.901(    17)      0
      6      4  N        1   1.128902(     5)      2   90.000(    12)      3  181.138(    18)      0
      7      5  N        1   0.826456(     6)      2   90.000(    13)      3  268.180(    19)      0
      8      6  H        3   1.086281(     7)      4  124.818(    14)      5  180.000(    20)      0
      9      7  H        4   1.010869(     8)      5  120.462(    15)      6  180.000(    21)      0
 ---------------------------------------------------------------------------------------------------
                         Z-Matrix orientation:                         
 ---------------------------------------------------------------------
 Center     Atomic      Atomic             Coordinates (Angstroms)
 Number     Number       Type             X           Y           Z
 ---------------------------------------------------------------------
      1         -1           0        0.000000    0.000000    0.000000
      2         -1           0        0.000000    0.000000    1.000000
      3          6           0        1.000000    0.000000    0.000000
      4          7           0        0.534020   -1.268540    0.000000
      5          7           0       -0.802354   -1.240227    0.000000
      6          7           0       -1.128680    0.022417    0.000000
      7          7           0       -0.026247    0.826039    0.000000
      8          1           0        2.050973    0.274705    0.000000
      9          1           0        1.027931   -2.150531    0.000000
 ---------------------------------------------------------------------
                    Distance matrix (angstroms):
                    1          2          3          4          5
     1  X    0.000000
     2  X    1.000000   0.000000
     3  C    1.000000   1.414214   0.000000
     4  N    1.376362   1.701285   1.351419   0.000000
     5  N    1.477137   1.783798   2.187840   1.336674   0.000000
     6  N    1.128902   1.508118   2.128798   2.105027   1.304131
     7  N    0.826456   1.297316   1.317393   2.168216   2.207215
     8  H    2.069288   2.298250   1.086281   2.163967   3.230556
     9  H    2.383574   2.584845   2.150712   1.010869   2.044162
                    6          7          8          9
     6  N    0.000000
     7  N    1.364245   0.000000
     8  H    3.189645   2.149142   0.000000
     9  H    3.061482   3.157730   2.632182   0.000000
 Stoichiometry    CH2N4
 Framework group  CS[SG(CH2N4)]
 Deg. of freedom    11
 Full point group                 CS      NOp   2
 Largest Abelian subgroup         CS      NOp   2
 Largest concise Abelian subgroup C1      NOp   1
                         Standard orientation:                         
 ---------------------------------------------------------------------
 Center     Atomic      Atomic             Coordinates (Angstroms)
 Number     Number       Type             X           Y           Z
 ---------------------------------------------------------------------
      1          6           0        1.067526    0.225125    0.000000
      2          7           0        0.000000    1.053811    0.000000
      3          7           0       -1.118192    0.321456    0.000000
      4          7           0       -0.725640   -0.922192    0.000000
      5          7           0        0.635146   -1.019291    0.000000
      6          1           0        2.104323    0.549253    0.000000
      7          1           0       -0.048679    2.063507    0.000000
 ---------------------------------------------------------------------
 Rotational constants (GHZ):     10.5882122     10.2212029      5.2007356
 Standard basis: Aug-CC-pVDZ (5D, 7F)
 There are   104 symmetry adapted cartesian basis functions of A'  symmetry.
 There are    39 symmetry adapted cartesian basis functions of A"  symmetry.
 There are    94 symmetry adapted basis functions of A'  symmetry.
 There are    39 symmetry adapted basis functions of A"  symmetry.
   133 basis functions,   237 primitive gaussians,   143 cartesian basis functions
    18 alpha electrons       18 beta electrons
       nuclear repulsion energy       166.4315272071 Hartrees.
 NAtoms=    7 NActive=    7 NUniq=    7 SFac= 1.00D+00 NAtFMM=   60 NAOKFM=F Big=F
 Integral buffers will be    131072 words long.
 Raffenetti 1 integral format.
 Two-electron integral symmetry is turned on.
 One-electron integrals computed using PRISM.
 NBasis=   133 RedAO= T EigKep=  1.37D-04  NBF=    94    39
 NBsUse=   133 1.00D-06 EigRej= -1.00D+00 NBFU=    94    39
 Initial guess from the checkpoint file:  "/tmp/rdj3/g09-11838/Gau-11894.chk"
 B after Tr=     0.000000    0.000000    0.000000
         Rot=    0.999997    0.000000    0.000000    0.002444 Ang=   0.28 deg.
 Initial guess orbital symmetries:
       Occupied  (A') (A') (A') (A') (A') (A') (A') (A') (A') (A')
                 (A') (A') (A") (A') (A') (A') (A") (A")
       Virtual   (A') (A') (A') (A') (A') (A') (A') (A') (A') (A')
                 (A') (A') (A') (A') (A') (A') (A') (A') (A') (A')
                 (A') (A') (A') (A') (A') (A') (A') (A') (A') (A')
                 (A') (A') (A') (A') (A') (A') (A') (A') (A') (A')
                 (A') (A') (A') (A') (A') (A') (A') (A') (A') (A')
                 (A') (A') (A') (A') (A') (A') (A') (A') (A') (A')
                 (A') (A') (A') (A') (A') (A') (A') (A') (A') (A')
                 (A') (A') (A') (A') (A') (A') (A') (A') (A') (A")
                 (A") (A") (A") (A") (A") (A") (A") (A") (A") (A")
                 (A") (A") (A") (A") (A") (A") (A") (A") (A") (A")
                 (A") (A") (A") (A") (A") (A") (A") (A") (A") (A")
                 (A") (A") (A") (A") (A")
 ExpMin= 2.97D-02 ExpMax= 9.05D+03 ExpMxC= 3.09D+02 IAcc=3 IRadAn=         5 AccDes= 0.00D+00
 Harris functional with IExCor=  205 and IRadAn=       5 diagonalized for initial guess.
 HarFok:  IExCor=  205 AccDes= 0.00D+00 IRadAn=         5 IDoV= 1 UseB2=F ITyADJ=14
 ICtDFT=  3500011 ScaDFX=  1.000000  1.000000  1.000000  1.000000
 FoFCou: FMM=F IPFlag=           0 FMFlag=      100000 FMFlg1=           0
         NFxFlg=           0 DoJE=T BraDBF=F KetDBF=T FulRan=T
         wScrn=  0.000000 ICntrl=     500 IOpCl=  0 I1Cent=   200000004 NGrid=           0
         NMat0=    1 NMatS0=      1 NMatT0=    0 NMatD0=    1 NMtDS0=    0 NMtDT0=    0
 Petite list used in FoFCou.
 Keep R1 ints in memory in symmetry-blocked form, NReq=60288506.
 Requested convergence on RMS density matrix=1.00D-08 within 128 cycles.
 Requested convergence on MAX density matrix=1.00D-06.
 Requested convergence on             energy=1.00D-06.
 No special actions if energy rises.
 SCF Done:  E(RHF) =  -256.792513000     A.U. after   13 cycles
            NFock= 13  Conv=0.79D-08     -V/T= 2.0023
 ExpMin= 2.97D-02 ExpMax= 9.05D+03 ExpMxC= 3.09D+02 IAcc=3 IRadAn=         5 AccDes= 0.00D+00
 HarFok:  IExCor=  205 AccDes= 0.00D+00 IRadAn=         5 IDoV=-2 UseB2=F ITyADJ=14
 ICtDFT= 12500011 ScaDFX=  1.000000  1.000000  1.000000  1.000000
 Range of M.O.s used for correlation:     6   133
 NBasis=   133 NAE=    18 NBE=    18 NFC=     5 NFV=     0
 NROrb=    128 NOA=    13 NOB=    13 NVA=   115 NVB=   115

 **** Warning!!: The largest alpha MO coefficient is  0.29199936D+02

 Semi-Direct transformation.
 ModeAB=           2 MOrb=            13 LenV=     435426986
 LASXX=      6519262 LTotXX=     6519262 LenRXX=     6519262
 LTotAB=     6692444 MaxLAS=    17132544 LenRXY=    17132544
 NonZer=    17472000 LenScr=    26969600 LnRSAI=           0
 LnScr1=           0 LExtra=           0 Total=     50621406
 MaxDsk=          -1 SrtSym=           F ITran=            4
 JobTyp=0 Pass  1:  I=   1 to  13.
 (rs|ai) integrals will be sorted in core.
 Spin components of T(2) and E(2):
     alpha-alpha T2 =       0.4088195186D-01 E2=     -0.1144446932D+00
     alpha-beta  T2 =       0.2035173904D+00 E2=     -0.5930888504D+00
     beta-beta   T2 =       0.4088195186D-01 E2=     -0.1144446932D+00
 ANorm=    0.1133702472D+01
 E2 =    -0.8219782368D+00 EUMP2 =    -0.25761449123662D+03
 Keep R2 and R3 ints in memory in symmetry-blocked form, NReq=61458976.
 Iterations=  50 Convergence= 0.100D-07
 Iteration Nr.   1
 **********************
 DD1Dir will call FoFMem   1 times, MxPair=       182
 NAB=    91 NAA=     0 NBB=     0.
 MP4(R+Q)=  0.24269965D-01
 E3=        0.33142738D-02        EUMP3=      -0.25761117696D+03
 E4(DQ)=    0.45305859D-03        UMP4(DQ)=   -0.25761072390D+03
 DE(Corr)= -0.79439400     E(Corr)=     -257.58690700    
 NORM(A)=   0.11228037D+01
 Iteration Nr.   2
 **********************
 DD1Dir will call FoFMem   1 times, MxPair=       182
 NAB=    91 NAA=     0 NBB=     0.
 DE(Corr)= -0.81660511     E(CORR)=     -257.60911811     Delta=-2.22D-02
 NORM(A)=   0.11321849D+01
 Iteration Nr.   3
 **********************
 DD1Dir will call FoFMem   1 times, MxPair=       182
 NAB=    91 NAA=     0 NBB=     0.
 DE(Corr)= -0.81754900     E(CORR)=     -257.61006200     Delta=-9.44D-04
 NORM(A)=   0.11330452D+01
 Iteration Nr.   4
 **********************
 DD1Dir will call FoFMem   1 times, MxPair=       182
 NAB=    91 NAA=     0 NBB=     0.
 DE(Corr)= -0.81886191     E(CORR)=     -257.61137491     Delta=-1.31D-03
 NORM(A)=   0.11334169D+01
 Iteration Nr.   5
 **********************
 DD1Dir will call FoFMem   1 times, MxPair=       182
 NAB=    91 NAA=     0 NBB=     0.
 DE(Corr)= -0.81896443     E(CORR)=     -257.61147743     Delta=-1.03D-04
 NORM(A)=   0.11334825D+01
 Iteration Nr.   6
 **********************
 DD1Dir will call FoFMem   1 times, MxPair=       182
 NAB=    91 NAA=     0 NBB=     0.
 DE(Corr)= -0.81897331     E(CORR)=     -257.61148630     Delta=-8.88D-06
 NORM(A)=   0.11334815D+01
 Iteration Nr.   7
 **********************
 DD1Dir will call FoFMem   1 times, MxPair=       182
 NAB=    91 NAA=     0 NBB=     0.
 DE(Corr)= -0.81897463     E(CORR)=     -257.61148763     Delta=-1.33D-06
 NORM(A)=   0.11334831D+01
 Iteration Nr.   8
 **********************
 DD1Dir will call FoFMem   1 times, MxPair=       182
 NAB=    91 NAA=     0 NBB=     0.
 DE(Corr)= -0.81897356     E(CORR)=     -257.61148656     Delta= 1.07D-06
 NORM(A)=   0.11334841D+01
 Iteration Nr.   9
 **********************
 DD1Dir will call FoFMem   1 times, MxPair=       182
 NAB=    91 NAA=     0 NBB=     0.
 DE(Corr)= -0.81897364     E(CORR)=     -257.61148664     Delta=-7.36D-08
 NORM(A)=   0.11334843D+01
 Iteration Nr.  10
 **********************
 DD1Dir will call FoFMem   1 times, MxPair=       182
 NAB=    91 NAA=     0 NBB=     0.
 DE(Corr)= -0.81897383     E(CORR)=     -257.61148683     Delta=-1.97D-07
 NORM(A)=   0.11334846D+01
 Iteration Nr.  11
 **********************
 DD1Dir will call FoFMem   1 times, MxPair=       182
 NAB=    91 NAA=     0 NBB=     0.
 DE(Corr)= -0.81897389     E(CORR)=     -257.61148689     Delta=-5.14D-08
 NORM(A)=   0.11334846D+01
 Iteration Nr.  12
 **********************
 DD1Dir will call FoFMem   1 times, MxPair=       182
 NAB=    91 NAA=     0 NBB=     0.
 DE(Corr)= -0.81897394     E(CORR)=     -257.61148694     Delta=-4.96D-08
 NORM(A)=   0.11334847D+01
 Iteration Nr.  13
 **********************
 DD1Dir will call FoFMem   1 times, MxPair=       182
 NAB=    91 NAA=     0 NBB=     0.
 DE(Corr)= -0.81897395     E(CORR)=     -257.61148695     Delta=-1.40D-08
 NORM(A)=   0.11334847D+01
 Iteration Nr.  14
 **********************
 DD1Dir will call FoFMem   1 times, MxPair=       182
 NAB=    91 NAA=     0 NBB=     0.
 DE(Corr)= -0.81897395     E(CORR)=     -257.61148695     Delta=-4.79D-09
 NORM(A)=   0.11334847D+01
 Largest amplitude= 6.58D-02

 Z-AMPLITUDE ITERATIONS

 Iteration Nr.   1
 **********************
 DD1Dir will call FoFMem   1 times, MxPair=       182
 NAB=    91 NAA=     0 NBB=     0.
 DE(Z)  -0.79120049D+00          E(Z)=    -0.25758371349D+03
 NORM(A)=   0.11335081D+01
 Iteration Nr.   2
 **********************
 DD1Dir will call FoFMem   1 times, MxPair=       182
 NAB=    91 NAA=     0 NBB=     0.
 DE(Z)  -0.79119830D+00          E(Z)=    -0.25758371130D+03
 NORM(A)=   0.11335245D+01
 Iteration Nr.   3
 **********************
 DD1Dir will call FoFMem   1 times, MxPair=       182
 NAB=    91 NAA=     0 NBB=     0.
 DE(Z)  -0.79119687D+00          E(Z)=    -0.25758370987D+03
 NORM(A)=   0.11334962D+01
 Iteration Nr.   4
 **********************
 DD1Dir will call FoFMem   1 times, MxPair=       182
 NAB=    91 NAA=     0 NBB=     0.
 DE(Z)  -0.79119945D+00          E(Z)=    -0.25758371245D+03
 NORM(A)=   0.11334875D+01
 Iteration Nr.   5
 **********************
 DD1Dir will call FoFMem   1 times, MxPair=       182
 NAB=    91 NAA=     0 NBB=     0.
 DE(Z)  -0.79120023D+00          E(Z)=    -0.25758371323D+03
 NORM(A)=   0.11242631D+01
 Iteration Nr.   6
 **********************
 DD1Dir will call FoFMem   1 times, MxPair=       182
 NAB=    91 NAA=     0 NBB=     0.
 DE(Z)  -0.79205408D+00          E(Z)=    -0.25758456708D+03
 NORM(A)=   0.11242546D+01
 Iteration Nr.   7
 **********************
 DD1Dir will call FoFMem   1 times, MxPair=       182
 NAB=    91 NAA=     0 NBB=     0.
 DE(Z)  -0.79205511D+00          E(Z)=    -0.25758456811D+03
 NORM(A)=   0.11242533D+01
 Iteration Nr.   8
 **********************
 DD1Dir will call FoFMem   1 times, MxPair=       182
 NAB=    91 NAA=     0 NBB=     0.
 DE(Z)  -0.79205562D+00          E(Z)=    -0.25758456862D+03
 NORM(A)=   0.11242532D+01
 Iteration Nr.   9
 **********************
 DD1Dir will call FoFMem   1 times, MxPair=       182
 NAB=    91 NAA=     0 NBB=     0.
 DE(Z)  -0.79205556D+00          E(Z)=    -0.25758456856D+03
 NORM(A)=   0.11242531D+01
 Iteration Nr.  10
 **********************
 DD1Dir will call FoFMem   1 times, MxPair=       182
 NAB=    91 NAA=     0 NBB=     0.
 DE(Z)  -0.79205556D+00          E(Z)=    -0.25758456856D+03
 NORM(A)=   0.11242531D+01
 Iteration Nr.  11
 **********************
 DD1Dir will call FoFMem   1 times, MxPair=       182
 NAB=    91 NAA=     0 NBB=     0.
 DE(Z)  -0.79205556D+00          E(Z)=    -0.25758456856D+03
 NORM(A)=   0.11242531D+01
 Iteration Nr.  12
 **********************
 DD1Dir will call FoFMem   1 times, MxPair=       182
 NAB=    91 NAA=     0 NBB=     0.
 DE(Z)  -0.79205555D+00          E(Z)=    -0.25758456855D+03
 NORM(A)=   0.11242531D+01
 Iteration Nr.  13
 **********************
 DD1Dir will call FoFMem   1 times, MxPair=       182
 NAB=    91 NAA=     0 NBB=     0.
 DE(Z)  -0.79205555D+00          E(Z)=    -0.25758456855D+03
 NORM(A)=   0.11242531D+01
 Discarding MO integrals.
