 Entering Gaussian System, Link 0=g09
 Initial command:
 /usr/local/gaussian/g09.d01.em64t.legacy.linda/g09/l1.exe "/tmp/rdj3/g09-31683/Gau-7573.inp" -scrdir="/tmp/rdj3/g09-31683/"
 Entering Link 1 = /usr/local/gaussian/g09.d01.em64t.legacy.linda/g09/l1.exe PID=      7574.
  
 Copyright (c) 1988,1990,1992,1993,1995,1998,2003,2009,2013,
            Gaussian, Inc.  All Rights Reserved.
  
 This is part of the Gaussian(R) 09 program.  It is based on
 the Gaussian(R) 03 system (copyright 2003, Gaussian, Inc.),
 the Gaussian(R) 98 system (copyright 1998, Gaussian, Inc.),
 the Gaussian(R) 94 system (copyright 1995, Gaussian, Inc.),
 the Gaussian 92(TM) system (copyright 1992, Gaussian, Inc.),
 the Gaussian 90(TM) system (copyright 1990, Gaussian, Inc.),
 the Gaussian 88(TM) system (copyright 1988, Gaussian, Inc.),
 the Gaussian 86(TM) system (copyright 1986, Carnegie Mellon
 University), and the Gaussian 82(TM) system (copyright 1983,
 Carnegie Mellon University). Gaussian is a federally registered
 trademark of Gaussian, Inc.
  
 This software contains proprietary and confidential information,
 including trade secrets, belonging to Gaussian, Inc.
  
 This software is provided under written license and may be
 used, copied, transmitted, or stored only in accord with that
 written license.
  
 The following legend is applicable only to US Government
 contracts under FAR:
  
                    RESTRICTED RIGHTS LEGEND
  
 Use, reproduction and disclosure by the US Government is
 subject to restrictions as set forth in subparagraphs (a)
 and (c) of the Commercial Computer Software - Restricted
 Rights clause in FAR 52.227-19.
  
 Gaussian, Inc.
 340 Quinnipiac St., Bldg. 40, Wallingford CT 06492
  
  
 ---------------------------------------------------------------
 Warning -- This program may not be used in any manner that
 competes with the business of Gaussian, Inc. or will provide
 assistance to any competitor of Gaussian, Inc.  The licensee
 of this program is prohibited from giving any competitor of
 Gaussian, Inc. access to this program.  By using this program,
 the user acknowledges that Gaussian, Inc. is engaged in the
 business of creating and licensing software in the field of
 computational chemistry and represents and warrants to the
 licensee that it is not a competitor of Gaussian, Inc. and that
 it will not use this program in any manner prohibited above.
 ---------------------------------------------------------------
  

 Cite this work as:
 Gaussian 09, Revision D.01,
 M. J. Frisch, G. W. Trucks, H. B. Schlegel, G. E. Scuseria, 
 M. A. Robb, J. R. Cheeseman, G. Scalmani, V. Barone, B. Mennucci, 
 G. A. Petersson, H. Nakatsuji, M. Caricato, X. Li, H. P. Hratchian, 
 A. F. Izmaylov, J. Bloino, G. Zheng, J. L. Sonnenberg, M. Hada, 
 M. Ehara, K. Toyota, R. Fukuda, J. Hasegawa, M. Ishida, T. Nakajima, 
 Y. Honda, O. Kitao, H. Nakai, T. Vreven, J. A. Montgomery, Jr., 
 J. E. Peralta, F. Ogliaro, M. Bearpark, J. J. Heyd, E. Brothers, 
 K. N. Kudin, V. N. Staroverov, T. Keith, R. Kobayashi, J. Normand, 
 K. Raghavachari, A. Rendell, J. C. Burant, S. S. Iyengar, J. Tomasi, 
 M. Cossi, N. Rega, J. M. Millam, M. Klene, J. E. Knox, J. B. Cross, 
 V. Bakken, C. Adamo, J. Jaramillo, R. Gomperts, R. E. Stratmann, 
 O. Yazyev, A. J. Austin, R. Cammi, C. Pomelli, J. W. Ochterski, 
 R. L. Martin, K. Morokuma, V. G. Zakrzewski, G. A. Voth, 
 P. Salvador, J. J. Dannenberg, S. Dapprich, A. D. Daniels, 
 O. Farkas, J. B. Foresman, J. V. Ortiz, J. Cioslowski, 
 and D. J. Fox, Gaussian, Inc., Wallingford CT, 2013.
 
 ******************************************
 Gaussian 09:  EM64L-G09RevD.01 24-Apr-2013
                 9-Dec-2013 
 ******************************************
 %Nproc=8
 Will use up to    8 processors via shared memory.
 %mem=436000000
 -------------------------------------------
 #CCD/6-31G(2df,p) opt=z-matrix freq density
 -------------------------------------------
 1/10=7,18=40,38=1/1,3;
 2/12=2,17=6,18=5,29=3,40=1/2;
 3/5=1,6=6,7=104,11=9,16=1,25=1,30=1,71=1/1,2,3;
 4//1;
 5/5=2,38=5/2;
 8/6=4,9=120000,10=2/1,4;
 9/5=6,15=1/13;
 11/28=-6,29=200,42=3/11;
 10/5=5/2;
 6/7=2,8=2,9=2,10=2,22=-1/1;
 7/12=7,29=1/1,2,3,16;
 1/10=7,18=40/3(2);
 2/29=3/2;
 99//99;
 2/29=3/2;
 3/5=1,6=6,7=104,11=9,16=1,25=1,30=1,71=1/1,2,3;
 4/5=5,16=3,69=1/1;
 5/5=2,38=5/2;
 8/6=4,9=120000,10=2/1,4;
 9/5=6,15=1/13;
 11/28=-6,29=200,42=3/11;
 10/5=5/2;
 7/12=7/1,2,3,16;
 1/18=40/3(-9);
 2/29=3/2;
 6/7=2,8=2,9=2,10=2,22=-1/1;
 99//99;
 ------------------------------------------------------------------
 1H-tetrazole CH2N4 casno=288948 state=1 config=1 method=6 basis=19
 ------------------------------------------------------------------
 Symbolic Z-matrix:
 Charge =  0 Multiplicity = 1
 X
 X                    1     1. 
 C                    1     1.       2     90. 
 N                    1    rn1      2     90.      3    an1      0
 N                    1    rn2      2     90.      3    an2      0
 N                    1    rn3      2     90.      3    an3      0
 N                    1    rn4      2     90.      3    an4      0
 H                    3    rch      4    ach      5     180.     0
 H                    4    rnh      5    anh      6     180.     0
       Variables:
  rn1                   1.2426                   
  rn2                   1.333                    
  rn3                   1.1146                   
  rn4                   0.9264                   
  rch                   1.0678                   
  rnh                   0.9941                   
  an1                  71.8427                   
  an2                 133.7028                   
  an3                 194.4597                   
  an4                 276.0768                   
  ach                 125.0248                   
  anh                 120.7626                   
 

 GradGradGradGradGradGradGradGradGradGradGradGradGradGradGradGradGradGrad
 Berny optimization.
 Initialization pass.
                       ----------------------------
                       !    Initial Parameters    !
                       ! (Angstroms and Degrees)  !
 ----------------------                            ----------------------
 !      Name          Value   Derivative information (Atomic Units)     !
 ------------------------------------------------------------------------
 !       rn1         1.2426   estimate D2E/DX2                          !
 !       rn2         1.333    estimate D2E/DX2                          !
 !       rn3         1.1146   estimate D2E/DX2                          !
 !       rn4         0.9264   estimate D2E/DX2                          !
 !       rch         1.0678   estimate D2E/DX2                          !
 !       rnh         0.9941   estimate D2E/DX2                          !
 !       an1        71.8427   estimate D2E/DX2                          !
 !       an2       133.7028   estimate D2E/DX2                          !
 !       an3       194.4597   estimate D2E/DX2                          !
 !       an4       276.0768   estimate D2E/DX2                          !
 !       ach       125.0248   estimate D2E/DX2                          !
 !       anh       120.7626   estimate D2E/DX2                          !
 ------------------------------------------------------------------------
 Trust Radius=3.00D-01 FncErr=1.00D-07 GrdErr=1.00D-07
 Number of steps in this run=     22 maximum allowed number of steps=    100.
 GradGradGradGradGradGradGradGradGradGradGradGradGradGradGradGradGradGrad

 ---------------------------------------------------------------------------------------------------
                            Z-MATRIX (ANGSTROMS AND DEGREES)
   CD    Cent   Atom    N1       Length/X        N2       Alpha/Y        N3        Beta/Z          J
 ---------------------------------------------------------------------------------------------------
      1         X 
      2         X        1   1.000000(     1)
      3      1  C        1   1.000000(     2)      2   90.000(     9)
      4      2  N        1   1.242600(     3)      2   90.000(    10)      3   71.843(    16)      0
      5      3  N        1   1.333000(     4)      2   90.000(    11)      3  133.703(    17)      0
      6      4  N        1   1.114600(     5)      2   90.000(    12)      3  194.460(    18)      0
      7      5  N        1   0.926400(     6)      2   90.000(    13)      3  276.077(    19)      0
      8      6  H        3   1.067800(     7)      4  125.025(    14)      5  180.000(    20)      0
      9      7  H        4   0.994100(     8)      5  120.763(    15)      6  180.000(    21)      0
 ---------------------------------------------------------------------------------------------------
                         Z-Matrix orientation:                         
 ---------------------------------------------------------------------
 Center     Atomic      Atomic             Coordinates (Angstroms)
 Number     Number       Type             X           Y           Z
 ---------------------------------------------------------------------
      1         -1           0        0.000000    0.000000    0.000000
      2         -1           0        0.000000    0.000000    1.000000
      3          6           0        1.000000    0.000000    0.000000
      4          7           0        0.387228   -1.180724    0.000000
      5          7           0       -0.920993   -0.963670    0.000000
      6          7           0       -1.079293    0.278314    0.000000
      7          7           0        0.098070    0.921194    0.000000
      8          1           0        2.058429    0.141157    0.000000
      9          1           0        0.749017   -2.106652    0.000000
 ---------------------------------------------------------------------
                    Distance matrix (angstroms):
                    1          2          3          4          5
     1  X    0.000000
     2  X    1.000000   0.000000
     3  C    1.000000   1.414214   0.000000
     4  N    1.242600   1.595009   1.330263   0.000000
     5  N    1.333000   1.666400   2.149157   1.326105   0.000000
     6  N    1.114600   1.497442   2.097837   2.068690   1.252032
     7  N    0.926400   1.363164   1.289216   2.121715   2.142710
     8  H    2.063263   2.292827   1.067800   2.130794   3.177672
     9  H    2.235847   2.449288   2.121551   0.994100   2.023695
                    6          7          8          9
     6  N    0.000000
     7  N    1.341447   0.000000
     8  H    3.140719   2.109850   0.000000
     9  H    3.005127   3.097029   2.601385   0.000000
 Stoichiometry    CH2N4
 Framework group  CS[SG(CH2N4)]
 Deg. of freedom    11
 Full point group                 CS      NOp   2
 Largest Abelian subgroup         CS      NOp   2
 Largest concise Abelian subgroup C1      NOp   1
                         Standard orientation:                         
 ---------------------------------------------------------------------
 Center     Atomic      Atomic             Coordinates (Angstroms)
 Number     Number       Type             X           Y           Z
 ---------------------------------------------------------------------
      1          6           0        1.052733    0.225621    0.000000
      2          7           0        0.000000    1.038857    0.000000
      3          7           0       -1.095416    0.291448    0.000000
      4          7           0       -0.716382   -0.901832    0.000000
      5          7           0        0.622191   -0.989579    0.000000
      6          1           0        2.072287    0.542964    0.000000
      7          1           0       -0.061439    2.031056    0.000000
 ---------------------------------------------------------------------
 Rotational constants (GHZ):     10.9201517     10.7345054      5.4132664
 Standard basis: 6-31G(2df,p) (6D, 7F)
 There are   113 symmetry adapted cartesian basis functions of A'  symmetry.
 There are    52 symmetry adapted cartesian basis functions of A"  symmetry.
 There are   103 symmetry adapted basis functions of A'  symmetry.
 There are    47 symmetry adapted basis functions of A"  symmetry.
   150 basis functions,   234 primitive gaussians,   165 cartesian basis functions
    18 alpha electrons       18 beta electrons
       nuclear repulsion energy       169.8308489506 Hartrees.
 NAtoms=    7 NActive=    7 NUniq=    7 SFac= 1.00D+00 NAtFMM=   60 NAOKFM=F Big=F
 Integral buffers will be    131072 words long.
 Raffenetti 1 integral format.
 Two-electron integral symmetry is turned on.
 One-electron integrals computed using PRISM.
 NBasis=   150 RedAO= T EigKep=  2.73D-04  NBF=   103    47
 NBsUse=   150 1.00D-06 EigRej= -1.00D+00 NBFU=   103    47
 ExpMin= 1.61D-01 ExpMax= 4.17D+03 ExpMxC= 6.27D+02 IAcc=1 IRadAn=         1 AccDes= 0.00D+00
 Harris functional with IExCor=  205 and IRadAn=       1 diagonalized for initial guess.
 HarFok:  IExCor=  205 AccDes= 0.00D+00 IRadAn=         1 IDoV= 1 UseB2=F ITyADJ=14
 ICtDFT=  3500011 ScaDFX=  1.000000  1.000000  1.000000  1.000000
 FoFCou: FMM=F IPFlag=           0 FMFlag=      100000 FMFlg1=           0
         NFxFlg=           0 DoJE=T BraDBF=F KetDBF=T FulRan=T
         wScrn=  0.000000 ICntrl=     500 IOpCl=  0 I1Cent=   200000004 NGrid=           0
         NMat0=    1 NMatS0=      1 NMatT0=    0 NMatD0=    1 NMtDS0=    0 NMtDT0=    0
 Petite list used in FoFCou.
 Initial guess orbital symmetries:
       Occupied  (A') (A') (A') (A') (A') (A') (A') (A') (A') (A')
                 (A') (A') (A") (A') (A") (A") (A') (A')
       Virtual   (A") (A") (A') (A') (A') (A') (A') (A') (A') (A')
                 (A") (A') (A') (A') (A') (A') (A") (A') (A") (A")
                 (A') (A') (A") (A") (A') (A') (A') (A") (A") (A')
                 (A') (A") (A") (A') (A') (A') (A') (A") (A") (A')
                 (A') (A') (A") (A') (A') (A") (A') (A') (A') (A")
                 (A') (A') (A') (A') (A') (A") (A') (A') (A") (A')
                 (A") (A') (A') (A") (A') (A") (A') (A") (A') (A')
                 (A') (A") (A') (A") (A') (A") (A') (A') (A') (A")
                 (A') (A') (A") (A') (A') (A") (A') (A') (A") (A")
                 (A") (A') (A') (A") (A") (A") (A') (A") (A") (A')
                 (A") (A') (A') (A") (A') (A") (A") (A') (A") (A')
                 (A") (A') (A') (A') (A') (A') (A') (A') (A") (A')
                 (A') (A') (A') (A') (A') (A') (A') (A') (A') (A')
                 (A') (A')
 The electronic state of the initial guess is 1-A'.
 Keep R1 ints in memory in symmetry-blocked form, NReq=97005431.
 Requested convergence on RMS density matrix=1.00D-08 within 128 cycles.
 Requested convergence on MAX density matrix=1.00D-06.
 Requested convergence on             energy=1.00D-06.
 No special actions if energy rises.
 SCF Done:  E(RHF) =  -256.781975392     A.U. after   14 cycles
            NFock= 14  Conv=0.89D-08     -V/T= 2.0006
 ExpMin= 1.61D-01 ExpMax= 4.17D+03 ExpMxC= 6.27D+02 IAcc=3 IRadAn=         5 AccDes= 0.00D+00
 HarFok:  IExCor=  205 AccDes= 0.00D+00 IRadAn=         5 IDoV=-2 UseB2=F ITyADJ=14
 ICtDFT= 12500011 ScaDFX=  1.000000  1.000000  1.000000  1.000000
 DSYEVD-2 returned Info=          57 IAlg= 4 N=    28 NDim=    28 NE2=    15569076 trying  DSYEV.
 DSYEVD-2 returned Info=          57 IAlg= 4 N=    28 NDim=    28 NE2=    15569076 trying  DSYEV.
 Range of M.O.s used for correlation:     6   150
 NBasis=   150 NAE=    18 NBE=    18 NFC=     5 NFV=     0
 NROrb=    145 NOA=    13 NOB=    13 NVA=   132 NVB=   132

 **** Warning!!: The largest alpha MO coefficient is  0.37963108D+02

 Semi-Direct transformation.
 ModeAB=           2 MOrb=            13 LenV=     435343924
 LASXX=      9493585 LTotXX=     9493585 LenRXX=     9493585
 LTotAB=     9713419 MaxLAS=    25815075 LenRXY=    25815075
 NonZer=    26640705 LenScr=    40734720 LnRSAI=           0
 LnScr1=           0 LExtra=           0 Total=     76043380
 MaxDsk=          -1 SrtSym=           F ITran=            4
 JobTyp=0 Pass  1:  I=   1 to  13.
 (rs|ai) integrals will be sorted in core.
 Spin components of T(2) and E(2):
     alpha-alpha T2 =       0.3931660715D-01 E2=     -0.1216265125D+00
     alpha-beta  T2 =       0.1992185361D+00 E2=     -0.6632187891D+00
     beta-beta   T2 =       0.3931660715D-01 E2=     -0.1216265125D+00
 ANorm=    0.1130421050D+01
 E2 =    -0.9064718141D+00 EUMP2 =    -0.25768844720572D+03
 Keep R2 and R3 ints in memory in symmetry-blocked form, NReq=98259593.
 Iterations=  50 Convergence= 0.100D-07
 Iteration Nr.   1
 **********************
 DD1Dir will call FoFMem   1 times, MxPair=       182
 NAB=    91 NAA=     0 NBB=     0.
 MP4(R+Q)=  0.27457048D-01
 E3=       -0.12662516D-02        EUMP3=      -0.25768971346D+03
 E4(DQ)=    0.47043581D-02        UMP4(DQ)=   -0.25768500910D+03
 DE(Corr)= -0.88028102     E(Corr)=     -257.66225641    
 NORM(A)=   0.11202920D+01
 Iteration Nr.   2
 **********************
 DD1Dir will call FoFMem   1 times, MxPair=       182
 NAB=    91 NAA=     0 NBB=     0.
 DE(Corr)= -0.90197058     E(CORR)=     -257.68394597     Delta=-2.17D-02
 NORM(A)=   0.11285467D+01
 Iteration Nr.   3
 **********************
 DD1Dir will call FoFMem   1 times, MxPair=       182
 NAB=    91 NAA=     0 NBB=     0.
 DE(Corr)= -0.90244419     E(CORR)=     -257.68441958     Delta=-4.74D-04
 NORM(A)=   0.11292416D+01
 Iteration Nr.   4
 **********************
 DD1Dir will call FoFMem   1 times, MxPair=       182
 NAB=    91 NAA=     0 NBB=     0.
 DE(Corr)= -0.90356752     E(CORR)=     -257.68554291     Delta=-1.12D-03
 NORM(A)=   0.11295377D+01
 Iteration Nr.   5
 **********************
 DD1Dir will call FoFMem   1 times, MxPair=       182
 NAB=    91 NAA=     0 NBB=     0.
 DE(Corr)= -0.90364537     E(CORR)=     -257.68562076     Delta=-7.78D-05
 NORM(A)=   0.11295870D+01
 Iteration Nr.   6
 **********************
 DD1Dir will call FoFMem   1 times, MxPair=       182
 NAB=    91 NAA=     0 NBB=     0.
 DE(Corr)= -0.90365113     E(CORR)=     -257.68562653     Delta=-5.76D-06
 NORM(A)=   0.11295850D+01
 Iteration Nr.   7
 **********************
 DD1Dir will call FoFMem   1 times, MxPair=       182
 NAB=    91 NAA=     0 NBB=     0.
 DE(Corr)= -0.90365209     E(CORR)=     -257.68562748     Delta=-9.54D-07
 NORM(A)=   0.11295860D+01
 Iteration Nr.   8
 **********************
 DD1Dir will call FoFMem   1 times, MxPair=       182
 NAB=    91 NAA=     0 NBB=     0.
 DE(Corr)= -0.90365135     E(CORR)=     -257.68562674     Delta= 7.41D-07
 NORM(A)=   0.11295865D+01
 Iteration Nr.   9
 **********************
 DD1Dir will call FoFMem   1 times, MxPair=       182
 NAB=    91 NAA=     0 NBB=     0.
 DE(Corr)= -0.90365149     E(CORR)=     -257.68562688     Delta=-1.42D-07
 NORM(A)=   0.11295867D+01
 Iteration Nr.  10
 **********************
 DD1Dir will call FoFMem   1 times, MxPair=       182
 NAB=    91 NAA=     0 NBB=     0.
 DE(Corr)= -0.90365158     E(CORR)=     -257.68562697     Delta=-9.32D-08
 NORM(A)=   0.11295868D+01
 Iteration Nr.  11
 **********************
 DD1Dir will call FoFMem   1 times, MxPair=       182
 NAB=    91 NAA=     0 NBB=     0.
 DE(Corr)= -0.90365162     E(CORR)=     -257.68562701     Delta=-4.16D-08
 NORM(A)=   0.11295869D+01
 Iteration Nr.  12
 **********************
 DD1Dir will call FoFMem   1 times, MxPair=       182
 NAB=    91 NAA=     0 NBB=     0.
 DE(Corr)= -0.90365165     E(CORR)=     -257.68562704     Delta=-2.80D-08
 NORM(A)=   0.11295869D+01
 Iteration Nr.  13
 **********************
 DD1Dir will call FoFMem   1 times, MxPair=       182
 NAB=    91 NAA=     0 NBB=     0.
 DE(Corr)= -0.90365166     E(CORR)=     -257.68562705     Delta=-6.54D-09
 NORM(A)=   0.11295869D+01
 Largest amplitude= 6.84D-02

 Z-AMPLITUDE ITERATIONS

 Iteration Nr.   1
 **********************
 DD1Dir will call FoFMem   1 times, MxPair=       182
 NAB=    91 NAA=     0 NBB=     0.
 DE(Z)  -0.87352069D+00          E(Z)=    -0.25765549608D+03
 NORM(A)=   0.11296506D+01
 Iteration Nr.   2
 **********************
 DD1Dir will call FoFMem   1 times, MxPair=       182
 NAB=    91 NAA=     0 NBB=     0.
 DE(Z)  -0.87351444D+00          E(Z)=    -0.25765548984D+03
 NORM(A)=   0.11295669D+01
 Iteration Nr.   3
 **********************
 DD1Dir will call FoFMem   1 times, MxPair=       182
 NAB=    91 NAA=     0 NBB=     0.
 DE(Z)  -0.87352262D+00          E(Z)=    -0.25765549801D+03
 NORM(A)=   0.11295916D+01
 Iteration Nr.   4
 **********************
 DD1Dir will call FoFMem   1 times, MxPair=       182
 NAB=    91 NAA=     0 NBB=     0.
 DE(Z)  -0.87352024D+00          E(Z)=    -0.25765549563D+03
 NORM(A)=   0.11295762D+01
 Iteration Nr.   5
 **********************
 DD1Dir will call FoFMem   1 times, MxPair=       182
 NAB=    91 NAA=     0 NBB=     0.
 DE(Z)  -0.87352171D+00          E(Z)=    -0.25765549711D+03
 NORM(A)=   0.11209474D+01
 Iteration Nr.   6
 **********************
 DD1Dir will call FoFMem   1 times, MxPair=       182
 NAB=    91 NAA=     0 NBB=     0.
 DE(Z)  -0.87436687D+00          E(Z)=    -0.25765634226D+03
 NORM(A)=   0.11209478D+01
 Iteration Nr.   7
 **********************
 DD1Dir will call FoFMem   1 times, MxPair=       182
 NAB=    91 NAA=     0 NBB=     0.
 DE(Z)  -0.87436669D+00          E(Z)=    -0.25765634208D+03
 NORM(A)=   0.11209476D+01
 Iteration Nr.   8
 **********************
 DD1Dir will call FoFMem   1 times, MxPair=       182
 NAB=    91 NAA=     0 NBB=     0.
 DE(Z)  -0.87436666D+00          E(Z)=    -0.25765634206D+03
 NORM(A)=   0.11209476D+01
 Iteration Nr.   9
 **********************
 DD1Dir will call FoFMem   1 times, MxPair=       182
 NAB=    91 NAA=     0 NBB=     0.
 DE(Z)  -0.87436665D+00          E(Z)=    -0.25765634205D+03
 NORM(A)=   0.11209476D+01
 Iteration Nr.  10
 **********************
 DD1Dir will call FoFMem   1 times, MxPair=       182
 NAB=    91 NAA=     0 NBB=     0.
 DE(Z)  -0.87436665D+00          E(Z)=    -0.25765634204D+03
 NORM(A)=   0.11209476D+01
 Iteration Nr.  11
 **********************
 DD1Dir will call FoFMem   1 times, MxPair=       182
 NAB=    91 NAA=     0 NBB=     0.
 DE(Z)  -0.87436665D+00          E(Z)=    -0.25765634204D+03
 NORM(A)=   0.11209476D+01
 Discarding MO integrals.
          IDoAtm=1111111
          Differentiating once with respect to electric field.
                with respect to dipole field.
          Differentiating once with respect to nuclear coordinates.
 Keep R1 ints in memory in symmetry-blocked form, NReq=96904184.
          There are     1 degrees of freedom in the 1st order CPHF.  IDoFFX=0 NUNeed=     1.
 LinEq1:  Iter=  0 NonCon=     1 RMS=3.05D-03 Max=3.48D-02 NDo=     1
 AX will form     1 AO Fock derivatives at one time.
 LinEq1:  Iter=  1 NonCon=     1 RMS=8.54D-04 Max=1.35D-02 NDo=     1
 LinEq1:  Iter=  2 NonCon=     1 RMS=2.79D-04 Max=6.51D-03 NDo=     1
 LinEq1:  Iter=  3 NonCon=     1 RMS=8.51D-05 Max=1.63D-03 NDo=     1
 LinEq1:  Iter=  4 NonCon=     1 RMS=3.46D-05 Max=8.68D-04 NDo=     1
 LinEq1:  Iter=  5 NonCon=     1 RMS=1.20D-05 Max=1.98D-04 NDo=     1
 LinEq1:  Iter=  6 NonCon=     1 RMS=3.90D-06 Max=6.39D-05 NDo=     1
 LinEq1:  Iter=  7 NonCon=     1 RMS=2.17D-06 Max=5.45D-05 NDo=     1
 LinEq1:  Iter=  8 NonCon=     1 RMS=4.46D-07 Max=6.83D-06 NDo=     1
 LinEq1:  Iter=  9 NonCon=     1 RMS=1.31D-07 Max=2.19D-06 NDo=     1
 LinEq1:  Iter= 10 NonCon=     1 RMS=4.50D-08 Max=3.96D-07 NDo=     1
 LinEq1:  Iter= 11 NonCon=     1 RMS=1.12D-08 Max=1.51D-07 NDo=     1
 LinEq1:  Iter= 12 NonCon=     1 RMS=2.47D-09 Max=3.12D-08 NDo=     1
 LinEq1:  Iter= 13 NonCon=     1 RMS=7.75D-10 Max=1.25D-08 NDo=     1
 LinEq1:  Iter= 14 NonCon=     1 RMS=3.08D-10 Max=4.79D-09 NDo=     1
 LinEq1:  Iter= 15 NonCon=     1 RMS=6.07D-11 Max=1.04D-09 NDo=     1
 LinEq1:  Iter= 16 NonCon=     0 RMS=1.01D-11 Max=1.24D-10 NDo=     1
 Linear equations converged to 1.000D-10 1.000D-09 after    16 iterations.
 End of Minotr F.D. properties file   721 does not exist.
 End of Minotr F.D. properties file   722 does not exist.
 End of Minotr F.D. properties file   788 does not exist.

 **********************************************************************

            Population analysis using the QCI/CC density.

 **********************************************************************

 Orbital symmetries:
       Occupied  (A') (A') (A') (A') (A') (A') (A') (A') (A') (A')
                 (A') (A") (A') (A') (A') (A') (A") (A")
       Virtual   (A") (A') (A") (A') (A') (A') (A') (A') (A') (A")
                 (A') (A') (A') (A') (A') (A") (A') (A') (A") (A")
                 (A') (A') (A') (A") (A") (A') (A") (A') (A") (A')
                 (A') (A") (A") (A') (A') (A') (A') (A") (A") (A')
                 (A') (A") (A') (A") (A') (A') (A') (A') (A") (A')
                 (A') (A') (A') (A') (A') (A") (A') (A') (A") (A')
                 (A') (A") (A') (A") (A') (A") (A') (A") (A') (A')
                 (A") (A') (A') (A") (A') (A") (A') (A') (A") (A')
                 (A') (A') (A") (A') (A') (A") (A') (A') (A") (A")
                 (A") (A') (A') (A") (A") (A") (A') (A") (A") (A')
                 (A") (A') (A") (A') (A') (A") (A") (A') (A") (A')
                 (A") (A') (A') (A') (A') (A') (A') (A') (A") (A')
                 (A') (A') (A') (A') (A') (A') (A') (A') (A') (A')
                 (A') (A')
 The electronic state is 1-A'.
 Alpha  occ. eigenvalues --  -15.67694 -15.65533 -15.63717 -15.59501 -11.33098
 Alpha  occ. eigenvalues --   -1.51418  -1.26068  -1.20376  -0.90893  -0.89102
 Alpha  occ. eigenvalues --   -0.80413  -0.68588  -0.67869  -0.56876  -0.47117
 Alpha  occ. eigenvalues --   -0.46054  -0.45442  -0.42019
 Alpha virt. eigenvalues --    0.15452   0.20226   0.20368   0.25787   0.36214
 Alpha virt. eigenvalues --    0.39104   0.43047   0.47997   0.59677   0.65004
 Alpha virt. eigenvalues --    0.65543   0.67613   0.73907   0.76349   0.77254
 Alpha virt. eigenvalues --    0.80907   0.83483   0.84638   0.87322   0.91300
 Alpha virt. eigenvalues --    0.92457   0.95231   0.99232   1.00950   1.03523
 Alpha virt. eigenvalues --    1.06619   1.08040   1.09300   1.09898   1.12664
 Alpha virt. eigenvalues --    1.19974   1.31204   1.32394   1.32867   1.47573
 Alpha virt. eigenvalues --    1.49322   1.52102   1.60808   1.61988   1.68116
 Alpha virt. eigenvalues --    1.73541   1.74594   1.81414   1.87782   1.88154
 Alpha virt. eigenvalues --    1.90825   1.96013   1.98452   2.04964   2.07402
 Alpha virt. eigenvalues --    2.22390   2.24104   2.33958   2.42119   2.48980
 Alpha virt. eigenvalues --    2.52557   2.64913   2.77318   2.88788   3.11887
 Alpha virt. eigenvalues --    3.22888   3.23295   3.26087   3.32410   3.40432
 Alpha virt. eigenvalues --    3.43701   3.47204   3.54681   3.57858   3.64866
 Alpha virt. eigenvalues --    3.69379   3.71708   3.74253   3.77407   3.83343
 Alpha virt. eigenvalues --    3.84752   3.95631   3.98881   4.08073   4.09628
 Alpha virt. eigenvalues --    4.16194   4.22530   4.30911   4.31835   4.39859
 Alpha virt. eigenvalues --    4.41631   4.43043   4.45180   4.54007   4.56270
 Alpha virt. eigenvalues --    4.59856   4.62097   4.66045   4.72767   4.81441
 Alpha virt. eigenvalues --    4.86541   4.90444   4.92356   4.94673   4.95644
 Alpha virt. eigenvalues --    4.96289   4.99106   5.00266   5.02619   5.08173
 Alpha virt. eigenvalues --    5.22738   5.24599   5.28734   5.29738   5.39628
 Alpha virt. eigenvalues --    5.41521   5.46633   5.49462   5.62382   5.67998
 Alpha virt. eigenvalues --    5.79077   5.91001   5.96121   5.97781   6.04669
 Alpha virt. eigenvalues --    6.19464   6.25639   6.71644   6.86899   8.47285
 Alpha virt. eigenvalues --   10.82041  11.88248  11.90292  11.97226  12.09953
 Alpha virt. eigenvalues --   16.59474  19.75195
          Condensed to atoms (all electrons):
               1          2          3          4          5          6
     1  C    4.950604   0.379975  -0.098365  -0.119493   0.491137   0.388984
     2  N    0.379975   6.395076   0.307063  -0.113823  -0.047369  -0.029919
     3  N   -0.098365   0.307063   6.557015   0.427380  -0.130000   0.002213
     4  N   -0.119493  -0.113823   0.427380   6.481951   0.395643   0.003290
     5  N    0.491137  -0.047369  -0.130000   0.395643   6.501068  -0.019019
     6  H    0.388984  -0.029919   0.002213   0.003290  -0.019019   0.456119
     7  H   -0.026119   0.350554  -0.020916   0.004410   0.005086   0.000100
               7
     1  C   -0.026119
     2  N    0.350554
     3  N   -0.020916
     4  N    0.004410
     5  N    0.005086
     6  H    0.000100
     7  H    0.356546
 Mulliken charges:
               1
     1  C    0.033278
     2  N   -0.241556
     3  N   -0.044390
     4  N   -0.079358
     5  N   -0.196546
     6  H    0.198233
     7  H    0.330339
 Sum of Mulliken charges =   0.00000
 Mulliken charges with hydrogens summed into heavy atoms:
               1
     1  C    0.231510
     2  N    0.088783
     3  N   -0.044390
     4  N   -0.079358
     5  N   -0.196546
 Electronic spatial extent (au):  <R**2>=            243.9365
 Charge=              0.0000 electrons
 Dipole moment (field-independent basis, Debye):
    X=              2.4550    Y=              4.7111    Z=              0.0000  Tot=              5.3124
 Quadrupole moment (field-independent basis, Debye-Ang):
   XX=            -28.5747   YY=            -26.1276   ZZ=            -28.0913
   XY=              1.7689   XZ=              0.0000   YZ=              0.0000
 Traceless Quadrupole moment (field-independent basis, Debye-Ang):
   XX=             -0.9768   YY=              1.4702   ZZ=             -0.4934
   XY=              1.7689   XZ=              0.0000   YZ=              0.0000
 Octapole moment (field-independent basis, Debye-Ang**2):
  XXX=             11.5061  YYY=             21.7724  ZZZ=              0.0000  XYY=             -0.5699
  XXY=              4.4914  XXZ=              0.0000  XZZ=             -0.6319  YZZ=              0.5231
  YYZ=              0.0000  XYZ=              0.0000
 Hexadecapole moment (field-independent basis, Debye-Ang**3):
 XXXX=           -137.6948 YYYY=           -115.6120 ZZZZ=            -24.4184 XXXY=              6.2936
 XXXZ=              0.0000 YYYX=             -0.3978 YYYZ=              0.0000 ZZZX=              0.0000
 ZZZY=              0.0000 XXYY=            -51.6732 XXZZ=            -29.1207 YYZZ=            -27.5150
 XXYZ=              0.0000 YYXZ=              0.0000 ZZXY=             -0.1032
 N-N= 1.698308489506D+02 E-N=-9.422270358490D+02  KE= 2.577437663514D+02
 Symmetry A'   KE= 2.482295258283D+02
 Symmetry A"   KE= 9.514240523080D+00
 Calling FoFJK, ICntrl=  10002127 FMM=F ISym2X=1 I1Cent= 0 IOpClX= 0 NMat=1 NMatS=1 NMatT=0.
 ***** Axes restored to original set *****
 -------------------------------------------------------------------
 Center     Atomic                   Forces (Hartrees/Bohr)
 Number     Number              X              Y              Z
 -------------------------------------------------------------------
      1        6           0.016938032   -0.005968887    0.000000000
      2        7           0.006565664   -0.007171941    0.000000000
      3        7          -0.010205115   -0.040401695    0.000000000
      4        7          -0.021878148    0.032710096    0.000000000
      5        7          -0.000198959    0.029273071    0.000000000
      6        1           0.005734664    0.000380689    0.000000000
      7        1           0.003043862   -0.008821333    0.000000000
 -------------------------------------------------------------------
 Cartesian Forces:  Max     0.040401695 RMS     0.014927091
 -----------------------------------------------------------------------------------------------
                       Internal Coordinate Forces (Hartree/Bohr or radian)
  Cent   Atom   N1       Length/X         N2         Alpha/Y        N3         Beta/Z          J
 -----------------------------------------------------------------------------------------------
         X 
         X        1   0.000000(     1)
      1  C        1   0.022944(     2)      2   0.000000(     9)
      2  N        1   0.018223(     3)      2   0.000000(    10)      3  -0.008930(    16)     0
      3  N        1   0.036026(     4)      2   0.000000(    11)      3  -0.051333(    17)     0
      4  N        1   0.029353(     5)      2   0.000000(    12)      3   0.055208(    18)     0
      5  N        1   0.029088(     6)      2   0.000000(    13)      3  -0.005771(    19)     0
      6  H        3   0.005735(     7)      4  -0.000768(    14)      5   0.000000(    20)     0
      7  H        4   0.009324(     8)      5  -0.000705(    15)      6   0.000000(    21)     0
 -----------------------------------------------------------------------------------------------
 Internal  Forces:  Max     0.055207942 RMS     0.021581488

 GradGradGradGradGradGradGradGradGradGradGradGradGradGradGradGradGradGrad
 Berny optimization.
 Search for a local minimum.
 Step number   1 out of a maximum of   22
 All quantities printed in internal units (Hartrees-Bohrs-Radians)
 Second derivative matrix not updated -- first step.
 The second derivative matrix:
                          rn1       rn2       rn3       rn4       rch
           rn1          0.65186
           rn2          0.01318   0.69869
           rn3          0.03472   0.07334   0.58262
           rn4          0.03688   0.02662   0.13967   0.63921
           rch          0.00000   0.00000   0.00000   0.00000   0.37510
           rnh          0.00000   0.00000   0.00000   0.00000   0.00000
           an1          0.02012  -0.75016   0.04258  -0.08486   0.00000
           an2          0.72119  -0.31234  -0.71865   0.05436   0.00000
           an3         -0.02914   1.04797   0.05412  -0.58583   0.00000
           an4          0.05328  -0.03228   0.65851  -0.10009   0.00000
           ach          0.04546   0.00000   0.00000   0.05066   0.00000
           anh         -0.10206   0.05276   0.00000   0.00000   0.00000
                          rnh       an1       an2       an3       an4
           rnh          0.48741
           an1          0.00000   4.53257
           an2          0.00000  -2.68051   6.02300
           an3          0.00000  -0.03573  -3.19618   4.47465
           an4          0.00000  -0.12258  -0.06592  -1.16042   2.58479
           ach          0.00000  -0.10460   0.00000   0.00000   0.07318
           anh          0.00000   0.03519  -0.09059   0.00000   0.00000
                          ach       anh
           ach          0.32000
           anh          0.00000   0.32000
 ITU=  0
     Eigenvalues ---    0.00000   0.13346   0.26445   0.33044   0.37510
     Eigenvalues ---    0.40158   0.48741   0.75609   1.20990   2.99509
     Eigenvalues ---    5.09563   9.64077
 RFO step:  Lambda=-4.86745834D-03 EMin=-6.95624114D-16
 Linear search not attempted -- first point.
 Variable       Old X    -DE/DX   Delta X   Delta X   Delta X     New X
                                 (Linear)    (Quad)   (Total)
   rn1        2.34817   0.01822   0.00000   0.02130   0.02130   2.36947
   rn2        2.51900   0.03603   0.00000   0.04403   0.04403   2.56303
   rn3        2.10629   0.02935   0.00000   0.04679   0.04679   2.15308
   rn4        1.75064   0.02909   0.00000   0.03629   0.03629   1.78693
   rch        2.01785   0.00573   0.00000   0.01509   0.01509   2.03294
   rnh        1.87858   0.00932   0.00000   0.01894   0.01894   1.89752
   an1        1.25389  -0.00893   0.00000   0.00613   0.00613   1.26002
   an2        2.33355  -0.05133   0.00000   0.00175   0.00175   2.33531
   an3        3.39396   0.05521   0.00000   0.00511   0.00511   3.39907
   an4        4.81845  -0.00577   0.00000  -0.00980  -0.00980   4.80865
   ach        2.18209  -0.00077   0.00000  -0.00682  -0.00682   2.17527
   anh        2.10770  -0.00070   0.00000  -0.00281  -0.00281   2.10490
         Item               Value     Threshold  Converged?
 Maximum Force            0.055208     0.000450     NO 
 RMS     Force            0.027771     0.000300     NO 
 Maximum Displacement     0.046794     0.001800     NO 
 RMS     Displacement     0.023634     0.001200     NO 
 Predicted change in Energy=-2.450039D-03
 GradGradGradGradGradGradGradGradGradGradGradGradGradGradGradGradGradGrad

 ---------------------------------------------------------------------------------------------------
                            Z-MATRIX (ANGSTROMS AND DEGREES)
   CD    Cent   Atom    N1       Length/X        N2       Alpha/Y        N3        Beta/Z          J
 ---------------------------------------------------------------------------------------------------
      1         X 
      2         X        1   1.000000(     1)
      3      1  C        1   1.000000(     2)      2   90.000(     9)
      4      2  N        1   1.253869(     3)      2   90.000(    10)      3   72.194(    16)      0
      5      3  N        1   1.356300(     4)      2   90.000(    11)      3  133.803(    17)      0
      6      4  N        1   1.139362(     5)      2   90.000(    12)      3  194.752(    18)      0
      7      5  N        1   0.945605(     6)      2   90.000(    13)      3  275.515(    19)      0
      8      6  H        3   1.075787(     7)      4  124.634(    14)      5  180.000(    20)      0
      9      7  H        4   1.004123(     8)      5  120.602(    15)      6  180.000(    21)      0
 ---------------------------------------------------------------------------------------------------
                         Z-Matrix orientation:                         
 ---------------------------------------------------------------------
 Center     Atomic      Atomic             Coordinates (Angstroms)
 Number     Number       Type             X           Y           Z
 ---------------------------------------------------------------------
      1         -1           0        0.000000    0.000000    0.000000
      2         -1           0        0.000000    0.000000    1.000000
      3          6           0        1.000000    0.000000    0.000000
      4          7           0        0.383425   -1.193806    0.000000
      5          7           0       -0.938810   -0.978869    0.000000
      6          7           0       -1.101805    0.290127    0.000000
      7          7           0        0.090885    0.941227    0.000000
      8          1           0        2.067023    0.137040    0.000000
      9          1           0        0.749298   -2.128899    0.000000
 ---------------------------------------------------------------------
                    Distance matrix (angstroms):
                    1          2          3          4          5
     1  X    0.000000
     2  X    1.000000   0.000000
     3  C    1.000000   1.414214   0.000000
     4  N    1.253869   1.603804   1.343628   0.000000
     5  N    1.356300   1.685096   2.171904   1.339591   0.000000
     6  N    1.139362   1.515964   2.121734   2.099515   1.279421
     7  N    0.945605   1.376288   1.308587   2.154982   2.178770
     8  H    2.071560   2.300296   1.075787   2.146078   3.206288
     9  H    2.256914   2.468534   2.143610   1.004123   2.042616
                    6          7          8          9
     6  N    0.000000
     7  N    1.358838   0.000000
     8  H    3.172523   2.133504   0.000000
     9  H    3.046025   3.139934   2.621236   0.000000
 Stoichiometry    CH2N4
 Framework group  CS[SG(CH2N4)]
 Deg. of freedom    11
 Full point group                 CS      NOp   2
 Largest Abelian subgroup         CS      NOp   2
 Largest concise Abelian subgroup C1      NOp   1
                         Standard orientation:                         
 ---------------------------------------------------------------------
 Center     Atomic      Atomic             Coordinates (Angstroms)
 Number     Number       Type             X           Y           Z
 ---------------------------------------------------------------------
      1          6           0        1.061601    0.229570    0.000000
      2          7           0        0.000000    1.053183    0.000000
      3          7           0       -1.109098    0.301914    0.000000
      4          7           0       -0.723084   -0.917886    0.000000
      5          7           0        0.632843   -1.006782    0.000000
      6          1           0        2.087252    0.554157    0.000000
      7          1           0       -0.061487    2.055422    0.000000
 ---------------------------------------------------------------------
 Rotational constants (GHZ):     10.6333918     10.4435121      5.2687983
 Standard basis: 6-31G(2df,p) (6D, 7F)
 There are   113 symmetry adapted cartesian basis functions of A'  symmetry.
 There are    52 symmetry adapted cartesian basis functions of A"  symmetry.
 There are   103 symmetry adapted basis functions of A'  symmetry.
 There are    47 symmetry adapted basis functions of A"  symmetry.
   150 basis functions,   234 primitive gaussians,   165 cartesian basis functions
    18 alpha electrons       18 beta electrons
       nuclear repulsion energy       167.5411366433 Hartrees.
 NAtoms=    7 NActive=    7 NUniq=    7 SFac= 1.00D+00 NAtFMM=   60 NAOKFM=F Big=F
 Integral buffers will be    131072 words long.
 Raffenetti 1 integral format.
 Two-electron integral symmetry is turned on.
 One-electron integrals computed using PRISM.
 NBasis=   150 RedAO= T EigKep=  2.90D-04  NBF=   103    47
 NBsUse=   150 1.00D-06 EigRej= -1.00D+00 NBFU=   103    47
 Initial guess from the checkpoint file:  "/tmp/rdj3/g09-31683/Gau-7574.chk"
 B after Tr=     0.000000    0.000000    0.000000
         Rot=    1.000000    0.000000    0.000000   -0.000109 Ang=  -0.01 deg.
 Initial guess orbital symmetries:
       Occupied  (A') (A') (A') (A') (A') (A') (A') (A') (A') (A')
                 (A') (A") (A') (A') (A') (A') (A") (A")
       Virtual   (A') (A') (A') (A') (A') (A') (A') (A') (A') (A')
                 (A') (A') (A') (A') (A') (A') (A') (A') (A') (A')
                 (A') (A') (A') (A') (A') (A') (A') (A') (A') (A')
                 (A') (A') (A') (A') (A') (A') (A') (A') (A') (A')
                 (A') (A') (A') (A') (A') (A') (A') (A') (A') (A')
                 (A') (A') (A') (A') (A') (A') (A') (A') (A') (A')
                 (A') (A') (A') (A') (A') (A') (A') (A') (A') (A')
                 (A') (A') (A') (A') (A') (A') (A') (A') (A') (A')
                 (A') (A') (A') (A') (A') (A') (A') (A') (A") (A")
                 (A") (A") (A") (A") (A") (A") (A") (A") (A") (A")
                 (A") (A") (A") (A") (A") (A") (A") (A") (A") (A")
                 (A") (A") (A") (A") (A") (A") (A") (A") (A") (A")
                 (A") (A") (A") (A") (A") (A") (A") (A") (A") (A")
                 (A") (A")
 ExpMin= 1.61D-01 ExpMax= 4.17D+03 ExpMxC= 6.27D+02 IAcc=1 IRadAn=         1 AccDes= 0.00D+00
 Harris functional with IExCor=  205 and IRadAn=       1 diagonalized for initial guess.
 HarFok:  IExCor=  205 AccDes= 0.00D+00 IRadAn=         1 IDoV= 1 UseB2=F ITyADJ=14
 ICtDFT=  3500011 ScaDFX=  1.000000  1.000000  1.000000  1.000000
 FoFCou: FMM=F IPFlag=           0 FMFlag=      100000 FMFlg1=           0
         NFxFlg=           0 DoJE=T BraDBF=F KetDBF=T FulRan=T
         wScrn=  0.000000 ICntrl=     500 IOpCl=  0 I1Cent=   200000004 NGrid=           0
         NMat0=    1 NMatS0=      1 NMatT0=    0 NMatD0=    1 NMtDS0=    0 NMtDT0=    0
 Petite list used in FoFCou.
 Keep R1 ints in memory in symmetry-blocked form, NReq=97005431.
 Requested convergence on RMS density matrix=1.00D-08 within 128 cycles.
 Requested convergence on MAX density matrix=1.00D-06.
 Requested convergence on             energy=1.00D-06.
 No special actions if energy rises.
 SCF Done:  E(RHF) =  -256.779026777     A.U. after   12 cycles
            NFock= 12  Conv=0.72D-08     -V/T= 2.0018
 ExpMin= 1.61D-01 ExpMax= 4.17D+03 ExpMxC= 6.27D+02 IAcc=3 IRadAn=         5 AccDes= 0.00D+00
 HarFok:  IExCor=  205 AccDes= 0.00D+00 IRadAn=         5 IDoV=-2 UseB2=F ITyADJ=14
 ICtDFT= 12500011 ScaDFX=  1.000000  1.000000  1.000000  1.000000
 DSYEVD-2 returned Info=          57 IAlg= 4 N=    28 NDim=    28 NE2=    15569076 trying  DSYEV.
 DSYEVD-2 returned Info=          57 IAlg= 4 N=    28 NDim=    28 NE2=    15569076 trying  DSYEV.
 Range of M.O.s used for correlation:     6   150
 NBasis=   150 NAE=    18 NBE=    18 NFC=     5 NFV=     0
 NROrb=    145 NOA=    13 NOB=    13 NVA=   132 NVB=   132

 **** Warning!!: The largest alpha MO coefficient is  0.37033535D+02

 Semi-Direct transformation.
 ModeAB=           2 MOrb=            13 LenV=     435344139
 LASXX=      9493585 LTotXX=     9493585 LenRXX=     9493585
 LTotAB=     9713419 MaxLAS=    25815075 LenRXY=    25815075
 NonZer=    26640705 LenScr=    40734720 LnRSAI=           0
 LnScr1=           0 LExtra=           0 Total=     76043380
 MaxDsk=          -1 SrtSym=           F ITran=            4
 JobTyp=0 Pass  1:  I=   1 to  13.
 (rs|ai) integrals will be sorted in core.
 Spin components of T(2) and E(2):
     alpha-alpha T2 =       0.4044194350D-01 E2=     -0.1225696409D+00
     alpha-beta  T2 =       0.2050906423D+00 E2=     -0.6688921973D+00
     beta-beta   T2 =       0.4044194350D-01 E2=     -0.1225696409D+00
 ANorm=    0.1134008170D+01
 E2 =    -0.9140314790D+00 EUMP2 =    -0.25769305825582D+03
 Keep R2 and R3 ints in memory in symmetry-blocked form, NReq=98259593.
 Iterations=  50 Convergence= 0.100D-07
 Iteration Nr.   1
 **********************
 DD1Dir will call FoFMem   1 times, MxPair=       182
 NAB=    91 NAA=     0 NBB=     0.
 MP4(R+Q)=  0.28605378D-01
 E3=        0.87322569D-03        EUMP3=      -0.25769218503D+03
 E4(DQ)=    0.47944247D-02        UMP4(DQ)=   -0.25768739061D+03
 DE(Corr)= -0.88455288     E(Corr)=     -257.66357965    
 NORM(A)=   0.11226524D+01
 Iteration Nr.   2
 **********************
 DD1Dir will call FoFMem   1 times, MxPair=       182
 NAB=    91 NAA=     0 NBB=     0.
 DE(Corr)= -0.90746527     E(CORR)=     -257.68649205     Delta=-2.29D-02
 NORM(A)=   0.11314083D+01
 Iteration Nr.   3
 **********************
 DD1Dir will call FoFMem   1 times, MxPair=       182
 NAB=    91 NAA=     0 NBB=     0.
 DE(Corr)= -0.90781784     E(CORR)=     -257.68684462     Delta=-3.53D-04
 NORM(A)=   0.11321598D+01
 Iteration Nr.   4
 **********************
 DD1Dir will call FoFMem   1 times, MxPair=       182
 NAB=    91 NAA=     0 NBB=     0.
 DE(Corr)= -0.90903132     E(CORR)=     -257.68805810     Delta=-1.21D-03
 NORM(A)=   0.11324899D+01
 Iteration Nr.   5
 **********************
 DD1Dir will call FoFMem   1 times, MxPair=       182
 NAB=    91 NAA=     0 NBB=     0.
 DE(Corr)= -0.90911859     E(CORR)=     -257.68814537     Delta=-8.73D-05
 NORM(A)=   0.11325478D+01
 Iteration Nr.   6
 **********************
 DD1Dir will call FoFMem   1 times, MxPair=       182
 NAB=    91 NAA=     0 NBB=     0.
 DE(Corr)= -0.90912516     E(CORR)=     -257.68815194     Delta=-6.57D-06
 NORM(A)=   0.11325457D+01
 Iteration Nr.   7
 **********************
 DD1Dir will call FoFMem   1 times, MxPair=       182
 NAB=    91 NAA=     0 NBB=     0.
 DE(Corr)= -0.90912631     E(CORR)=     -257.68815309     Delta=-1.15D-06
 NORM(A)=   0.11325469D+01
 Iteration Nr.   8
 **********************
 DD1Dir will call FoFMem   1 times, MxPair=       182
 NAB=    91 NAA=     0 NBB=     0.
 DE(Corr)= -0.90912547     E(CORR)=     -257.68815225     Delta= 8.44D-07
 NORM(A)=   0.11325475D+01
 Iteration Nr.   9
 **********************
 DD1Dir will call FoFMem   1 times, MxPair=       182
 NAB=    91 NAA=     0 NBB=     0.
 DE(Corr)= -0.90912563     E(CORR)=     -257.68815241     Delta=-1.63D-07
 NORM(A)=   0.11325477D+01
 Iteration Nr.  10
 **********************
 DD1Dir will call FoFMem   1 times, MxPair=       182
 NAB=    91 NAA=     0 NBB=     0.
 DE(Corr)= -0.90912573     E(CORR)=     -257.68815251     Delta=-9.89D-08
 NORM(A)=   0.11325478D+01
 Iteration Nr.  11
 **********************
 DD1Dir will call FoFMem   1 times, MxPair=       182
 NAB=    91 NAA=     0 NBB=     0.
 DE(Corr)= -0.90912578     E(CORR)=     -257.68815256     Delta=-4.89D-08
 NORM(A)=   0.11325479D+01
 Iteration Nr.  12
 **********************
 DD1Dir will call FoFMem   1 times, MxPair=       182
 NAB=    91 NAA=     0 NBB=     0.
 DE(Corr)= -0.90912581     E(CORR)=     -257.68815259     Delta=-3.25D-08
 NORM(A)=   0.11325479D+01
 Iteration Nr.  13
 **********************
 DD1Dir will call FoFMem   1 times, MxPair=       182
 NAB=    91 NAA=     0 NBB=     0.
 DE(Corr)= -0.90912582     E(CORR)=     -257.68815260     Delta=-7.70D-09
 NORM(A)=   0.11325479D+01
 Iteration Nr.  14
 **********************
 DD1Dir will call FoFMem   1 times, MxPair=       182
 NAB=    91 NAA=     0 NBB=     0.
 DE(Corr)= -0.90912583     E(CORR)=     -257.68815260     Delta=-3.28D-09
 NORM(A)=   0.11325479D+01
 Largest amplitude= 7.19D-02

 Z-AMPLITUDE ITERATIONS

 Iteration Nr.   1
 **********************
 DD1Dir will call FoFMem   1 times, MxPair=       182
 NAB=    91 NAA=     0 NBB=     0.
 DE(Z)  -0.87782013D+00          E(Z)=    -0.25765684691D+03
 NORM(A)=   0.11327131D+01
 Iteration Nr.   2
 **********************
 DD1Dir will call FoFMem   1 times, MxPair=       182
 NAB=    91 NAA=     0 NBB=     0.
 DE(Z)  -0.87780175D+00          E(Z)=    -0.25765682853D+03
 NORM(A)=   0.11326109D+01
 Iteration Nr.   3
 **********************
 DD1Dir will call FoFMem   1 times, MxPair=       182
 NAB=    91 NAA=     0 NBB=     0.
 DE(Z)  -0.87781321D+00          E(Z)=    -0.25765683999D+03
 NORM(A)=   0.11325761D+01
 Iteration Nr.   4
 **********************
 DD1Dir will call FoFMem   1 times, MxPair=       182
 NAB=    91 NAA=     0 NBB=     0.
 DE(Z)  -0.87781704D+00          E(Z)=    -0.25765684382D+03
 NORM(A)=   0.11325650D+01
 Iteration Nr.   5
 **********************
 DD1Dir will call FoFMem   1 times, MxPair=       182
 NAB=    91 NAA=     0 NBB=     0.
 DE(Z)  -0.87781826D+00          E(Z)=    -0.25765684504D+03
 NORM(A)=   0.11234633D+01
 Iteration Nr.   6
 **********************
 DD1Dir will call FoFMem   1 times, MxPair=       182
 NAB=    91 NAA=     0 NBB=     0.
 DE(Z)  -0.87883362D+00          E(Z)=    -0.25765786040D+03
 NORM(A)=   0.11234614D+01
 Iteration Nr.   7
 **********************
 DD1Dir will call FoFMem   1 times, MxPair=       182
 NAB=    91 NAA=     0 NBB=     0.
 DE(Z)  -0.87883362D+00          E(Z)=    -0.25765786040D+03
 NORM(A)=   0.11234611D+01
 Iteration Nr.   8
 **********************
 DD1Dir will call FoFMem   1 times, MxPair=       182
 NAB=    91 NAA=     0 NBB=     0.
 DE(Z)  -0.87883368D+00          E(Z)=    -0.25765786045D+03
 NORM(A)=   0.11234610D+01
 Iteration Nr.   9
 **********************
 DD1Dir will call FoFMem   1 times, MxPair=       182
 NAB=    91 NAA=     0 NBB=     0.
 DE(Z)  -0.87883364D+00          E(Z)=    -0.25765786042D+03
 NORM(A)=   0.11234610D+01
 Iteration Nr.  10
 **********************
 DD1Dir will call FoFMem   1 times, MxPair=       182
 NAB=    91 NAA=     0 NBB=     0.
 DE(Z)  -0.87883364D+00          E(Z)=    -0.25765786041D+03
 NORM(A)=   0.11234610D+01
 Iteration Nr.  11
 **********************
 DD1Dir will call FoFMem   1 times, MxPair=       182
 NAB=    91 NAA=     0 NBB=     0.
 DE(Z)  -0.87883363D+00          E(Z)=    -0.25765786041D+03
 NORM(A)=   0.11234610D+01
 Iteration Nr.  12
 **********************
 DD1Dir will call FoFMem   1 times, MxPair=       182
 NAB=    91 NAA=     0 NBB=     0.
 DE(Z)  -0.87883363D+00          E(Z)=    -0.25765786041D+03
 NORM(A)=   0.11234610D+01
 Discarding MO integrals.
          IDoAtm=1111111
          Differentiating once with respect to electric field.
                with respect to dipole field.
          Differentiating once with respect to nuclear coordinates.
 Keep R1 ints in memory in symmetry-blocked form, NReq=96904184.
          There are     1 degrees of freedom in the 1st order CPHF.  IDoFFX=0 NUNeed=     1.
 LinEq1:  Iter=  0 NonCon=     1 RMS=3.13D-03 Max=3.51D-02 NDo=     1
 AX will form     1 AO Fock derivatives at one time.
 LinEq1:  Iter=  1 NonCon=     1 RMS=8.90D-04 Max=1.36D-02 NDo=     1
 LinEq1:  Iter=  2 NonCon=     1 RMS=2.95D-04 Max=7.03D-03 NDo=     1
 LinEq1:  Iter=  3 NonCon=     1 RMS=9.16D-05 Max=1.59D-03 NDo=     1
 LinEq1:  Iter=  4 NonCon=     1 RMS=3.77D-05 Max=8.42D-04 NDo=     1
 LinEq1:  Iter=  5 NonCon=     1 RMS=1.27D-05 Max=2.25D-04 NDo=     1
 LinEq1:  Iter=  6 NonCon=     1 RMS=4.53D-06 Max=8.65D-05 NDo=     1
 LinEq1:  Iter=  7 NonCon=     1 RMS=2.64D-06 Max=6.52D-05 NDo=     1
 LinEq1:  Iter=  8 NonCon=     1 RMS=5.79D-07 Max=9.69D-06 NDo=     1
 LinEq1:  Iter=  9 NonCon=     1 RMS=2.20D-07 Max=3.99D-06 NDo=     1
 LinEq1:  Iter= 10 NonCon=     1 RMS=6.55D-08 Max=6.00D-07 NDo=     1
 LinEq1:  Iter= 11 NonCon=     1 RMS=1.71D-08 Max=2.18D-07 NDo=     1
 LinEq1:  Iter= 12 NonCon=     1 RMS=7.81D-09 Max=1.14D-07 NDo=     1
 LinEq1:  Iter= 13 NonCon=     1 RMS=2.49D-09 Max=3.59D-08 NDo=     1
 LinEq1:  Iter= 14 NonCon=     1 RMS=4.55D-10 Max=7.00D-09 NDo=     1
 LinEq1:  Iter= 15 NonCon=     1 RMS=8.16D-11 Max=1.36D-09 NDo=     1
 LinEq1:  Iter= 16 NonCon=     0 RMS=1.39D-11 Max=1.67D-10 NDo=     1
 Linear equations converged to 1.000D-10 1.000D-09 after    16 iterations.
 End of Minotr F.D. properties file   721 does not exist.
 End of Minotr F.D. properties file   722 does not exist.
 End of Minotr F.D. properties file   788 does not exist.
 Calling FoFJK, ICntrl=  10002127 FMM=F ISym2X=1 I1Cent= 0 IOpClX= 0 NMat=1 NMatS=1 NMatT=0.
 ***** Axes restored to original set *****
 -------------------------------------------------------------------
 Center     Atomic                   Forces (Hartrees/Bohr)
 Number     Number              X              Y              Z
 -------------------------------------------------------------------
      1        6           0.001263811   -0.001854396    0.000000000
      2        7           0.000108410    0.004684941    0.000000000
      3        7          -0.000525921   -0.008029445    0.000000000
      4        7          -0.001694973    0.005443382    0.000000000
      5        7           0.001227400   -0.000348270    0.000000000
      6        1          -0.000194389   -0.000086460    0.000000000
      7        1          -0.000184339    0.000190248    0.000000000
 -------------------------------------------------------------------
 Cartesian Forces:  Max     0.008029445 RMS     0.002449408
 -----------------------------------------------------------------------------------------------
                       Internal Coordinate Forces (Hartree/Bohr or radian)
  Cent   Atom   N1       Length/X         N2         Alpha/Y        N3         Beta/Z          J
 -----------------------------------------------------------------------------------------------
         X 
         X        1   0.000000(     1)
      1  C        1   0.001113(     2)      2   0.000000(     9)
      2  N        1  -0.004631(     3)      2   0.000000(    10)      3  -0.003197(    16)     0
      3  N        1   0.006096(     4)      2   0.000000(    11)      3  -0.013161(    17)     0
      4  N        1   0.003025(     5)      2   0.000000(    12)      3   0.010404(    18)     0
      5  N        1  -0.000229(     6)      2   0.000000(    13)      3   0.002243(    19)     0
      6  H        3  -0.000204(     7)      4  -0.000124(    14)      5   0.000000(    20)     0
      7  H        4  -0.000244(     8)      5  -0.000194(    15)      6   0.000000(    21)     0
 -----------------------------------------------------------------------------------------------
 Internal  Forces:  Max     0.013160574 RMS     0.004174226

 GradGradGradGradGradGradGradGradGradGradGradGradGradGradGradGradGradGrad
 Berny optimization.
 Search for a local minimum.
 Step number   2 out of a maximum of   22
 All quantities printed in internal units (Hartrees-Bohrs-Radians)
 Update second derivatives using D2CorN and points    1    2
 DE= -2.53D-03 DEPred=-2.45D-03 R= 1.03D+00
 TightC=F SS=  1.41D+00  RLast= 8.19D-02 DXNew= 5.0454D-01 2.4561D-01
 Trust test= 1.03D+00 RLast= 8.19D-02 DXMaxT set to 3.00D-01
 The second derivative matrix:
                          rn1       rn2       rn3       rn4       rch
           rn1          0.66690
           rn2          0.01939   0.66005
           rn3          0.04680   0.04362   0.56309
           rn4          0.05035   0.01202   0.13351   0.64141
           rch          0.00577  -0.00571  -0.00218   0.00121   0.37572
           rnh          0.00722  -0.00720  -0.00278   0.00148   0.00077
           an1          0.02741  -0.74226   0.05257  -0.07593   0.00376
           an2          0.74273  -0.26985  -0.67305   0.09006   0.01486
           an3         -0.04382   1.01164   0.01682  -0.61377  -0.01158
           an4          0.04618  -0.03550   0.65256  -0.10659  -0.00278
           ach          0.04320   0.00329   0.00174   0.05069  -0.00004
           anh         -0.10276   0.05458   0.00122   0.00040   0.00015
                          rnh       an1       an2       an3       an4
           rnh          0.48836
           an1          0.00471   4.53553
           an2          0.01865  -2.67406   6.02645
           an3         -0.01454  -0.03925  -3.19253   4.46675
           an4         -0.00348  -0.12599  -0.07585  -1.15371   2.58814
           ach         -0.00004  -0.10620  -0.00669   0.00532   0.07428
           anh          0.00018   0.03460  -0.09332   0.00224   0.00035
                          ach       anh
           ach          0.31991
           anh         -0.00011   0.31992
 ITU=  1  0
     Eigenvalues ---    0.00000   0.12481   0.26459   0.32874   0.37555
     Eigenvalues ---    0.39605   0.48826   0.76563   1.20827   2.98754
     Eigenvalues ---    5.08576   9.62702
 RFO step:  Lambda=-1.14596021D-04 EMin=-1.20522800D-08
 Quartic linear search produced a step of  0.06692.
 Variable       Old X    -DE/DX   Delta X   Delta X   Delta X     New X
                                 (Linear)    (Quad)   (Total)
   rn1        2.36947  -0.00463   0.00143  -0.05320  -0.05178   2.31769
   rn2        2.56303   0.00610   0.00295  -0.02048  -0.01754   2.54550
   rn3        2.15308   0.00303   0.00313   0.01655   0.01968   2.17276
   rn4        1.78693  -0.00023   0.00243   0.03835   0.04078   1.82771
   rch        2.03294  -0.00020   0.00101  -0.00116  -0.00015   2.03279
   rnh        1.89752  -0.00024   0.00127  -0.00139  -0.00012   1.89740
   an1        1.26002  -0.00320   0.00041   0.01908   0.01949   1.27951
   an2        2.33531  -0.01316   0.00012   0.03604   0.03615   2.37146
   an3        3.39907   0.01040   0.00034   0.04201   0.04235   3.44142
   an4        4.80865   0.00224  -0.00066   0.01977   0.01911   4.82776
   ach        2.17527  -0.00012  -0.00046   0.00270   0.00224   2.17752
   anh        2.10490  -0.00019  -0.00019  -0.00610  -0.00628   2.09862
         Item               Value     Threshold  Converged?
 Maximum Force            0.013161     0.000450     NO 
 RMS     Force            0.005513     0.000300     NO 
 Maximum Displacement     0.051778     0.001800     NO 
 RMS     Displacement     0.027278     0.001200     NO 
 Predicted change in Energy=-6.242899D-05
 GradGradGradGradGradGradGradGradGradGradGradGradGradGradGradGradGradGrad

 ---------------------------------------------------------------------------------------------------
                            Z-MATRIX (ANGSTROMS AND DEGREES)
   CD    Cent   Atom    N1       Length/X        N2       Alpha/Y        N3        Beta/Z          J
 ---------------------------------------------------------------------------------------------------
      1         X 
      2         X        1   1.000000(     1)
      3      1  C        1   1.000000(     2)      2   90.000(     9)
      4      2  N        1   1.226469(     3)      2   90.000(    10)      3   73.311(    16)      0
      5      3  N        1   1.347020(     4)      2   90.000(    11)      3  135.875(    17)      0
      6      4  N        1   1.149775(     5)      2   90.000(    12)      3  197.179(    18)      0
      7      5  N        1   0.967185(     6)      2   90.000(    13)      3  276.610(    19)      0
      8      6  H        3   1.075706(     7)      4  124.763(    14)      5  180.000(    20)      0
      9      7  H        4   1.004059(     8)      5  120.242(    15)      6  180.000(    21)      0
 ---------------------------------------------------------------------------------------------------
                         Z-Matrix orientation:                         
 ---------------------------------------------------------------------
 Center     Atomic      Atomic             Coordinates (Angstroms)
 Number     Number       Type             X           Y           Z
 ---------------------------------------------------------------------
      1         -1           0        0.000000    0.000000    0.000000
      2         -1           0        0.000000    0.000000    1.000000
      3          6           0        1.000000    0.000000    0.000000
      4          7           0        0.352223   -1.174804    0.000000
      5          7           0       -0.966919   -0.937834    0.000000
      6          7           0       -1.098482    0.339589    0.000000
      7          7           0        0.111340    0.960755    0.000000
      8          1           0        2.070026    0.110398    0.000000
      9          1           0        0.696584   -2.117964    0.000000
 ---------------------------------------------------------------------
                    Distance matrix (angstroms):
                    1          2          3          4          5
     1  X    0.000000
     2  X    1.000000   0.000000
     3  C    1.000000   1.414214   0.000000
     4  N    1.226469   1.582475   1.341559   0.000000
     5  N    1.347020   1.677636   2.179060   1.340257   0.000000
     6  N    1.149775   1.523805   2.125781   2.097124   1.284179
     7  N    0.967185   1.391203   1.308727   2.149102   2.183410
     8  H    2.072968   2.301564   1.075706   2.145365   3.212759
     9  H    2.229574   2.443563   2.139587   1.004059   2.039595
                    6          7          8          9
     6  N    0.000000
     7  N    1.359969   0.000000
     8  H    3.176786   2.135313   0.000000
     9  H    3.043325   3.133851   2.617621   0.000000
 Stoichiometry    CH2N4
 Framework group  CS[SG(CH2N4)]
 Deg. of freedom    11
 Full point group                 CS      NOp   2
 Largest Abelian subgroup         CS      NOp   2
 Largest concise Abelian subgroup C1      NOp   1
                         Standard orientation:                         
 ---------------------------------------------------------------------
 Center     Atomic      Atomic             Coordinates (Angstroms)
 Number     Number       Type             X           Y           Z
 ---------------------------------------------------------------------
      1          6           0        1.064133    0.231979    0.000000
      2          7           0        0.000000    1.048926    0.000000
      3          7           0       -1.113757    0.303382    0.000000
      4          7           0       -0.722599   -0.919775    0.000000
      5          7           0        0.634741   -1.004301    0.000000
      6          1           0        2.088782    0.559452    0.000000
      7          1           0       -0.062282    2.051051    0.000000
 ---------------------------------------------------------------------
 Rotational constants (GHZ):     10.6321828     10.4216397      5.2629293
 Standard basis: 6-31G(2df,p) (6D, 7F)
 There are   113 symmetry adapted cartesian basis functions of A'  symmetry.
 There are    52 symmetry adapted cartesian basis functions of A"  symmetry.
 There are   103 symmetry adapted basis functions of A'  symmetry.
 There are    47 symmetry adapted basis functions of A"  symmetry.
   150 basis functions,   234 primitive gaussians,   165 cartesian basis functions
    18 alpha electrons       18 beta electrons
       nuclear repulsion energy       167.4371711352 Hartrees.
 NAtoms=    7 NActive=    7 NUniq=    7 SFac= 1.00D+00 NAtFMM=   60 NAOKFM=F Big=F
 Integral buffers will be    131072 words long.
 Raffenetti 1 integral format.
 Two-electron integral symmetry is turned on.
 One-electron integrals computed using PRISM.
 NBasis=   150 RedAO= T EigKep=  2.92D-04  NBF=   103    47
 NBsUse=   150 1.00D-06 EigRej= -1.00D+00 NBFU=   103    47
 Initial guess from the checkpoint file:  "/tmp/rdj3/g09-31683/Gau-7574.chk"
 B after Tr=     0.000000    0.000000    0.000000
         Rot=    1.000000    0.000000    0.000000   -0.000567 Ang=  -0.06 deg.
 Initial guess orbital symmetries:
       Occupied  (A') (A') (A') (A') (A') (A') (A') (A') (A') (A')
                 (A') (A") (A') (A') (A') (A') (A") (A")
       Virtual   (A') (A') (A') (A') (A') (A') (A') (A') (A') (A')
                 (A') (A') (A') (A') (A') (A') (A') (A') (A') (A')
                 (A') (A') (A') (A') (A') (A') (A') (A') (A') (A')
                 (A') (A') (A') (A') (A') (A') (A') (A') (A') (A')
                 (A') (A') (A') (A') (A') (A') (A') (A') (A') (A')
                 (A') (A') (A') (A') (A') (A') (A') (A') (A') (A')
                 (A') (A') (A') (A') (A') (A') (A') (A') (A') (A')
                 (A') (A') (A') (A') (A') (A') (A') (A') (A') (A')
                 (A') (A') (A') (A') (A') (A') (A') (A') (A") (A")
                 (A") (A") (A") (A") (A") (A") (A") (A") (A") (A")
                 (A") (A") (A") (A") (A") (A") (A") (A") (A") (A")
                 (A") (A") (A") (A") (A") (A") (A") (A") (A") (A")
                 (A") (A") (A") (A") (A") (A") (A") (A") (A") (A")
                 (A") (A")
 ExpMin= 1.61D-01 ExpMax= 4.17D+03 ExpMxC= 6.27D+02 IAcc=1 IRadAn=         1 AccDes= 0.00D+00
 Harris functional with IExCor=  205 and IRadAn=       1 diagonalized for initial guess.
 HarFok:  IExCor=  205 AccDes= 0.00D+00 IRadAn=         1 IDoV= 1 UseB2=F ITyADJ=14
 ICtDFT=  3500011 ScaDFX=  1.000000  1.000000  1.000000  1.000000
 FoFCou: FMM=F IPFlag=           0 FMFlag=      100000 FMFlg1=           0
         NFxFlg=           0 DoJE=T BraDBF=F KetDBF=T FulRan=T
         wScrn=  0.000000 ICntrl=     500 IOpCl=  0 I1Cent=   200000004 NGrid=           0
         NMat0=    1 NMatS0=      1 NMatT0=    0 NMatD0=    1 NMtDS0=    0 NMtDT0=    0
 Petite list used in FoFCou.
 Keep R1 ints in memory in symmetry-blocked form, NReq=97005431.
 Requested convergence on RMS density matrix=1.00D-08 within 128 cycles.
 Requested convergence on MAX density matrix=1.00D-06.
 Requested convergence on             energy=1.00D-06.
 No special actions if energy rises.
 SCF Done:  E(RHF) =  -256.778629260     A.U. after   10 cycles
            NFock= 10  Conv=0.96D-08     -V/T= 2.0019
 ExpMin= 1.61D-01 ExpMax= 4.17D+03 ExpMxC= 6.27D+02 IAcc=3 IRadAn=         5 AccDes= 0.00D+00
 HarFok:  IExCor=  205 AccDes= 0.00D+00 IRadAn=         5 IDoV=-2 UseB2=F ITyADJ=14
 ICtDFT= 12500011 ScaDFX=  1.000000  1.000000  1.000000  1.000000
 DSYEVD-2 returned Info=          57 IAlg= 4 N=    28 NDim=    28 NE2=    15569076 trying  DSYEV.
 DSYEVD-2 returned Info=          57 IAlg= 4 N=    28 NDim=    28 NE2=    15569076 trying  DSYEV.
 Range of M.O.s used for correlation:     6   150
 NBasis=   150 NAE=    18 NBE=    18 NFC=     5 NFV=     0
 NROrb=    145 NOA=    13 NOB=    13 NVA=   132 NVB=   132

 **** Warning!!: The largest alpha MO coefficient is  0.36960616D+02

 Semi-Direct transformation.
 ModeAB=           2 MOrb=            13 LenV=     435344173
 LASXX=      9493585 LTotXX=     9493585 LenRXX=     9493585
 LTotAB=     9713419 MaxLAS=    25815075 LenRXY=    25815075
 NonZer=    26633165 LenScr=    40708096 LnRSAI=           0
 LnScr1=           0 LExtra=           0 Total=     76016756
 MaxDsk=          -1 SrtSym=           F ITran=            4
 JobTyp=0 Pass  1:  I=   1 to  13.
 (rs|ai) integrals will be sorted in core.
 Spin components of T(2) and E(2):
     alpha-alpha T2 =       0.4054469895D-01 E2=     -0.1226816202D+00
     alpha-beta  T2 =       0.2055338266D+00 E2=     -0.6693603850D+00
     beta-beta   T2 =       0.4054469895D-01 E2=     -0.1226816202D+00
 ANorm=    0.1134294153D+01
 E2 =    -0.9147236254D+00 EUMP2 =    -0.25769335288557D+03
 Keep R2 and R3 ints in memory in symmetry-blocked form, NReq=98259593.
 Iterations=  50 Convergence= 0.100D-07
 Iteration Nr.   1
 **********************
 DD1Dir will call FoFMem   1 times, MxPair=       182
 NAB=    91 NAA=     0 NBB=     0.
 MP4(R+Q)=  0.28718223D-01
 E3=        0.11164760D-02        EUMP3=      -0.25769223641D+03
 E4(DQ)=    0.48140062D-02        UMP4(DQ)=   -0.25768742240D+03
 DE(Corr)= -0.88488893     E(Corr)=     -257.66351819    
 NORM(A)=   0.11227981D+01
 Iteration Nr.   2
 **********************
 DD1Dir will call FoFMem   1 times, MxPair=       182
 NAB=    91 NAA=     0 NBB=     0.
 DE(Corr)= -0.90792855     E(CORR)=     -257.68655781     Delta=-2.30D-02
 NORM(A)=   0.11315955D+01
 Iteration Nr.   3
 **********************
 DD1Dir will call FoFMem   1 times, MxPair=       182
 NAB=    91 NAA=     0 NBB=     0.
 DE(Corr)= -0.90826000     E(CORR)=     -257.68688926     Delta=-3.31D-04
 NORM(A)=   0.11323496D+01
 Iteration Nr.   4
 **********************
 DD1Dir will call FoFMem   1 times, MxPair=       182
 NAB=    91 NAA=     0 NBB=     0.
 DE(Corr)= -0.90948115     E(CORR)=     -257.68811041     Delta=-1.22D-03
 NORM(A)=   0.11326823D+01
 Iteration Nr.   5
 **********************
 DD1Dir will call FoFMem   1 times, MxPair=       182
 NAB=    91 NAA=     0 NBB=     0.
 DE(Corr)= -0.90956920     E(CORR)=     -257.68819846     Delta=-8.80D-05
 NORM(A)=   0.11327409D+01
 Iteration Nr.   6
 **********************
 DD1Dir will call FoFMem   1 times, MxPair=       182
 NAB=    91 NAA=     0 NBB=     0.
 DE(Corr)= -0.90957582     E(CORR)=     -257.68820508     Delta=-6.62D-06
 NORM(A)=   0.11327389D+01
 Iteration Nr.   7
 **********************
 DD1Dir will call FoFMem   1 times, MxPair=       182
 NAB=    91 NAA=     0 NBB=     0.
 DE(Corr)= -0.90957699     E(CORR)=     -257.68820625     Delta=-1.17D-06
 NORM(A)=   0.11327400D+01
 Iteration Nr.   8
 **********************
 DD1Dir will call FoFMem   1 times, MxPair=       182
 NAB=    91 NAA=     0 NBB=     0.
 DE(Corr)= -0.90957614     E(CORR)=     -257.68820540     Delta= 8.51D-07
 NORM(A)=   0.11327406D+01
 Iteration Nr.   9
 **********************
 DD1Dir will call FoFMem   1 times, MxPair=       182
 NAB=    91 NAA=     0 NBB=     0.
 DE(Corr)= -0.90957630     E(CORR)=     -257.68820556     Delta=-1.66D-07
 NORM(A)=   0.11327408D+01
 Iteration Nr.  10
 **********************
 DD1Dir will call FoFMem   1 times, MxPair=       182
 NAB=    91 NAA=     0 NBB=     0.
 DE(Corr)= -0.90957640     E(CORR)=     -257.68820566     Delta=-9.84D-08
 NORM(A)=   0.11327409D+01
 Iteration Nr.  11
 **********************
 DD1Dir will call FoFMem   1 times, MxPair=       182
 NAB=    91 NAA=     0 NBB=     0.
 DE(Corr)= -0.90957645     E(CORR)=     -257.68820571     Delta=-4.94D-08
 NORM(A)=   0.11327410D+01
 Iteration Nr.  12
 **********************
 DD1Dir will call FoFMem   1 times, MxPair=       182
 NAB=    91 NAA=     0 NBB=     0.
 DE(Corr)= -0.90957649     E(CORR)=     -257.68820575     Delta=-3.28D-08
 NORM(A)=   0.11327410D+01
 Iteration Nr.  13
 **********************
 DD1Dir will call FoFMem   1 times, MxPair=       182
 NAB=    91 NAA=     0 NBB=     0.
 DE(Corr)= -0.90957649     E(CORR)=     -257.68820575     Delta=-7.68D-09
 NORM(A)=   0.11327410D+01
 Iteration Nr.  14
 **********************
 DD1Dir will call FoFMem   1 times, MxPair=       182
 NAB=    91 NAA=     0 NBB=     0.
 DE(Corr)= -0.90957650     E(CORR)=     -257.68820576     Delta=-3.37D-09
 NORM(A)=   0.11327410D+01
 Largest amplitude= 7.25D-02

 Z-AMPLITUDE ITERATIONS

 Iteration Nr.   1
 **********************
 DD1Dir will call FoFMem   1 times, MxPair=       182
 NAB=    91 NAA=     0 NBB=     0.
 DE(Z)  -0.87817191D+00          E(Z)=    -0.25765680117D+03
 NORM(A)=   0.11331259D+01
 Iteration Nr.   2
 **********************
 DD1Dir will call FoFMem   1 times, MxPair=       182
 NAB=    91 NAA=     0 NBB=     0.
 DE(Z)  -0.87812846D+00          E(Z)=    -0.25765675772D+03
 NORM(A)=   0.11335703D+01
 Iteration Nr.   3
 **********************
 DD1Dir will call FoFMem   1 times, MxPair=       182
 NAB=    91 NAA=     0 NBB=     0.
 DE(Z)  -0.87807967D+00          E(Z)=    -0.25765670893D+03
 NORM(A)=   0.11355536D+01
 Iteration Nr.   4
 **********************
 DD1Dir will call FoFMem   1 times, MxPair=       182
 NAB=    91 NAA=     0 NBB=     0.
 DE(Z)  -0.87786202D+00          E(Z)=    -0.25765649128D+03
 NORM(A)=   0.11041674D+01
 Iteration Nr.   5
 **********************
 DD1Dir will call FoFMem   1 times, MxPair=       182
 NAB=    91 NAA=     0 NBB=     0.
 DE(Z)  -0.88158293D+00          E(Z)=    -0.25766021219D+03
 NORM(A)=   0.11236206D+01
 Iteration Nr.   6
 **********************
 DD1Dir will call FoFMem   1 times, MxPair=       182
 NAB=    91 NAA=     0 NBB=     0.
 DE(Z)  -0.87920456D+00          E(Z)=    -0.25765783382D+03
 NORM(A)=   0.11236205D+01
 Iteration Nr.   7
 **********************
 DD1Dir will call FoFMem   1 times, MxPair=       182
 NAB=    91 NAA=     0 NBB=     0.
 DE(Z)  -0.87920460D+00          E(Z)=    -0.25765783386D+03
 NORM(A)=   0.11236204D+01
 Iteration Nr.   8
 **********************
 DD1Dir will call FoFMem   1 times, MxPair=       182
 NAB=    91 NAA=     0 NBB=     0.
 DE(Z)  -0.87920457D+00          E(Z)=    -0.25765783383D+03
 NORM(A)=   0.11236203D+01
 Iteration Nr.   9
 **********************
 DD1Dir will call FoFMem   1 times, MxPair=       182
 NAB=    91 NAA=     0 NBB=     0.
 DE(Z)  -0.87920457D+00          E(Z)=    -0.25765783383D+03
 NORM(A)=   0.11236203D+01
 Iteration Nr.  10
 **********************
 DD1Dir will call FoFMem   1 times, MxPair=       182
 NAB=    91 NAA=     0 NBB=     0.
 DE(Z)  -0.87920456D+00          E(Z)=    -0.25765783382D+03
 NORM(A)=   0.11236203D+01
 Iteration Nr.  11
 **********************
 DD1Dir will call FoFMem   1 times, MxPair=       182
 NAB=    91 NAA=     0 NBB=     0.
 DE(Z)  -0.87920456D+00          E(Z)=    -0.25765783382D+03
 NORM(A)=   0.11236203D+01
 Discarding MO integrals.
          IDoAtm=1111111
          Differentiating once with respect to electric field.
                with respect to dipole field.
          Differentiating once with respect to nuclear coordinates.
 Keep R1 ints in memory in symmetry-blocked form, NReq=96904184.
          There are     1 degrees of freedom in the 1st order CPHF.  IDoFFX=0 NUNeed=     1.
 LinEq1:  Iter=  0 NonCon=     1 RMS=3.13D-03 Max=3.51D-02 NDo=     1
 AX will form     1 AO Fock derivatives at one time.
 LinEq1:  Iter=  1 NonCon=     1 RMS=8.89D-04 Max=1.36D-02 NDo=     1
 LinEq1:  Iter=  2 NonCon=     1 RMS=2.95D-04 Max=7.15D-03 NDo=     1
 LinEq1:  Iter=  3 NonCon=     1 RMS=9.12D-05 Max=1.52D-03 NDo=     1
 LinEq1:  Iter=  4 NonCon=     1 RMS=3.70D-05 Max=7.77D-04 NDo=     1
 LinEq1:  Iter=  5 NonCon=     1 RMS=1.23D-05 Max=2.13D-04 NDo=     1
 LinEq1:  Iter=  6 NonCon=     1 RMS=4.29D-06 Max=8.53D-05 NDo=     1
 LinEq1:  Iter=  7 NonCon=     1 RMS=2.61D-06 Max=6.66D-05 NDo=     1
 LinEq1:  Iter=  8 NonCon=     1 RMS=5.84D-07 Max=9.71D-06 NDo=     1
 LinEq1:  Iter=  9 NonCon=     1 RMS=2.19D-07 Max=4.18D-06 NDo=     1
 LinEq1:  Iter= 10 NonCon=     1 RMS=6.65D-08 Max=6.50D-07 NDo=     1
 LinEq1:  Iter= 11 NonCon=     1 RMS=1.80D-08 Max=2.18D-07 NDo=     1
 LinEq1:  Iter= 12 NonCon=     1 RMS=8.41D-09 Max=1.26D-07 NDo=     1
 LinEq1:  Iter= 13 NonCon=     1 RMS=2.54D-09 Max=3.78D-08 NDo=     1
 LinEq1:  Iter= 14 NonCon=     1 RMS=4.65D-10 Max=6.83D-09 NDo=     1
 LinEq1:  Iter= 15 NonCon=     1 RMS=8.31D-11 Max=1.31D-09 NDo=     1
 LinEq1:  Iter= 16 NonCon=     0 RMS=1.42D-11 Max=1.68D-10 NDo=     1
 Linear equations converged to 1.000D-10 1.000D-09 after    16 iterations.
 End of Minotr F.D. properties file   721 does not exist.
 End of Minotr F.D. properties file   722 does not exist.
 End of Minotr F.D. properties file   788 does not exist.
 Calling FoFJK, ICntrl=  10002127 FMM=F ISym2X=1 I1Cent= 0 IOpClX= 0 NMat=1 NMatS=1 NMatT=0.
 ***** Axes restored to original set *****
 -------------------------------------------------------------------
 Center     Atomic                   Forces (Hartrees/Bohr)
 Number     Number              X              Y              Z
 -------------------------------------------------------------------
      1        6          -0.001444454   -0.001285270    0.000000000
      2        7          -0.000151102   -0.000909644    0.000000000
      3        7           0.002732085   -0.001115598    0.000000000
      4        7          -0.000267783    0.002636463    0.000000000
      5        7          -0.000744275    0.000738065    0.000000000
      6        1          -0.000242665   -0.000059952    0.000000000
      7        1           0.000118194   -0.000004066    0.000000000
 -------------------------------------------------------------------
 Cartesian Forces:  Max     0.002732085 RMS     0.001011724
 -----------------------------------------------------------------------------------------------
                       Internal Coordinate Forces (Hartree/Bohr or radian)
  Cent   Atom   N1       Length/X         N2         Alpha/Y        N3         Beta/Z          J
 -----------------------------------------------------------------------------------------------
         X 
         X        1   0.000000(     1)
      1  C        1  -0.001663(     2)      2   0.000000(     9)
      2  N        1   0.000773(     3)      2   0.000000(    10)      3   0.000640(    16)     0
      3  N        1  -0.001118(     4)      2   0.000000(    11)      3  -0.007002(    17)     0
      4  N        1   0.001035(     5)      2   0.000000(    12)      3   0.005301(    18)     0
      5  N        1   0.000647(     6)      2   0.000000(    13)      3  -0.001507(    19)     0
      6  H        3  -0.000248(     7)      4  -0.000071(    14)      5   0.000000(    20)     0
      7  H        4   0.000044(     8)      5   0.000208(    15)      6   0.000000(    21)     0
 -----------------------------------------------------------------------------------------------
 Internal  Forces:  Max     0.007002336 RMS     0.002023965

 GradGradGradGradGradGradGradGradGradGradGradGradGradGradGradGradGradGrad
 Berny optimization.
 Search for a local minimum.
 Step number   3 out of a maximum of   22
 All quantities printed in internal units (Hartrees-Bohrs-Radians)
 Update second derivatives using D2CorN and points    1    2    3
 DE= -5.32D-05 DEPred=-6.24D-05 R= 8.51D-01
 TightC=F SS=  1.41D+00  RLast= 9.45D-02 DXNew= 5.0454D-01 2.8348D-01
 Trust test= 8.51D-01 RLast= 9.45D-02 DXMaxT set to 3.00D-01
 The second derivative matrix:
                          rn1       rn2       rn3       rn4       rch
           rn1          0.67061
           rn2          0.01988   0.65568
           rn3          0.05294   0.04179   0.55489
           rn4          0.05395   0.01274   0.12771   0.63916
           rch          0.00595  -0.00583  -0.00161   0.00289   0.37629
           rnh          0.00851  -0.00739  -0.00304   0.00220   0.00133
           an1          0.02900  -0.74013   0.05191  -0.07581   0.00484
           an2          0.71976  -0.26135  -0.64512   0.12859   0.02181
           an3         -0.02692   1.00696  -0.01087  -0.64520  -0.01521
           an4          0.04113  -0.03585   0.65319  -0.10373  -0.00250
           ach          0.04251   0.00354   0.00199   0.05078  -0.00012
           anh         -0.10226   0.05452   0.00142  -0.00014  -0.00012
                          rnh       an1       an2       an3       an4
           rnh          0.48886
           an1          0.00552   4.53544
           an2          0.02650  -2.66011   6.07182
           an3         -0.02023  -0.05048  -3.18181   4.42474
           an4         -0.00349  -0.12493  -0.06524  -1.15584   2.59126
[...]
 IR Inten    --     83.0307                 8.7907                 9.8019
  Atom  AN      X      Y      Z        X      Y      Z        X      Y      Z
     1   6     0.00   0.00  -0.09     0.00   0.00   0.18     0.00   0.00  -0.08
     2   7     0.00   0.00   0.21     0.00   0.00  -0.10     0.00   0.00  -0.12
     3   7     0.00   0.00  -0.09     0.00   0.00   0.09     0.00   0.00   0.41
     4   7     0.00   0.00   0.00     0.00   0.00   0.05     0.00   0.00  -0.47
     5   7     0.00   0.00   0.03     0.00   0.00  -0.18     0.00   0.00   0.30
     6   1     0.00   0.00  -0.23     0.00   0.00   0.51     0.00   0.00  -0.07
     7   1     0.00   0.00  -0.94     0.00   0.00  -0.81     0.00   0.00  -0.70
                      4                      5                      6
                     A"                     A'                     A'
 Frequencies --    898.4907              1002.5730              1036.4909
 Red. masses --      1.3491                 4.7585                 6.2967
 Frc consts  --      0.6417                 2.8181                 3.9856
 IR Inten    --     13.4184                 2.2096                 2.7922
  Atom  AN      X      Y      Z        X      Y      Z        X      Y      Z
     1   6     0.00   0.00   0.17     0.14   0.12   0.00    -0.34  -0.06   0.00
     2   7     0.00   0.00  -0.03     0.09   0.01   0.00    -0.01   0.42   0.00
     3   7     0.00   0.00   0.00     0.15  -0.14   0.00     0.20  -0.05   0.00
     4   7     0.00   0.00  -0.02    -0.01  -0.18   0.00     0.18  -0.10   0.00
     5   7     0.00   0.00  -0.03    -0.34   0.26   0.00    -0.06  -0.20   0.00
     6   1     0.00   0.00  -0.98     0.36  -0.60   0.00    -0.20  -0.59   0.00
     7   1     0.00   0.00  -0.05    -0.46  -0.02   0.00    -0.08   0.43   0.00
                      7                      8                      9
                     A'                     A'                     A'
 Frequencies --   1108.6693              1132.1523              1182.2904
 Red. masses --      5.5449                 2.5523                 1.8872
 Frc consts  --      4.0156                 1.9275                 1.5543
 IR Inten    --     20.4122                27.5918                10.1268
  Atom  AN      X      Y      Z        X      Y      Z        X      Y      Z
     1   6    -0.14   0.04   0.00    -0.01   0.01   0.00     0.08  -0.10   0.00
     2   7    -0.04  -0.24   0.00    -0.11  -0.06   0.00    -0.14  -0.02   0.00
     3   7     0.03   0.15   0.00     0.28   0.09   0.00    -0.03   0.04   0.00
     4   7     0.40   0.05   0.00    -0.11  -0.01   0.00     0.11   0.13   0.00
     5   7    -0.29  -0.01   0.00     0.00  -0.06   0.00     0.01  -0.01   0.00
     6   1    -0.32   0.52   0.00    -0.18   0.55   0.00     0.27  -0.68   0.00
     7   1     0.47  -0.22   0.00    -0.73  -0.11   0.00    -0.62  -0.05   0.00
                     10                     11                     12
                     A'                     A'                     A'
 Frequencies --   1316.4320              1352.5988              1519.8267
 Red. masses --      2.9955                 8.6522                 3.0151
 Frc consts  --      3.0585                 9.3264                 4.1034
 IR Inten    --      0.1244                15.6683                17.6807
  Atom  AN      X      Y      Z        X      Y      Z        X      Y      Z
     1   6     0.22   0.05   0.00     0.14   0.07   0.00    -0.18   0.19   0.00
     2   7     0.06   0.14   0.00    -0.17   0.04   0.00     0.24  -0.11   0.00
     3   7    -0.15  -0.02   0.00    -0.09   0.50   0.00    -0.09   0.08   0.00
     4   7     0.06  -0.01   0.00     0.02  -0.52   0.00     0.00  -0.02   0.00
     5   7    -0.13  -0.21   0.00     0.07  -0.04   0.00     0.06  -0.07   0.00
     6   1     0.05   0.72   0.00     0.33  -0.43   0.00    -0.04  -0.37   0.00
     7   1    -0.55   0.13   0.00     0.33   0.09   0.00    -0.81  -0.20   0.00
                     13                     14                     15
                     A'                     A'                     A'
 Frequencies --   1560.6028              3346.6657              3748.2833
 Red. masses --      3.8053                 1.1020                 1.0840
 Frc consts  --      5.4604                 7.2718                 8.9735
 IR Inten    --     17.4260                 2.0161               122.7771
  Atom  AN      X      Y      Z        X      Y      Z        X      Y      Z
     1   6     0.07   0.36   0.00     0.09   0.03   0.00     0.00   0.00   0.00
     2   7    -0.12  -0.06   0.00     0.00   0.00   0.00    -0.01   0.08   0.00
     3   7     0.09  -0.07   0.00     0.00   0.00   0.00     0.00   0.00   0.00
     4   7    -0.06   0.10   0.00     0.00   0.00   0.00     0.00   0.00   0.00
     5   7    -0.03  -0.24   0.00     0.00   0.00   0.00     0.00   0.00   0.00
     6   1     0.38  -0.49   0.00    -0.95  -0.30   0.00    -0.02   0.00   0.00
     7   1     0.61  -0.02   0.00     0.01   0.02   0.00     0.06  -0.99   0.00

 -------------------
 - Thermochemistry -
 -------------------
 Temperature   298.150 Kelvin.  Pressure   1.00000 Atm.
 Atom     1 has atomic number  6 and mass  12.00000
 Atom     2 has atomic number  7 and mass  14.00307
 Atom     3 has atomic number  7 and mass  14.00307
 Atom     4 has atomic number  7 and mass  14.00307
 Atom     5 has atomic number  7 and mass  14.00307
 Atom     6 has atomic number  1 and mass   1.00783
 Atom     7 has atomic number  1 and mass   1.00783
 Molecular mass:    70.02795 amu.
 Principal axes and moments of inertia in atomic units:
                           1         2         3
     Eigenvalues --   169.82739 172.98201 342.80939
           X            0.79493   0.60670   0.00000
           Y           -0.60670   0.79493   0.00000
           Z            0.00000   0.00000   1.00000
 This molecule is an asymmetric top.
 Rotational symmetry number  1.
 Rotational temperatures (Kelvin)      0.51001     0.50071     0.25266
 Rotational constants (GHZ):          10.62692    10.43312     5.26456
 Zero-point vibrational energy     127204.0 (Joules/Mol)
                                   30.40248 (Kcal/Mol)
 Warning -- explicit consideration of   1 degrees of freedom as
           vibrations may cause significant error
 Vibrational temperatures:    863.35  1015.87  1087.20  1292.73  1442.48
          (Kelvin)           1491.28  1595.13  1628.91  1701.05  1894.05
                             1946.09  2186.69  2245.36  4815.10  5392.94
 
 Zero-point correction=                           0.048449 (Hartree/Particle)
 Thermal correction to Energy=                    0.051859
 Thermal correction to Enthalpy=                  0.052803
 Thermal correction to Gibbs Free Energy=         0.022387
 Sum of electronic and zero-point Energies=           -257.639773
 Sum of electronic and thermal Energies=              -257.636363
 Sum of electronic and thermal Enthalpies=            -257.635419
 Sum of electronic and thermal Free Energies=         -257.665835
 
                     E (Thermal)             CV                S
                      KCal/Mol        Cal/Mol-Kelvin    Cal/Mol-Kelvin
 Total                   32.542             10.891             64.017
 Electronic               0.000              0.000              0.000
 Translational            0.889              2.981             38.656
 Rotational               0.889              2.981             23.825
 Vibrational             30.765              4.929              1.536
 Vibration     1          0.958              1.032              0.450
                       Q            Log10(Q)             Ln(Q)
 Total Bot       0.504397D-10        -10.297228        -23.710243
 Total V=0       0.972559D+12         11.987916         27.603197
 Vib (Bot)       0.609583D-22        -22.214967        -51.151852
 Vib (Bot)    1  0.248828D+00         -0.604100         -1.390991
 Vib (V=0)       0.117538D+01          0.070177          0.161588
 Vib (V=0)    1  0.105849D+01          0.024688          0.056847
 Electronic      0.100000D+01          0.000000          0.000000
 Translational   0.230336D+08          7.362362         16.952466
 Rotational      0.359234D+05          4.555377         10.489143
 ***** Axes restored to original set *****
 -------------------------------------------------------------------
 Center     Atomic                   Forces (Hartrees/Bohr)
 Number     Number              X              Y              Z
 -------------------------------------------------------------------
      1        6           0.000012870    0.000026580    0.000000000
      2        7          -0.000054283    0.000040427    0.000000000
      3        7          -0.000000835   -0.000052180    0.000000000
      4        7           0.000028632   -0.000002696    0.000000000
      5        7           0.000015924   -0.000016851    0.000000000
      6        1           0.000000746    0.000001777    0.000000000
      7        1          -0.000003055    0.000002944    0.000000000
 -------------------------------------------------------------------
 Cartesian Forces:  Max     0.000054283 RMS     0.000021340
 -----------------------------------------------------------------------------------------------
                       Internal Coordinate Forces (Hartree/Bohr or radian)
  Cent   Atom   N1       Length/X         N2         Alpha/Y        N3         Beta/Z          J
 -----------------------------------------------------------------------------------------------
         X 
         X        1   0.000000(     1)
      1  C        1   0.000012(     2)      2   0.000000(     9)
      2  N        1  -0.000055(     3)      2   0.000000(    10)      3   0.000098(    16)     0
      3  N        1   0.000034(     4)      2   0.000000(    11)      3  -0.000094(    17)     0
      4  N        1  -0.000028(     5)      2   0.000000(    12)      3   0.000016(    18)     0
      5  N        1  -0.000014(     6)      2   0.000000(    13)      3   0.000034(    19)     0
      6  H        3   0.000001(     7)      4   0.000003(    14)      5   0.000000(    20)     0
      7  H        4  -0.000004(     8)      5  -0.000004(    15)      6   0.000000(    21)     0
 -----------------------------------------------------------------------------------------------
 Internal  Forces:  Max     0.000098353 RMS     0.000034708

 GradGradGradGradGradGradGradGradGradGradGradGradGradGradGradGradGradGrad
 Berny optimization.
 Search for a local minimum.
 Step number   1 out of a maximum of    2
 All quantities printed in internal units (Hartrees-Bohrs-Radians)
 Second derivative matrix not updated -- analytic derivatives used.
 The second derivative matrix:
                          rn1       rn2       rn3       rn4       rch
           rn1          0.61755
           rn2         -0.03661   0.61749
           rn3          0.07953  -0.01036   0.59379
           rn4          0.09804   0.08007  -0.00896   0.59188
           rch         -0.00463  -0.00130   0.00077  -0.00542   0.39218
           rnh          0.01182  -0.00808   0.00072  -0.00001   0.00029
           an1          0.09900  -0.41976  -0.20559   0.12473   0.01198
           an2          0.29369  -0.10632  -0.46510  -0.15472   0.00029
           an3          0.23794   0.50754   0.19768  -0.28540   0.00109
           an4         -0.14454   0.16243   0.33426  -0.18761  -0.01421
           ach          0.03723   0.01289  -0.01519   0.03061   0.00236
           anh         -0.05239   0.02225   0.02511  -0.01955  -0.00106
                          rnh       an1       an2       an3       an4
           rnh          0.49851
           an1         -0.01078   2.65791
           an2          0.01852  -1.18698   3.15664
           an3         -0.00679  -0.25407  -1.52407   2.44590
           an4          0.00305  -0.22423  -0.30716  -0.42800   1.74769
           ach          0.00024  -0.00263  -0.01982  -0.00531   0.09250
           anh          0.00014  -0.04087  -0.01150   0.00336  -0.00456
                          ach       anh
           ach          0.22400
           anh          0.00101   0.22142
 ITU=  0
     Eigenvalues ---    0.00001   0.16642   0.21997   0.28200   0.39230
     Eigenvalues ---    0.49777   0.63951   0.72487   0.87574   2.17025
     Eigenvalues ---    3.05272   4.74342
 Angle between quadratic step and forces=  73.55 degrees.
 Linear search not attempted -- first point.
 Variable       Old X    -DE/DX   Delta X   Delta X   Delta X     New X
                                 (Linear)    (Quad)   (Total)
   rn1        2.26418  -0.00005   0.00000   0.00005   0.00005   2.26423
   rn2        2.50094   0.00003   0.00000   0.00018   0.00018   2.50112
   rn3        2.18952  -0.00003   0.00000  -0.00007  -0.00007   2.18945
   rn4        1.88715  -0.00001   0.00000  -0.00017  -0.00017   1.88698
   rch        2.03227   0.00000   0.00000   0.00000   0.00000   2.03227
   rnh        1.89744   0.00000   0.00000   0.00000   0.00000   1.89743
   an1        1.30123   0.00010   0.00000  -0.00001  -0.00001   1.30122
   an2        2.41626  -0.00009   0.00000  -0.00012  -0.00012   2.41614
   an3        3.49872   0.00002   0.00000  -0.00013  -0.00013   3.49858
   an4        4.85444   0.00003   0.00000  -0.00005  -0.00005   4.85439
   ach        2.17648   0.00000   0.00000   0.00002   0.00002   2.17651
   anh        2.10047   0.00000   0.00000  -0.00004  -0.00004   2.10044
         Item               Value     Threshold  Converged?
 Maximum Force            0.000098     0.000450     YES
 RMS     Force            0.000046     0.000300     YES
 Maximum Displacement     0.000181     0.001800     YES
 RMS     Displacement     0.000095     0.001200     YES
 Predicted change in Energy=-7.382167D-09
 Optimization completed.
    -- Stationary point found.
                       ----------------------------
                       !   Optimized Parameters   !
                       ! (Angstroms and Degrees)  !
 ----------------------                            ----------------------
 !      Name          Value   Derivative information (Atomic Units)     !
 ------------------------------------------------------------------------
 !       rn1         1.1982   -DE/DX =   -0.0001                        !
 !       rn2         1.3234   -DE/DX =    0.0                           !
 !       rn3         1.1586   -DE/DX =    0.0                           !
 !       rn4         0.9986   -DE/DX =    0.0                           !
 !       rch         1.0754   -DE/DX =    0.0                           !
 !       rnh         1.0041   -DE/DX =    0.0                           !
 !       an1        74.5547   -DE/DX =    0.0001                        !
 !       an2       138.4417   -DE/DX =   -0.0001                        !
 !       an3       200.4617   -DE/DX =    0.0                           !
 !       an4       278.1391   -DE/DX =    0.0                           !
 !       ach       124.7033   -DE/DX =    0.0                           !
 !       anh       120.3483   -DE/DX =    0.0                           !
 ------------------------------------------------------------------------
 GradGradGradGradGradGradGradGradGradGradGradGradGradGradGradGradGradGrad

 1\1\GINC-N238\Freq\RCCD-FC\6-31G(2df,p)\C1H2N4\RDJ3\10-Dec-2013\1\\#N 
 Geom=AllCheck Guess=TCheck SCRF=Check GenChk RCCD(FC)/6-31G(2df,p) Fre
 q\\1H-tetrazole CH2N4 casno=288948 state=1 config=1 method=6 basis=19\
 \0,1\X\X,1,1.\C,1,1.,2,90.\N,1,rn1,2,90.,3,an1,0\N,1,rn2,2,90.,3,an2,0
 \N,1,rn3,2,90.,3,an3,0\N,1,rn4,2,90.,3,an4,0\H,3,rch,4,ach,5,180.,0\H,
 4,rnh,5,anh,6,180.,0\\rn1=1.19815364\rn2=1.32343996\rn3=1.15864208\rn4
 =0.99863907\rch=1.07542866\rnh=1.00408004\an1=74.55471326\an2=138.4417
 2986\an3=200.46174345\an4=278.13910153\ach=124.70326049\anh=120.348302
 1\\Version=EM64L-G09RevD.01\State=1-A'\HF=-256.7785549\MP2=-257.693452
 5\MP3=-257.6922482\MP4D=-257.7161785\MP4DQ=-257.6874371\CCD=-257.68822
 19\RMSD=1.529e-09\RMSF=2.134e-05\ZeroPoint=0.0484494\Thermal=0.051859\
 Dipole=1.6012812,-1.3680364,0.\DipoleDeriv=0.2232735,0.111766,0.,-0.05
 98649,0.4832081,0.,0.,0.,0.1207731,-0.2789395,0.2027794,0.,0.2052601,-
 0.4218677,0.,0.,0.,-0.1388994,0.1182385,-0.3178997,0.,-0.3145383,-0.15
 36434,0.,0.,0.,-0.1010836,0.0907842,0.095762,0.,0.1988841,-0.044567,0.
 ,0.,0.,-0.1545752,-0.4363042,-0.0669718,0.,-0.0152702,-0.2981104,0.,0.
 ,0.,-0.2166423,0.0695825,0.0130117,0.,0.0098406,0.11402,0.,0.,0.,0.154
 4213,0.21308,-0.0387851,0.,-0.0243088,0.3209382,0.,0.,0.,0.3360805\Qua
 drupole=0.4833685,-0.0125693,-0.4707992,-1.6295079,0.,0.\QuadrupoleDer
 iv=2.4832252,-1.6120749,-0.8711503,0.5984665,0.,0.,0.3051695,-0.335369
 6,0.0302001,1.1699903,0.,0.,0.,0.,0.,0.,-0.1068765,0.0347684,0.533132,
 -0.4133597,-0.1197723,-0.5507396,0.,0.,0.5582542,-0.8475487,0.2892945,
 0.3630811,0.,0.,0.,0.,0.,0.,-0.4506495,0.726375,-1.3456445,1.1037473,0
 .2418972,-1.1582425,0.,0.,0.4299925,-0.6629046,0.2329121,-0.4124206,0.
 ,0.,0.,0.,0.,0.,0.5657801,0.5696153,-1.048375,0.7950331,0.2533419,0.70
 03225,0.,0.,-0.6903768,0.9298861,-0.2395092,-0.9265172,0.,0.,0.,0.,0.,
 0.,0.6825077,-0.3974204,0.1762022,-0.3296434,0.1534413,0.2089158,0.,0.
 ,-0.5245632,0.67089,-0.1463268,0.1498981,0.,0.,0.,0.,0.,0.,-0.4169923,
 -0.967251,0.7495505,-0.3096002,-0.4399503,0.0941744,0.,0.,-0.0577622,0
 .1394466,-0.0816845,0.8265163,0.,0.,0.,0.,0.,0.,0.8039119,0.0611986,0.
 5869635,-0.3018147,-0.2851488,-1.2607618,0.,0.,0.891501,-1.7186884,0.8
 271874,0.4317523,0.,0.,0.,0.,0.,0.,0.5232583,-1.3954658\PG=CS [SG(C1H2
 N4)]\NImag=0\\0.99968233,-0.00415468,0.66635519,0.,0.,0.14907099,-0.18
 634103,-0.10490663,0.,0.63772708,-0.12065802,-0.29165283,0.,-0.0905508
 2,1.06362348,0.,0.,-0.06470977,0.,0.,0.09637542,-0.10108858,-0.0758587
 1,0.,-0.28244908,-0.02304395,0.,0.52487733,0.00677328,-0.02984637,0.,0
 .02592835,-0.10743848,0.,0.06136148,0.61559411,0.,0.,0.02121027,0.,0.,
 -0.07153711,0.,0.,0.12039286,-0.12007113,0.07990887,0.,-0.06507201,0.0
 3105650,0.,-0.12081694,-0.01151675,0.,0.52443423,-0.02317525,0.0337865
 8,0.,0.10886998,-0.11338789,0.,0.05714852,-0.38149197,0.,-0.09559423,0
 .57957233,0.,0.,0.01931113,0.,0.,0.02789251,0.,0.,-0.10128216,0.,0.,0.
 12938849,-0.23384951,0.14510946,0.,0.01058671,0.08642535,0.,-0.0241123
 3,-0.12080109,0.,-0.20538420,-0.05250868,0.,0.46490834,0.14916515,-0.3
 1057973,0.,-0.02779185,-0.10552553,0.,-0.01723649,-0.09078779,0.,-0.00
 818203,-0.11902005,0.,-0.08124632,0.61772056,0.,0.,-0.08221978,0.,0.,0
 .02183269,0.,0.,0.03729390,0.,0.,-0.09323495,0.,0.,0.11347838,-0.37537
 767,-0.02625010,0.,-0.00423104,0.00405889,0.,0.00096303,0.00104553,0.,
 -0.00102819,0.00100630,0.,-0.01009644,-0.00512591,0.,0.39022051,-0.023
 00622,-0.06148172,0.,-0.03276949,0.00473613,0.,-0.00205426,-0.00687513
 ,0.,0.00652625,-0.00366684,0.,0.02533872,0.01115204,0.,0.02571578,0.05
 619946,0.,0.,-0.03320905,0.,0.,-0.00236726,0.,0.,0.00661433,0.,0.,0.00
 955328,0.,0.,-0.00480083,0.,0.,0.02515247,0.01706110,-0.01385439,0.,-0
 .11020981,0.11271504,0.,0.00262270,0.03719035,0.,-0.01205394,0.0042711
 4,0.,-0.00207559,-0.00958516,0.,-0.00045889,0.00025272,0.,0.10511584,0
 .01507145,-0.00664418,0.,0.12123649,-0.45030745,0.,-0.00033787,0.00082
 660,0.,-0.00215714,0.00421795,0.,-0.00237426,-0.00293530,0.,-0.0004486
 4,-0.00006107,0.,-0.13098665,0.45490097,0.,0.,-0.00945778,0.,0.,-0.007
 49435,0.,0.,-0.01268255,0.,0.,0.00837862,0.,0.,0.00764013,0.,0.,-0.000
 94041,0.,0.,0.01455967\\-0.00001287,-0.00002658,0.,0.00005428,-0.00004
 043,0.,0.00000083,0.00005218,0.,-0.00002863,0.00000270,0.,-0.00001592,
 0.00001685,0.,-0.00000075,-0.00000178,0.,0.00000306,-0.00000294,0.\\\@


 NEVER LISTEN TO CRITICISM
 OR YOU'LL BE DOIN' EVERYBODY ELSE'S THING BUT BUT YOUR OWN.

                                               -- ANDY CAPP
 Job cpu time:       2 days 11 hours 50 minutes 55.7 seconds.
 File lengths (MBytes):  RWF=   7980 Int=      0 D2E=      0 Chk=     42 Scr=      1
 Normal termination of Gaussian 09 at Tue Dec 10 09:10:29 2013.
