 Entering Gaussian System, Link 0=g09
 Initial command:
 /usr/local/gaussian/g09.d01.em64t.legacy.linda/g09/l1.exe "/tmp/rdj3/g09-28781/Gau-15457.inp" -scrdir="/tmp/rdj3/g09-28781/"
 Entering Link 1 = /usr/local/gaussian/g09.d01.em64t.legacy.linda/g09/l1.exe PID=     15458.
  
 Copyright (c) 1988,1990,1992,1993,1995,1998,2003,2009,2013,
            Gaussian, Inc.  All Rights Reserved.
  
 This is part of the Gaussian(R) 09 program.  It is based on
 the Gaussian(R) 03 system (copyright 2003, Gaussian, Inc.),
 the Gaussian(R) 98 system (copyright 1998, Gaussian, Inc.),
 the Gaussian(R) 94 system (copyright 1995, Gaussian, Inc.),
 the Gaussian 92(TM) system (copyright 1992, Gaussian, Inc.),
 the Gaussian 90(TM) system (copyright 1990, Gaussian, Inc.),
 the Gaussian 88(TM) system (copyright 1988, Gaussian, Inc.),
 the Gaussian 86(TM) system (copyright 1986, Carnegie Mellon
 University), and the Gaussian 82(TM) system (copyright 1983,
 Carnegie Mellon University). Gaussian is a federally registered
 trademark of Gaussian, Inc.
  
 This software contains proprietary and confidential information,
 including trade secrets, belonging to Gaussian, Inc.
  
 This software is provided under written license and may be
 used, copied, transmitted, or stored only in accord with that
 written license.
  
 The following legend is applicable only to US Government
 contracts under FAR:
  
                    RESTRICTED RIGHTS LEGEND
  
 Use, reproduction and disclosure by the US Government is
 subject to restrictions as set forth in subparagraphs (a)
 and (c) of the Commercial Computer Software - Restricted
 Rights clause in FAR 52.227-19.
  
 Gaussian, Inc.
 340 Quinnipiac St., Bldg. 40, Wallingford CT 06492
  
  
 ---------------------------------------------------------------
 Warning -- This program may not be used in any manner that
 competes with the business of Gaussian, Inc. or will provide
 assistance to any competitor of Gaussian, Inc.  The licensee
 of this program is prohibited from giving any competitor of
 Gaussian, Inc. access to this program.  By using this program,
 the user acknowledges that Gaussian, Inc. is engaged in the
 business of creating and licensing software in the field of
 computational chemistry and represents and warrants to the
 licensee that it is not a competitor of Gaussian, Inc. and that
 it will not use this program in any manner prohibited above.
 ---------------------------------------------------------------
  

 Cite this work as:
 Gaussian 09, Revision D.01,
 M. J. Frisch, G. W. Trucks, H. B. Schlegel, G. E. Scuseria, 
 M. A. Robb, J. R. Cheeseman, G. Scalmani, V. Barone, B. Mennucci, 
 G. A. Petersson, H. Nakatsuji, M. Caricato, X. Li, H. P. Hratchian, 
 A. F. Izmaylov, J. Bloino, G. Zheng, J. L. Sonnenberg, M. Hada, 
 M. Ehara, K. Toyota, R. Fukuda, J. Hasegawa, M. Ishida, T. Nakajima, 
 Y. Honda, O. Kitao, H. Nakai, T. Vreven, J. A. Montgomery, Jr., 
 J. E. Peralta, F. Ogliaro, M. Bearpark, J. J. Heyd, E. Brothers, 
 K. N. Kudin, V. N. Staroverov, T. Keith, R. Kobayashi, J. Normand, 
 K. Raghavachari, A. Rendell, J. C. Burant, S. S. Iyengar, J. Tomasi, 
 M. Cossi, N. Rega, J. M. Millam, M. Klene, J. E. Knox, J. B. Cross, 
 V. Bakken, C. Adamo, J. Jaramillo, R. Gomperts, R. E. Stratmann, 
 O. Yazyev, A. J. Austin, R. Cammi, C. Pomelli, J. W. Ochterski, 
 R. L. Martin, K. Morokuma, V. G. Zakrzewski, G. A. Voth, 
 P. Salvador, J. J. Dannenberg, S. Dapprich, A. D. Daniels, 
 O. Farkas, J. B. Foresman, J. V. Ortiz, J. Cioslowski, 
 and D. J. Fox, Gaussian, Inc., Wallingford CT, 2013.
 
 ******************************************
 Gaussian 09:  EM64L-G09RevD.01 24-Apr-2013
                17-Dec-2013 
 ******************************************
 %Nproc=8
 Will use up to    8 processors via shared memory.
 %mem=436000000
 ------------------------
 #TPSSh/6-31+G** opt freq
 ------------------------
 ------------------------------------------------------------------
 1H-tetrazole CH2N4 casno=288948 state=1 config=1 method=75 basis=4
 ------------------------------------------------------------------
 Symbolic Z-matrix:
 Charge =  0 Multiplicity = 1
 X
 X                    1     1. 
 C                    1     1.       2     90. 
 N                    1    rn1      2     90.      3    an1      0
 N                    1    rn2      2     90.      3    an2      0
 N                    1    rn3      2     90.      3    an3      0
 N                    1    rn4      2     90.      3    an4      0
 H                    3    rch      4    ach      5     180.     0
 H                    4    rnh      5    anh      6     180.     0
       Variables:
  rn1                   1.2426                   
  rn2                   1.333                    
  rn3                   1.1146                   
  rn4                   0.9264                   
  rch                   1.0678                   
  rnh                   0.9941                   
  an1                  71.8427                   
  an2                 133.7028                   
  an3                 194.4597                   
  an4                 276.0768                   
  ach                 125.0248                   
  anh                 120.7626                   
 

 GradGradGradGradGradGradGradGradGradGradGradGradGradGradGradGradGradGrad
 Initialization pass.
                           ----------------------------
                           !    Initial Parameters    !
                           ! (Angstroms and Degrees)  !
 --------------------------                            --------------------------
 ! Name  Definition              Value          Derivative Info.                !
 --------------------------------------------------------------------------------
 ! R1    R(1,2)                  1.3303         estimate D2E/DX2                !
 ! R2    R(1,5)                  1.2892         estimate D2E/DX2                !
 ! R3    R(1,6)                  1.0678         estimate D2E/DX2                !
 ! R4    R(2,3)                  1.3261         estimate D2E/DX2                !
 ! R5    R(2,7)                  0.9941         estimate D2E/DX2                !
 ! R6    R(3,4)                  1.252          estimate D2E/DX2                !
 ! R7    R(4,5)                  1.3414         estimate D2E/DX2                !
 ! A1    A(2,1,5)              108.177          estimate D2E/DX2                !
 ! A2    A(2,1,6)              125.0248         estimate D2E/DX2                !
 ! A3    A(5,1,6)              126.7982         estimate D2E/DX2                !
 ! A4    A(1,2,3)              108.008          estimate D2E/DX2                !
 ! A5    A(1,2,7)              131.2294         estimate D2E/DX2                !
 ! A6    A(3,2,7)              120.7626         estimate D2E/DX2                !
 ! A7    A(2,3,4)              106.684          estimate D2E/DX2                !
 ! A8    A(3,4,5)              111.3724         estimate D2E/DX2                !
 ! A9    A(1,5,4)              105.7586         estimate D2E/DX2                !
 ! D1    D(5,1,2,3)              0.0            estimate D2E/DX2                !
 ! D2    D(5,1,2,7)            180.0            estimate D2E/DX2                !
 ! D3    D(6,1,2,3)            180.0            estimate D2E/DX2                !
 ! D4    D(6,1,2,7)              0.0            estimate D2E/DX2                !
 ! D5    D(2,1,5,4)              0.0            estimate D2E/DX2                !
 ! D6    D(6,1,5,4)            180.0            estimate D2E/DX2                !
 ! D7    D(1,2,3,4)              0.0            estimate D2E/DX2                !
 ! D8    D(7,2,3,4)            180.0            estimate D2E/DX2                !
 ! D9    D(2,3,4,5)              0.0            estimate D2E/DX2                !
 ! D10   D(3,4,5,1)              0.0            estimate D2E/DX2                !
 --------------------------------------------------------------------------------
 Number of steps in this run=     36 maximum allowed number of steps=    100.
 GradGradGradGradGradGradGradGradGradGradGradGradGradGradGradGradGradGrad

                    Distance matrix (angstroms):
                    1          2          3          4          5
     1  C    0.000000
     2  N    1.330263   0.000000
     3  N    2.149157   1.326105   0.000000
     4  N    2.097837   2.068690   1.252032   0.000000
     5  N    1.289216   2.121715   2.142710   1.341447   0.000000
     6  H    1.067800   2.130794   3.177672   3.140719   2.109850
     7  H    2.121551   0.994100   2.023695   3.005127   3.097029
                    6          7
     6  H    0.000000
     7  H    2.601385   0.000000
 Framework group  CS[SG(CH2N4)]
 Deg. of freedom    11
                         Standard orientation:                         
 ---------------------------------------------------------------------
 Center     Atomic      Atomic             Coordinates (Angstroms)
 Number     Number       Type             X           Y           Z
 ---------------------------------------------------------------------
      1          6           0        1.052733    0.225621    0.000000
      2          7           0        0.000000    1.038857    0.000000
      3          7           0       -1.095416    0.291448    0.000000
      4          7           0       -0.716382   -0.901832    0.000000
      5          7           0        0.622191   -0.989579    0.000000
      6          1           0        2.072287    0.542964    0.000000
      7          1           0       -0.061439    2.031056    0.000000
 ---------------------------------------------------------------------
 Rotational constants (GHZ):     10.9201517     10.7345054      5.4132664
   105 basis functions,   174 primitive gaussians,   105 cartesian basis functions
    18 alpha electrons       18 beta electrons
       nuclear repulsion energy       169.8308489506 Hartrees.
 NAtoms=    7 NActive=    7 NUniq=    7 SFac= 1.00D+00 NAtFMM=   60 NAOKFM=F Big=F
 ExpMin= 4.38D-02 ExpMax= 4.17D+03 ExpMxC= 6.27D+02 IAcc=2 IRadAn=         4 AccDes= 0.00D+00
 Harris functional with IExCor= 1009 and IRadAn=       4 diagonalized for initial guess.
 HarFok:  IExCor= 1009 AccDes= 0.00D+00 IRadAn=         4 IDoV= 1 UseB2=F ITyADJ=14
 ICtDFT=  3500011 ScaDFX=  1.000000  1.000000  1.000000  1.000000
 FoFCou: FMM=F IPFlag=           0 FMFlag=      100000 FMFlg1=           0
         NFxFlg=           0 DoJE=T BraDBF=F KetDBF=T FulRan=T
         wScrn=  0.000000 ICntrl=     500 IOpCl=  0 I1Cent=   200000004 NGrid=           0
         NMat0=    1 NMatS0=      1 NMatT0=    0 NMatD0=    1 NMtDS0=    0 NMtDT0=    0
 Petite list used in FoFCou.
 Initial guess orbital symmetries:
       Occupied  (A') (A') (A') (A') (A') (A') (A') (A') (A') (A')
                 (A') (A') (A") (A') (A") (A') (A") (A')
       Virtual   (A") (A") (A') (A') (A') (A") (A') (A') (A') (A')
                 (A") (A") (A') (A') (A') (A') (A") (A') (A") (A')
                 (A') (A') (A') (A') (A') (A') (A') (A') (A') (A")
                 (A') (A') (A') (A') (A') (A") (A') (A") (A') (A")
                 (A") (A') (A') (A') (A') (A') (A") (A') (A') (A')
                 (A") (A") (A') (A") (A") (A') (A') (A') (A') (A')
                 (A") (A') (A') (A") (A") (A') (A") (A') (A') (A")
                 (A') (A') (A") (A') (A") (A') (A') (A') (A') (A')
                 (A') (A') (A') (A') (A') (A') (A')
 The electronic state of the initial guess is 1-A'.
 SCF Done:  E(RTPSSh) =  -258.276329630     A.U. after   12 cycles
            NFock= 12  Conv=0.37D-08     -V/T= 2.0064

 **********************************************************************

            Population analysis using the SCF density.

 **********************************************************************

 Orbital symmetries:
       Occupied  (A') (A') (A') (A') (A') (A') (A') (A') (A') (A')
                 (A') (A") (A') (A') (A") (A") (A') (A')
       Virtual   (A") (A') (A") (A') (A') (A") (A') (A') (A') (A")
                 (A") (A') (A') (A') (A') (A') (A") (A') (A") (A')
                 (A') (A') (A') (A') (A') (A') (A') (A') (A') (A")
                 (A') (A') (A') (A') (A') (A") (A") (A') (A") (A')
                 (A') (A") (A') (A') (A') (A') (A") (A') (A') (A")
                 (A') (A") (A') (A") (A") (A') (A') (A') (A') (A')
                 (A") (A') (A') (A") (A") (A') (A") (A') (A') (A")
                 (A') (A') (A") (A') (A") (A') (A') (A') (A') (A')
                 (A') (A') (A') (A') (A') (A') (A')
 The electronic state is 1-A'.
 Alpha  occ. eigenvalues --  -14.38585 -14.34863 -14.33004 -14.30176 -10.21774
 Alpha  occ. eigenvalues --   -1.15333  -0.94538  -0.89467  -0.67683  -0.66244
 Alpha  occ. eigenvalues --   -0.59548  -0.50106  -0.49586  -0.37453  -0.33112
 Alpha  occ. eigenvalues --   -0.31224  -0.29297  -0.27858
 Alpha virt. eigenvalues --   -0.03749  -0.01387  -0.00360   0.02399   0.04343
 Alpha virt. eigenvalues --    0.05195   0.07400   0.09202   0.11101   0.12823
 Alpha virt. eigenvalues --    0.14218   0.15143   0.16892   0.18250   0.18375
 Alpha virt. eigenvalues --    0.20683   0.20830   0.22205   0.22292   0.22630
 Alpha virt. eigenvalues --    0.24204   0.25312   0.27113   0.30510   0.32355
 Alpha virt. eigenvalues --    0.32919   0.38136   0.44805   0.46722   0.63796
 Alpha virt. eigenvalues --    0.75419   0.77079   0.80573   0.83084   0.83898
 Alpha virt. eigenvalues --    0.85059   0.87591   0.89118   0.93233   0.93350
 Alpha virt. eigenvalues --    0.94567   0.96306   0.98119   1.03626   1.06458
 Alpha virt. eigenvalues --    1.09613   1.21828   1.22635   1.26225   1.31253
 Alpha virt. eigenvalues --    1.31796   1.33070   1.45300   1.50910   1.51845
 Alpha virt. eigenvalues --    1.57021   1.67381   1.87786   1.90610   1.97491
 Alpha virt. eigenvalues --    2.07559   2.08425   2.19461   2.21036   2.26845
 Alpha virt. eigenvalues --    2.31907   2.37117   2.39072   2.46881   2.52293
 Alpha virt. eigenvalues --    2.58131   2.63119   2.65015   2.67067   2.74800
 Alpha virt. eigenvalues --    2.80532   2.87175   2.95894   3.09566   3.16864
 Alpha virt. eigenvalues --    3.36250   3.72771   3.93833   4.00977   4.24487
 Alpha virt. eigenvalues --    4.30203   4.55254
          Condensed to atoms (all electrons):
 Mulliken charges:
               1
     1  C    0.014119
     2  N   -0.296766
     3  N    0.006918
     4  N   -0.008626
     5  N   -0.252927
     6  H    0.193362
     7  H    0.343920
 Sum of Mulliken charges =   0.00000
 Mulliken charges with hydrogens summed into heavy atoms:
               1
     1  C    0.207481
     2  N    0.047154
     3  N    0.006918
     4  N   -0.008626
     5  N   -0.252927
 Electronic spatial extent (au):  <R**2>=            245.2756
 Charge=              0.0000 electrons
 Dipole moment (field-independent basis, Debye):
    X=              2.5640    Y=              4.8457    Z=              0.0000  Tot=              5.4823
 Calling FoFJK, ICntrl=      2127 FMM=F ISym2X=1 I1Cent= 0 IOpClX= 0 NMat=1 NMatS=1 NMatT=0.

 GradGradGradGradGradGradGradGradGradGradGradGradGradGradGradGradGradGrad
 FormGI is forming the generalized inverse of G from B-inverse, IUseBI=4.
 Internal  Forces:  Max     0.051334641 RMS     0.015764816
 Step number   1 out of a maximum of   36
 All quantities printed in internal units (Hartrees-Bohrs-Radians)
 Mixed Optimization -- RFO/linear search
 Second derivative matrix not updated -- first step.
 ITU=  0
     Eigenvalues ---    0.02505   0.02639   0.02674   0.02834   0.16000
     Eigenvalues ---    0.16000   0.22605   0.24688   0.37510   0.48741
     Eigenvalues ---    0.50870   0.56601   0.58498   0.66939   0.78934
 Linear search not attempted -- first point.
 Iteration  1 RMS(Cart)=  0.02449741 RMS(Int)=  0.00003330
 Iteration  2 RMS(Cart)=  0.00002579 RMS(Int)=  0.00002001
 Iteration  3 RMS(Cart)=  0.00000000 RMS(Int)=  0.00002001
 ClnCor:  largest displacement from symmetrization is 1.55D-11 for atom     1.
 Variable       Old X    -DE/DX   Delta X   Delta X   Delta X     New X
                                 (Linear)    (Quad)   (Total)
    R1        2.51383   0.02596   0.00000   0.04068   0.04065   2.55448
    R2        2.43626   0.03731   0.00000   0.05117   0.05116   2.48742
    R3        2.01785   0.00812   0.00000   0.02111   0.02111   2.03896
    R4        2.50598   0.02832   0.00000   0.04615   0.04615   2.55212
    R5        1.87858   0.01584   0.00000   0.03189   0.03189   1.91046
    R6        2.36600   0.05133   0.00000   0.06322   0.06325   2.42925
    R7        2.53497   0.02459   0.00000   0.04410   0.04412   2.57908
    A1        1.88804   0.00267   0.00000   0.00191   0.00187   1.88991
    A2        2.18209  -0.00144   0.00000  -0.00155  -0.00152   2.18057
    A3        2.21305  -0.00124   0.00000  -0.00037  -0.00035   2.21270
    A4        1.88509   0.00263   0.00000   0.00509   0.00507   1.89016
    A5        2.29039  -0.00124   0.00000  -0.00206  -0.00205   2.28834
    A6        2.10770  -0.00140   0.00000  -0.00303  -0.00302   2.10469
    A7        1.86199  -0.00297   0.00000  -0.00573  -0.00569   1.85629
    A8        1.94382  -0.00267   0.00000  -0.00074  -0.00069   1.94312
    A9        1.84584   0.00033   0.00000  -0.00054  -0.00055   1.84529
    D1        0.00000   0.00000   0.00000   0.00000   0.00000   0.00000
    D2        3.14159   0.00000   0.00000   0.00000   0.00000   3.14159
    D3        3.14159   0.00000   0.00000   0.00000   0.00000   3.14159
    D4        0.00000   0.00000   0.00000   0.00000   0.00000   0.00000
    D5        0.00000   0.00000   0.00000   0.00000   0.00000   0.00000
    D6        3.14159   0.00000   0.00000   0.00000   0.00000   3.14159
    D7        0.00000   0.00000   0.00000   0.00000   0.00000   0.00000
    D8        3.14159   0.00000   0.00000   0.00000   0.00000   3.14159
    D9        0.00000   0.00000   0.00000   0.00000   0.00000   0.00000
   D10        0.00000   0.00000   0.00000   0.00000   0.00000   0.00000
         Item               Value     Threshold  Converged?
 Maximum Force            0.051335     0.000450     NO 
 RMS     Force            0.015765     0.000300     NO 
 Maximum Displacement     0.053085     0.001800     NO 
 RMS     Displacement     0.024490     0.001200     NO 
 GradGradGradGradGradGradGradGradGradGradGradGradGradGradGradGradGradGrad

                    Distance matrix (angstroms):
                    1          2          3          4          5
     1  C    0.000000
     2  N    1.351775   0.000000
     3  N    2.190333   1.350525   0.000000
     4  N    2.137558   2.110529   1.285504   0.000000
     5  N    1.316286   2.162488   2.188986   1.364792   0.000000
     6  H    1.078972   2.159172   3.228716   3.191014   2.144164
     7  H    2.155586   1.010974   2.058057   3.063570   3.154141
                    6          7
     6  H    0.000000
     7  H    2.637296   0.000000
 Framework group  CS[SG(CH2N4)]
 Deg. of freedom    11
                         Standard orientation:                         
 ---------------------------------------------------------------------
 Center     Atomic      Atomic             Coordinates (Angstroms)
 Number     Number       Type             X           Y           Z
 ---------------------------------------------------------------------
      1          6           0        1.071001    0.233018    0.000000
      2          7           0        0.000000    1.057792    0.000000
      3          7           0       -1.118289    0.300596    0.000000
      4          7           0       -0.726507   -0.923752    0.000000
      5          7           0        0.635609   -1.009175    0.000000
      6          1           0        2.100246    0.556801    0.000000
      7          1           0       -0.061936    2.066867    0.000000
 ---------------------------------------------------------------------
 Rotational constants (GHZ):     10.4988718     10.3359381      5.2083839
   105 basis functions,   174 primitive gaussians,   105 cartesian basis functions
    18 alpha electrons       18 beta electrons
       nuclear repulsion energy       166.5778812190 Hartrees.
 NAtoms=    7 NActive=    7 NUniq=    7 SFac= 1.00D+00 NAtFMM=   60 NAOKFM=F Big=F
 Initial guess from the checkpoint file:  "/tmp/rdj3/g09-28781/Gau-15458.chk"
 B after Tr=     0.000000    0.000000    0.000000
         Rot=    1.000000    0.000000    0.000000   -0.000619 Ang=  -0.07 deg.
 Initial guess orbital symmetries:
       Occupied  (A') (A') (A') (A') (A') (A') (A') (A') (A') (A')
                 (A') (A") (A') (A') (A") (A") (A') (A')
       Virtual   (A') (A') (A') (A') (A') (A') (A') (A') (A') (A')
                 (A') (A') (A') (A') (A') (A') (A') (A') (A') (A')
                 (A') (A') (A') (A') (A') (A') (A') (A') (A') (A')
                 (A') (A') (A') (A') (A') (A') (A') (A') (A') (A')
                 (A') (A') (A') (A') (A') (A') (A') (A') (A') (A')
                 (A') (A') (A') (A') (A') (A') (A') (A') (A') (A')
                 (A') (A') (A') (A") (A") (A") (A") (A") (A") (A")
                 (A") (A") (A") (A") (A") (A") (A") (A") (A") (A")
                 (A") (A") (A") (A") (A") (A") (A")
 ExpMin= 4.38D-02 ExpMax= 4.17D+03 ExpMxC= 6.27D+02 IAcc=2 IRadAn=         4 AccDes= 0.00D+00
 Harris functional with IExCor= 1009 and IRadAn=       4 diagonalized for initial guess.
 HarFok:  IExCor= 1009 AccDes= 0.00D+00 IRadAn=         4 IDoV= 1 UseB2=F ITyADJ=14
 ICtDFT=  3500011 ScaDFX=  1.000000  1.000000  1.000000  1.000000
 FoFCou: FMM=F IPFlag=           0 FMFlag=      100000 FMFlg1=           0
         NFxFlg=           0 DoJE=T BraDBF=F KetDBF=T FulRan=T
         wScrn=  0.000000 ICntrl=     500 IOpCl=  0 I1Cent=   200000004 NGrid=           0
         NMat0=    1 NMatS0=      1 NMatT0=    0 NMatD0=    1 NMtDS0=    0 NMtDT0=    0
 Petite list used in FoFCou.
 SCF Done:  E(RTPSSh) =  -258.281283805     A.U. after   12 cycles
            NFock= 12  Conv=0.56D-09     -V/T= 2.0080
 Calling FoFJK, ICntrl=      2127 FMM=F ISym2X=1 I1Cent= 0 IOpClX= 0 NMat=1 NMatS=1 NMatT=0.

 GradGradGradGradGradGradGradGradGradGradGradGradGradGradGradGradGradGrad
 Using GEDIIS/GDIIS optimizer.
 FormGI is forming the generalized inverse of G from B-inverse, IUseBI=4.
 Internal  Forces:  Max     0.008204311 RMS     0.001978118
 Step number   2 out of a maximum of   36
 All quantities printed in internal units (Hartrees-Bohrs-Radians)
 Mixed Optimization -- RFO/linear search
 Trust test= 1.05D+00 RLast= 1.18D-01 DXMaxT set to 3.54D-01
 ITU=  1  0
 Use linear search instead of GDIIS.
     Eigenvalues ---    0.02505   0.02639   0.02674   0.02834   0.15999
     Eigenvalues ---    0.16000   0.22549   0.24560   0.37667   0.48872
     Eigenvalues ---    0.50782   0.55746   0.59550   0.67330   0.73099
 Quartic linear search produced a step of  0.10916.
 Iteration  1 RMS(Cart)=  0.00355411 RMS(Int)=  0.00001562
 Iteration  2 RMS(Cart)=  0.00001493 RMS(Int)=  0.00000735
 Iteration  3 RMS(Cart)=  0.00000000 RMS(Int)=  0.00000735
 ClnCor:  largest displacement from symmetrization is 2.48D-13 for atom     1.
 Variable       Old X    -DE/DX   Delta X   Delta X   Delta X     New X
                                 (Linear)    (Quad)   (Total)
    R1        2.55448  -0.00084   0.00444  -0.00618  -0.00175   2.55274
    R2        2.48742   0.00206   0.00558  -0.00193   0.00364   2.49106
    R3        2.03896  -0.00043   0.00230  -0.00301  -0.00071   2.03825
    R4        2.55212   0.00284   0.00504   0.00123   0.00627   2.55839
    R5        1.91046   0.00020   0.00348  -0.00228   0.00120   1.91167
    R6        2.42925   0.00820   0.00690   0.00612   0.01303   2.44229
    R7        2.57908   0.00184   0.00482   0.00040   0.00522   2.58430
    A1        1.88991   0.00110   0.00020   0.00047   0.00066   1.89058
    A2        2.18057  -0.00054  -0.00017  -0.00017  -0.00033   2.18024
    A3        2.21270  -0.00055  -0.00004  -0.00030  -0.00034   2.21236
    A4        1.89016   0.00211   0.00055   0.00730   0.00785   1.89801
    A5        2.28834  -0.00089  -0.00022  -0.00255  -0.00278   2.28556
    A6        2.10469  -0.00122  -0.00033  -0.00475  -0.00508   2.09961
    A7        1.85629  -0.00303  -0.00062  -0.01006  -0.01066   1.84563
    A8        1.94312   0.00013  -0.00008   0.00499   0.00492   1.94804
    A9        1.84529  -0.00030  -0.00006  -0.00269  -0.00277   1.84252
    D1        0.00000   0.00000   0.00000   0.00000   0.00000   0.00000
    D2        3.14159   0.00000   0.00000   0.00000   0.00000   3.14159
    D3        3.14159   0.00000   0.00000   0.00000   0.00000   3.14159
    D4        0.00000   0.00000   0.00000   0.00000   0.00000   0.00000
    D5        0.00000   0.00000   0.00000   0.00000   0.00000   0.00000
    D6        3.14159   0.00000   0.00000   0.00000   0.00000   3.14159
    D7        0.00000   0.00000   0.00000   0.00000   0.00000   0.00000
    D8        3.14159   0.00000   0.00000   0.00000   0.00000   3.14159
    D9        0.00000   0.00000   0.00000   0.00000   0.00000   0.00000
   D10        0.00000   0.00000   0.00000   0.00000   0.00000   0.00000
         Item               Value     Threshold  Converged?
 Maximum Force            0.008204     0.000450     NO 
 RMS     Force            0.001978     0.000300     NO 
 Maximum Displacement     0.012001     0.001800     NO 
 RMS     Displacement     0.003555     0.001200     NO 
 GradGradGradGradGradGradGradGradGradGradGradGradGradGradGradGradGradGrad

                    Distance matrix (angstroms):
                    1          2          3          4          5
     1  C    0.000000
     2  N    1.350851   0.000000
     3  N    2.198478   1.353844   0.000000
     4  N    2.139053   2.110189   1.292402   0.000000
     5  N    1.318213   2.163803   2.200593   1.367553   0.000000
     6  H    1.078597   2.157826   3.235689   3.192382   2.145423
     7  H    2.153953   1.011610   2.058679   3.064162   3.155699
                    6          7
     6  H    0.000000
     7  H    2.634059   0.000000
 Framework group  CS[SG(CH2N4)]
 Deg. of freedom    11
                         Standard orientation:                         
 ---------------------------------------------------------------------
 Center     Atomic      Atomic             Coordinates (Angstroms)
 Number     Number       Type             X           Y           Z
 ---------------------------------------------------------------------
      1          6           0        1.072199    0.234611    0.000000
      2          7           0        0.000000    1.056309    0.000000
      3          7           0       -1.125202    0.303438    0.000000
      4          7           0       -0.724979   -0.925433    0.000000
      5          7           0        0.639914   -1.010706    0.000000
      6          1           0        2.100217    0.561030    0.000000
      7          1           0       -0.061540    2.066045    0.000000
 ---------------------------------------------------------------------
 Rotational constants (GHZ):     10.4928848     10.2639111      5.1885675
   105 basis functions,   174 primitive gaussians,   105 cartesian basis functions
    18 alpha electrons       18 beta electrons
       nuclear repulsion energy       166.2545246635 Hartrees.
 NAtoms=    7 NActive=    7 NUniq=    7 SFac= 1.00D+00 NAtFMM=   60 NAOKFM=F Big=F
 Initial guess from the checkpoint file:  "/tmp/rdj3/g09-28781/Gau-15458.chk"
 B after Tr=     0.000000    0.000000    0.000000
         Rot=    1.000000    0.000000    0.000000   -0.000480 Ang=  -0.06 deg.
 Initial guess orbital symmetries:
       Occupied  (A') (A') (A') (A') (A') (A') (A') (A') (A') (A')
                 (A') (A') (A") (A') (A") (A") (A') (A')
       Virtual   (A') (A') (A') (A') (A') (A') (A') (A') (A') (A')
                 (A') (A') (A') (A') (A') (A') (A') (A') (A') (A')
                 (A') (A') (A') (A') (A') (A') (A') (A') (A') (A')
                 (A') (A') (A') (A') (A') (A') (A') (A') (A') (A')
                 (A') (A') (A') (A') (A') (A') (A') (A') (A') (A')
                 (A') (A') (A') (A') (A') (A') (A') (A') (A') (A')
                 (A') (A') (A') (A") (A") (A") (A") (A") (A") (A")
                 (A") (A") (A") (A") (A") (A") (A") (A") (A") (A")
                 (A") (A") (A") (A") (A") (A") (A")
 SCF Done:  E(RTPSSh) =  -258.281380858     A.U. after   10 cycles
            NFock= 10  Conv=0.99D-08     -V/T= 2.0081
 Calling FoFJK, ICntrl=      2127 FMM=F ISym2X=1 I1Cent= 0 IOpClX= 0 NMat=1 NMatS=1 NMatT=0.

 GradGradGradGradGradGradGradGradGradGradGradGradGradGradGradGradGradGrad
 Using GEDIIS/GDIIS optimizer.
 FormGI is forming the generalized inverse of G from B-inverse, IUseBI=4.
 Internal  Forces:  Max     0.002167564 RMS     0.000880002
 Step number   3 out of a maximum of   36
 All quantities printed in internal units (Hartrees-Bohrs-Radians)
 Mixed Optimization -- En-DIIS/RFO-DIIS
 Trust test= 1.00D+00 RLast= 2.23D-02 DXMaxT set to 3.54D-01
 ITU=  1  1  0
 Use linear search instead of GDIIS.
     Eigenvalues ---    0.02505   0.02638   0.02674   0.02834   0.15994
     Eigenvalues ---    0.16028   0.22889   0.32422   0.37699   0.38883
     Eigenvalues ---    0.49190   0.52142   0.63386   0.66226   0.70409
 Quartic linear search produced a step of -0.04060.
 Iteration  1 RMS(Cart)=  0.00235514 RMS(Int)=  0.00000372
 Iteration  2 RMS(Cart)=  0.00000270 RMS(Int)=  0.00000188
 Iteration  3 RMS(Cart)=  0.00000000 RMS(Int)=  0.00000188
 ClnCor:  largest displacement from symmetrization is 1.37D-12 for atom     1.
 Variable       Old X    -DE/DX   Delta X   Delta X   Delta X     New X
                                 (Linear)    (Quad)   (Total)
    R1        2.55274  -0.00217   0.00007  -0.00405  -0.00398   2.54876
    R2        2.49106   0.00101  -0.00015   0.00232   0.00217   2.49323
    R3        2.03825  -0.00013   0.00003  -0.00045  -0.00042   2.03783
    R4        2.55839   0.00026  -0.00025   0.00222   0.00196   2.56035
    R5        1.91167  -0.00019  -0.00005   0.00003  -0.00001   1.91165
    R6        2.44229   0.00199  -0.00053   0.00604   0.00551   2.44780
    R7        2.58430  -0.00137  -0.00021  -0.00073  -0.00094   2.58336
    A1        1.89058   0.00053  -0.00003   0.00146   0.00143   1.89201
    A2        2.18024  -0.00034   0.00001  -0.00121  -0.00119   2.17905
    A3        2.21236  -0.00018   0.00001  -0.00025  -0.00024   2.21213
    A4        1.89801  -0.00079  -0.00032  -0.00190  -0.00223   1.89579
    A5        2.28556   0.00024   0.00011   0.00030   0.00041   2.28598
    A6        2.09961   0.00055   0.00021   0.00160   0.00181   2.10142
    A7        1.84563   0.00132   0.00043   0.00329   0.00372   1.84935
    A8        1.94804  -0.00207  -0.00020  -0.00570  -0.00590   1.94215
    A9        1.84252   0.00102   0.00011   0.00285   0.00297   1.84548
    D1        0.00000   0.00000   0.00000   0.00000   0.00000   0.00000
    D2        3.14159   0.00000   0.00000   0.00000   0.00000   3.14159
    D3        3.14159   0.00000   0.00000   0.00000   0.00000   3.14159
    D4        0.00000   0.00000   0.00000   0.00000   0.00000   0.00000
    D5        0.00000   0.00000   0.00000   0.00000   0.00000   0.00000
    D6        3.14159   0.00000   0.00000   0.00000   0.00000   3.14159
    D7        0.00000   0.00000   0.00000   0.00000   0.00000   0.00000
    D8        3.14159   0.00000   0.00000   0.00000   0.00000   3.14159
    D9        0.00000   0.00000   0.00000   0.00000   0.00000   0.00000
   D10        0.00000   0.00000   0.00000   0.00000   0.00000   0.00000
         Item               Value     Threshold  Converged?
 Maximum Force            0.002168     0.000450     NO 
 RMS     Force            0.000880     0.000300     NO 
 Maximum Displacement     0.006689     0.001800     NO 
 RMS     Displacement     0.002356     0.001200     NO 
 GradGradGradGradGradGradGradGradGradGradGradGradGradGradGradGradGradGrad

                    Distance matrix (angstroms):
                    1          2          3          4          5
     1  C    0.000000
     2  N    1.348747   0.000000
     3  N    2.195859   1.354881   0.000000
     4  N    2.141962   2.116295   1.295320   0.000000
     5  N    1.319362   2.164131   2.198141   1.367054   0.000000
     6  H    1.078372   2.155054   3.233051   3.194633   2.146153
     7  H    2.152178   1.011602   2.060652   3.070370   3.156115
                    6          7
     6  H    0.000000
     7  H    2.631124   0.000000
 Framework group  CS[SG(CH2N4)]
 Deg. of freedom    11
                         Standard orientation:                         
 ---------------------------------------------------------------------
 Center     Atomic      Atomic             Coordinates (Angstroms)
 Number     Number       Type             X           Y           Z
 ---------------------------------------------------------------------
      1          6           0        1.070737    0.237820    0.000000
      2          7           0        0.000000    1.057966    0.000000
      3          7           0       -1.124192    0.301728    0.000000
      4          7           0       -0.724597   -0.930416    0.000000
      5          7           0        0.640178   -1.009311    0.000000
      6          1           0        2.098068    0.565658    0.000000
      7          1           0       -0.062215    2.067653    0.000000
 ---------------------------------------------------------------------
 Rotational constants (GHZ):     10.4474143     10.2924620      5.1846797
   105 basis functions,   174 primitive gaussians,   105 cartesian basis functions
    18 alpha electrons       18 beta electrons
       nuclear repulsion energy       166.1858798454 Hartrees.
 NAtoms=    7 NActive=    7 NUniq=    7 SFac= 1.00D+00 NAtFMM=   60 NAOKFM=F Big=F
 Initial guess from the checkpoint file:  "/tmp/rdj3/g09-28781/Gau-15458.chk"
 B after Tr=     0.000000    0.000000    0.000000
         Rot=    1.000000    0.000000    0.000000   -0.000771 Ang=  -0.09 deg.
 Initial guess orbital symmetries:
       Occupied  (A') (A') (A') (A') (A') (A') (A') (A') (A') (A')
                 (A') (A') (A") (A') (A") (A") (A') (A')
       Virtual   (A') (A') (A') (A') (A') (A') (A') (A') (A') (A')
                 (A') (A') (A') (A') (A') (A') (A') (A') (A') (A')
                 (A') (A') (A') (A') (A') (A') (A') (A') (A') (A')
                 (A') (A') (A') (A') (A') (A') (A') (A') (A') (A')
                 (A') (A') (A') (A') (A') (A') (A') (A') (A') (A')
                 (A') (A') (A') (A') (A') (A') (A') (A') (A') (A')
                 (A') (A') (A') (A") (A") (A") (A") (A") (A") (A")
                 (A") (A") (A") (A") (A") (A") (A") (A") (A") (A")
                 (A") (A") (A") (A") (A") (A") (A")
 SCF Done:  E(RTPSSh) =  -258.281394228     A.U. after   10 cycles
            NFock= 10  Conv=0.42D-08     -V/T= 2.0082
 Calling FoFJK, ICntrl=      2127 FMM=F ISym2X=1 I1Cent= 0 IOpClX= 0 NMat=1 NMatS=1 NMatT=0.

 GradGradGradGradGradGradGradGradGradGradGradGradGradGradGradGradGradGrad
 Using GEDIIS/GDIIS optimizer.
 FormGI is forming the generalized inverse of G from B-inverse, IUseBI=4.
 Internal  Forces:  Max     0.001279139 RMS     0.000533240
 Step number   4 out of a maximum of   36
 All quantities printed in internal units (Hartrees-Bohrs-Radians)
 Mixed Optimization -- En-DIIS/RFO-DIIS
 Swapping is turned off.
 Trust test= 5.59D-01 RLast= 1.12D-02 DXMaxT set to 3.54D-01
 ITU=  1  1  1  0
     Eigenvalues ---    0.02505   0.02638   0.02675   0.02835   0.16005
     Eigenvalues ---    0.16063   0.22944   0.32559   0.37710   0.48613
     Eigenvalues ---    0.50463   0.52728   0.61635   0.64369   0.72639
 En-DIIS/RFO-DIIS IScMMF=        0 using points:     4    3
 RFO step:  Lambda=-9.35955222D-06.
 DidBck=T Rises=F RFO-DIIS coefs:    0.69911    0.30089
 Iteration  1 RMS(Cart)=  0.00089408 RMS(Int)=  0.00000074
 Iteration  2 RMS(Cart)=  0.00000048 RMS(Int)=  0.00000049
 ClnCor:  largest displacement from symmetrization is 1.29D-12 for atom     1.
 Variable       Old X    -DE/DX   Delta X   Delta X   Delta X     New X
                                 (Linear)    (Quad)   (Total)
    R1        2.54876  -0.00018   0.00120  -0.00171  -0.00052   2.54824
    R2        2.49323  -0.00082  -0.00065  -0.00013  -0.00079   2.49245
    R3        2.03783   0.00005   0.00013  -0.00005   0.00008   2.03791
    R4        2.56035  -0.00103  -0.00059  -0.00073  -0.00131   2.55904
    R5        1.91165  -0.00025   0.00000  -0.00043  -0.00043   1.91122
    R6        2.44780  -0.00060  -0.00166   0.00095  -0.00071   2.44709
    R7        2.58336  -0.00128   0.00028  -0.00228  -0.00199   2.58136
    A1        1.89201  -0.00008  -0.00043   0.00041  -0.00002   1.89199
    A2        2.17905   0.00021   0.00036   0.00033   0.00069   2.17974
    A3        2.21213  -0.00013   0.00007  -0.00074  -0.00067   2.21146
    A4        1.89579   0.00049   0.00067   0.00027   0.00094   1.89673
    A5        2.28598  -0.00013  -0.00012  -0.00001  -0.00014   2.28584
    A6        2.10142  -0.00036  -0.00055  -0.00026  -0.00080   2.10062
    A7        1.84935  -0.00108  -0.00112  -0.00087  -0.00199   1.84737
    A8        1.94215   0.00126   0.00177   0.00053   0.00231   1.94445
    A9        1.84548  -0.00060  -0.00089  -0.00034  -0.00124   1.84424
    D1        0.00000   0.00000   0.00000   0.00000   0.00000   0.00000
    D2        3.14159   0.00000   0.00000   0.00000   0.00000   3.14159
    D3        3.14159   0.00000   0.00000   0.00000   0.00000   3.14159
    D4        0.00000   0.00000   0.00000   0.00000   0.00000   0.00000
    D5        0.00000   0.00000   0.00000   0.00000   0.00000   0.00000
    D6        3.14159   0.00000   0.00000   0.00000   0.00000   3.14159
    D7        0.00000   0.00000   0.00000   0.00000   0.00000   0.00000
    D8        3.14159   0.00000   0.00000   0.00000   0.00000   3.14159
    D9        0.00000   0.00000   0.00000   0.00000   0.00000   0.00000
   D10        0.00000   0.00000   0.00000   0.00000   0.00000   0.00000
         Item               Value     Threshold  Converged?
 Maximum Force            0.001279     0.000450     NO 
 RMS     Force            0.000533     0.000300     NO 
 Maximum Displacement     0.003329     0.001800     NO 
 RMS     Displacement     0.000894     0.001200     YES
 GradGradGradGradGradGradGradGradGradGradGradGradGradGradGradGradGradGrad

                    Distance matrix (angstroms):
                    1          2          3          4          5
     1  C    0.000000
     2  N    1.348473   0.000000
     3  N    2.195811   1.354186   0.000000
     4  N    2.139783   2.113852   1.294946   0.000000
     5  N    1.318946   2.163557   2.198684   1.365999   0.000000
     6  H    1.078414   2.155220   3.233069   3.192464   2.145454
     7  H    2.151657   1.011375   2.059375   3.067796   3.155292
                    6          7
     6  H    0.000000
     7  H    2.631214   0.000000
 Framework group  CS[SG(CH2N4)]
 Deg. of freedom    11
                         Standard orientation:                         
 ---------------------------------------------------------------------
 Center     Atomic      Atomic             Coordinates (Angstroms)
 Number     Number       Type             X           Y           Z
 ---------------------------------------------------------------------
      1          6           0        1.070421    0.237029    0.000000
      2          7           0        0.000000    1.057137    0.000000
      3          7           0       -1.124414    0.302476    0.000000
      4          7           0       -0.723788   -0.928940    0.000000
      5          7           0        0.639825   -1.009649    0.000000
      6          1           0        2.098056    0.564051    0.000000
      7          1           0       -0.061942    2.066613    0.000000
 ---------------------------------------------------------------------
 Rotational constants (GHZ):     10.4674074     10.2901893      5.1890209
   105 basis functions,   174 primitive gaussians,   105 cartesian basis functions
    18 alpha electrons       18 beta electrons
       nuclear repulsion energy       166.2547117677 Hartrees.
 NAtoms=    7 NActive=    7 NUniq=    7 SFac= 1.00D+00 NAtFMM=   60 NAOKFM=F Big=F
 Initial guess from the checkpoint file:  "/tmp/rdj3/g09-28781/Gau-15458.chk"
 B after Tr=     0.000000    0.000000    0.000000
         Rot=    1.000000    0.000000    0.000000    0.000189 Ang=   0.02 deg.
 Initial guess orbital symmetries:
       Occupied  (A') (A') (A') (A') (A') (A') (A') (A') (A') (A')
                 (A') (A') (A") (A') (A") (A") (A') (A')
       Virtual   (A') (A') (A') (A') (A') (A') (A') (A') (A') (A')
                 (A') (A') (A') (A') (A') (A') (A') (A') (A') (A')
                 (A') (A') (A') (A') (A') (A') (A') (A') (A') (A')
                 (A') (A') (A') (A') (A') (A') (A') (A') (A') (A')
                 (A') (A') (A') (A') (A') (A') (A') (A') (A') (A')
                 (A') (A') (A') (A') (A') (A') (A') (A') (A') (A')
                 (A') (A') (A') (A") (A") (A") (A") (A") (A") (A")
                 (A") (A") (A") (A") (A") (A") (A") (A") (A") (A")
                 (A") (A") (A") (A") (A") (A") (A")
 SCF Done:  E(RTPSSh) =  -258.281401248     A.U. after    9 cycles
            NFock=  9  Conv=0.66D-08     -V/T= 2.0081
 Calling FoFJK, ICntrl=      2127 FMM=F ISym2X=1 I1Cent= 0 IOpClX= 0 NMat=1 NMatS=1 NMatT=0.

 GradGradGradGradGradGradGradGradGradGradGradGradGradGradGradGradGradGrad
 Using GEDIIS/GDIIS optimizer.
 FormGI is forming the generalized inverse of G from B-inverse, IUseBI=4.
 Internal  Forces:  Max     0.000647969 RMS     0.000150639
 Step number   5 out of a maximum of   36
 All quantities printed in internal units (Hartrees-Bohrs-Radians)
 Mixed Optimization -- En-DIIS/RFO-DIIS
 Swapping is turned off.
 Trust test= 1.17D+00 RLast= 4.53D-03 DXMaxT set to 3.54D-01
 ITU=  1  1  1  1  0
     Eigenvalues ---    0.02505   0.02638   0.02675   0.02834   0.15722
     Eigenvalues ---    0.16048   0.22002   0.32077   0.37866   0.45614
     Eigenvalues ---    0.49860   0.51673   0.54886   0.66394   0.75958
 En-DIIS/RFO-DIIS IScMMF=        0 using points:     5    4    3
 RFO step:  Lambda=-1.03771763D-06.
 DidBck=F Rises=F RFO-DIIS coefs:    1.40753   -0.30350   -0.10403
 Iteration  1 RMS(Cart)=  0.00042219 RMS(Int)=  0.00000015
 Iteration  2 RMS(Cart)=  0.00000013 RMS(Int)=  0.00000009
 ClnCor:  largest displacement from symmetrization is 4.38D-13 for atom     1.
 Variable       Old X    -DE/DX   Delta X   Delta X   Delta X     New X
                                 (Linear)    (Quad)   (Total)
    R1        2.54824  -0.00016  -0.00062  -0.00003  -0.00066   2.54759
    R2        2.49245   0.00006  -0.00009   0.00028   0.00019   2.49264
    R3        2.03791   0.00002  -0.00001   0.00006   0.00005   2.03796
    R4        2.55904  -0.00021  -0.00033  -0.00015  -0.00048   2.55856
    R5        1.91122  -0.00003  -0.00018   0.00004  -0.00014   1.91108
    R6        2.44709   0.00000   0.00029   0.00003   0.00032   2.44741
    R7        2.58136  -0.00065  -0.00091  -0.00101  -0.00192   2.57945
    A1        1.89199  -0.00019   0.00014  -0.00109  -0.00095   1.89104
    A2        2.17974   0.00014   0.00016   0.00082   0.00098   2.18071
    A3        2.21146   0.00004  -0.00030   0.00027  -0.00003   2.21143
    A4        1.89673   0.00008   0.00015   0.00061   0.00076   1.89748
    A5        2.28584  -0.00004  -0.00001  -0.00037  -0.00038   2.28546
    A6        2.10062  -0.00004  -0.00014  -0.00024  -0.00037   2.10025
    A7        1.84737  -0.00008  -0.00042  -0.00021  -0.00063   1.84673
    A8        1.94445   0.00006   0.00033  -0.00022   0.00011   1.94456
    A9        1.84424   0.00013  -0.00020   0.00091   0.00072   1.84496
    D1        0.00000   0.00000   0.00000   0.00000   0.00000   0.00000
    D2        3.14159   0.00000   0.00000   0.00000   0.00000   3.14159
    D3        3.14159   0.00000   0.00000   0.00000   0.00000   3.14159
    D4        0.00000   0.00000   0.00000   0.00000   0.00000   0.00000
    D5        0.00000   0.00000   0.00000   0.00000   0.00000   0.00000
    D6        3.14159   0.00000   0.00000   0.00000   0.00000   3.14159
    D7        0.00000   0.00000   0.00000   0.00000   0.00000   0.00000
    D8        3.14159   0.00000   0.00000   0.00000   0.00000   3.14159
    D9        0.00000   0.00000   0.00000   0.00000   0.00000   0.00000
   D10        0.00000   0.00000   0.00000   0.00000   0.00000   0.00000
         Item               Value     Threshold  Converged?
 Maximum Force            0.000648     0.000450     NO 
 RMS     Force            0.000151     0.000300     YES
 Maximum Displacement     0.001240     0.001800     YES
 RMS     Displacement     0.000422     0.001200     YES
 GradGradGradGradGradGradGradGradGradGradGradGradGradGradGradGradGradGrad

                    Distance matrix (angstroms):
                    1          2          3          4          5
     1  C    0.000000
     2  N    1.348126   0.000000
     3  N    2.195918   1.353933   0.000000
     4  N    2.139627   2.113275   1.295113   0.000000
     5  N    1.319046   2.162614   2.198053   1.364985   0.000000
     6  H    1.078442   2.155467   3.233354   3.192202   2.145556
     7  H    2.151085   1.011302   2.058871   3.067169   3.154313
                    6          7
     6  H    0.000000
     7  H    2.631370   0.000000
 Framework group  CS[SG(CH2N4)]
 Deg. of freedom    11
                         Standard orientation:                         
 ---------------------------------------------------------------------
 Center     Atomic      Atomic             Coordinates (Angstroms)
 Number     Number       Type             X           Y           Z
 ---------------------------------------------------------------------
      1          6           0        1.070520    0.237270    0.000000
      2          7           0        0.000000    1.056678    0.000000
      3          7           0       -1.124429    0.302494    0.000000
      4          7           0       -0.723342   -0.928947    0.000000
      5          7           0        0.639277   -1.009290    0.000000
      6          1           0        2.098352    0.563768    0.000000
      7          1           0       -0.062013    2.066077    0.000000
 ---------------------------------------------------------------------
 Rotational constants (GHZ):     10.4707470     10.2951612      5.1911059
   105 basis functions,   174 primitive gaussians,   105 cartesian basis functions
    18 alpha electrons       18 beta electrons
       nuclear repulsion energy       166.2863461039 Hartrees.
 NAtoms=    7 NActive=    7 NUniq=    7 SFac= 1.00D+00 NAtFMM=   60 NAOKFM=F Big=F
 Initial guess from the checkpoint file:  "/tmp/rdj3/g09-28781/Gau-15458.chk"
 B after Tr=     0.000000    0.000000    0.000000
         Rot=    1.000000    0.000000    0.000000   -0.000013 Ang=   0.00 deg.
 Initial guess orbital symmetries:
       Occupied  (A') (A') (A') (A') (A') (A') (A') (A') (A') (A')
                 (A') (A') (A") (A') (A") (A") (A') (A')
       Virtual   (A') (A') (A') (A') (A') (A') (A') (A') (A') (A')
                 (A') (A') (A') (A') (A') (A') (A') (A') (A') (A')
                 (A') (A') (A') (A') (A') (A') (A') (A') (A') (A')
                 (A') (A') (A') (A') (A') (A') (A') (A') (A') (A')
                 (A') (A') (A') (A') (A') (A') (A') (A') (A') (A')
                 (A') (A') (A') (A') (A') (A') (A') (A') (A') (A')
                 (A') (A') (A') (A") (A") (A") (A") (A") (A") (A")
                 (A") (A") (A") (A") (A") (A") (A") (A") (A") (A")
                 (A") (A") (A") (A") (A") (A") (A")
 SCF Done:  E(RTPSSh) =  -258.281402353     A.U. after    9 cycles
            NFock=  9  Conv=0.39D-08     -V/T= 2.0081
 Calling FoFJK, ICntrl=      2127 FMM=F ISym2X=1 I1Cent= 0 IOpClX= 0 NMat=1 NMatS=1 NMatT=0.

 GradGradGradGradGradGradGradGradGradGradGradGradGradGradGradGradGradGrad
 Using GEDIIS/GDIIS optimizer.
 FormGI is forming the generalized inverse of G from B-inverse, IUseBI=4.
 Internal  Forces:  Max     0.000209344 RMS     0.000078521
 Step number   6 out of a maximum of   36
 All quantities printed in internal units (Hartrees-Bohrs-Radians)
 Mixed Optimization -- En-DIIS/RFO-DIIS
 Swapping is turned off.
 Trust test= 1.17D+00 RLast= 2.85D-03 DXMaxT set to 3.54D-01
 ITU=  1  1  1  1  1  0
     Eigenvalues ---    0.02505   0.02638   0.02675   0.02834   0.15017
     Eigenvalues ---    0.16048   0.21688   0.29761   0.37982   0.41450
     Eigenvalues ---    0.49562   0.51435   0.54610   0.71021   0.77429
 En-DIIS/RFO-DIIS IScMMF=        0 using points:     6    5    4    3
 RFO step:  Lambda=-2.37862482D-07.
 DidBck=F Rises=F RFO-DIIS coefs:    0.97375    0.18531   -0.09759   -0.06147
 Iteration  1 RMS(Cart)=  0.00016502 RMS(Int)=  0.00000005
 Iteration  2 RMS(Cart)=  0.00000001 RMS(Int)=  0.00000005
 ClnCor:  largest displacement from symmetrization is 2.37D-13 for atom     1.
 Variable       Old X    -DE/DX   Delta X   Delta X   Delta X     New X
                                 (Linear)    (Quad)   (Total)
    R1        2.54759   0.00013  -0.00031   0.00034   0.00003   2.54762
    R2        2.49264   0.00021   0.00000   0.00033   0.00033   2.49297
    R3        2.03796  -0.00002  -0.00001  -0.00004  -0.00005   2.03791
    R4        2.55856  -0.00008  -0.00008  -0.00012  -0.00020   2.55836
    R5        1.91108   0.00005  -0.00007   0.00012   0.00005   1.91113
    R6        2.44741   0.00014   0.00022   0.00010   0.00032   2.44773
    R7        2.57945  -0.00021  -0.00032  -0.00043  -0.00075   2.57869
    A1        1.89104   0.00003   0.00011  -0.00005   0.00006   1.89110
    A2        2.18071  -0.00001   0.00001   0.00011   0.00012   2.18083
    A3        2.21143  -0.00002  -0.00012  -0.00006  -0.00018   2.21126
    A4        1.89748  -0.00011  -0.00001  -0.00015  -0.00016   1.89732
    A5        2.28546   0.00005   0.00001   0.00006   0.00008   2.28554
    A6        2.10025   0.00006  -0.00001   0.00009   0.00008   2.10033
    A7        1.84673   0.00008  -0.00007   0.00009   0.00002   1.84675
    A8        1.94456   0.00003   0.00000   0.00014   0.00014   1.94470
    A9        1.84496  -0.00004  -0.00003  -0.00003  -0.00006   1.84490
    D1        0.00000   0.00000   0.00000   0.00000   0.00000   0.00000
    D2        3.14159   0.00000   0.00000   0.00000   0.00000   3.14159
    D3        3.14159   0.00000   0.00000   0.00000   0.00000   3.14159
    D4        0.00000   0.00000   0.00000   0.00000   0.00000   0.00000
    D5        0.00000   0.00000   0.00000   0.00000   0.00000   0.00000
    D6        3.14159   0.00000   0.00000   0.00000   0.00000   3.14159
    D7        0.00000   0.00000   0.00000   0.00000   0.00000   0.00000
    D8        3.14159   0.00000   0.00000   0.00000   0.00000   3.14159
    D9        0.00000   0.00000   0.00000   0.00000   0.00000   0.00000
   D10        0.00000   0.00000   0.00000   0.00000   0.00000   0.00000
         Item               Value     Threshold  Converged?
 Maximum Force            0.000209     0.000450     YES
 RMS     Force            0.000079     0.000300     YES
 Maximum Displacement     0.000406     0.001800     YES
 RMS     Displacement     0.000165     0.001200     YES
 Optimization completed.
    -- Stationary point found.
                           ----------------------------
                           !   Optimized Parameters   !
                           ! (Angstroms and Degrees)  !
 --------------------------                            --------------------------
 ! Name  Definition              Value          Derivative Info.                !
 --------------------------------------------------------------------------------
 ! R1    R(1,2)                  1.3481         -DE/DX =    0.0001              !
 ! R2    R(1,5)                  1.319          -DE/DX =    0.0002              !
 ! R3    R(1,6)                  1.0784         -DE/DX =    0.0                 !
 ! R4    R(2,3)                  1.3539         -DE/DX =   -0.0001              !
 ! R5    R(2,7)                  1.0113         -DE/DX =    0.0                 !
 ! R6    R(3,4)                  1.2951         -DE/DX =    0.0001              !
 ! R7    R(4,5)                  1.365          -DE/DX =   -0.0002              !
 ! A1    A(2,1,5)              108.3486         -DE/DX =    0.0                 !
 ! A2    A(2,1,6)              124.9457         -DE/DX =    0.0                 !
 ! A3    A(5,1,6)              126.7057         -DE/DX =    0.0                 !
 ! A4    A(1,2,3)              108.7177         -DE/DX =   -0.0001              !
 ! A5    A(1,2,7)              130.9471         -DE/DX =    0.0001              !
 ! A6    A(3,2,7)              120.3352         -DE/DX =    0.0001              !
 ! A7    A(2,3,4)              105.8101         -DE/DX =    0.0001              !
 ! A8    A(3,4,5)              111.4151         -DE/DX =    0.0                 !
 ! A9    A(1,5,4)              105.7085         -DE/DX =    0.0                 !
 ! D1    D(5,1,2,3)              0.0            -DE/DX =    0.0                 !
 ! D2    D(5,1,2,7)            180.0            -DE/DX =    0.0                 !
 ! D3    D(6,1,2,3)            180.0            -DE/DX =    0.0                 !
 ! D4    D(6,1,2,7)              0.0            -DE/DX =    0.0                 !
 ! D5    D(2,1,5,4)              0.0            -DE/DX =    0.0                 !
 ! D6    D(6,1,5,4)            180.0            -DE/DX =    0.0                 !
 ! D7    D(1,2,3,4)              0.0            -DE/DX =    0.0                 !
 ! D8    D(7,2,3,4)            180.0            -DE/DX =    0.0                 !
 ! D9    D(2,3,4,5)              0.0            -DE/DX =    0.0                 !
 ! D10   D(3,4,5,1)              0.0            -DE/DX =    0.0                 !
 --------------------------------------------------------------------------------
 GradGradGradGradGradGradGradGradGradGradGradGradGradGradGradGradGradGrad

                    Distance matrix (angstroms):
                    1          2          3          4          5
     1  C    0.000000
     2  N    1.348126   0.000000
     3  N    2.195918   1.353933   0.000000
     4  N    2.139627   2.113275   1.295113   0.000000
     5  N    1.319046   2.162614   2.198053   1.364985   0.000000
     6  H    1.078442   2.155467   3.233354   3.192202   2.145556
     7  H    2.151085   1.011302   2.058871   3.067169   3.154313
                    6          7
     6  H    0.000000
     7  H    2.631370   0.000000
 Framework group  CS[SG(CH2N4)]
 Deg. of freedom    11
                         Standard orientation:                         
 ---------------------------------------------------------------------
 Center     Atomic      Atomic             Coordinates (Angstroms)
 Number     Number       Type             X           Y           Z
 ---------------------------------------------------------------------
      1          6           0        1.070520    0.237270    0.000000
      2          7           0        0.000000    1.056678    0.000000
      3          7           0       -1.124429    0.302494    0.000000
      4          7           0       -0.723342   -0.928947    0.000000
      5          7           0        0.639277   -1.009290    0.000000
      6          1           0        2.098352    0.563768    0.000000
      7          1           0       -0.062013    2.066077    0.000000
 ---------------------------------------------------------------------
 Rotational constants (GHZ):     10.4707470     10.2951612      5.1911059

 **********************************************************************

            Population analysis using the SCF density.

 **********************************************************************

 Orbital symmetries:
       Occupied  (A') (A') (A') (A') (A') (A') (A') (A') (A') (A')
                 (A') (A') (A") (A') (A") (A") (A') (A')
       Virtual   (A") (A') (A") (A') (A') (A") (A') (A') (A') (A")
                 (A") (A') (A') (A') (A') (A') (A") (A') (A") (A')
                 (A') (A') (A') (A') (A') (A') (A') (A') (A') (A")
                 (A') (A') (A') (A') (A') (A") (A") (A') (A") (A')
                 (A') (A") (A') (A') (A') (A') (A') (A") (A') (A")
                 (A') (A") (A') (A") (A") (A') (A') (A') (A') (A')
                 (A') (A") (A') (A") (A") (A') (A') (A") (A') (A")
                 (A') (A") (A') (A') (A") (A') (A') (A') (A') (A')
                 (A') (A') (A') (A') (A') (A') (A')
 The electronic state is 1-A'.
 Alpha  occ. eigenvalues --  -14.39036 -14.35490 -14.33743 -14.30990 -10.22550
 Alpha  occ. eigenvalues --   -1.12728  -0.93503  -0.88177  -0.67085  -0.65398
 Alpha  occ. eigenvalues --   -0.58648  -0.49097  -0.48712  -0.37200  -0.32785
 Alpha  occ. eigenvalues --   -0.30683  -0.29860  -0.28529
 Alpha virt. eigenvalues --   -0.04893  -0.01522  -0.01475   0.02190   0.04290
 Alpha virt. eigenvalues --    0.05208   0.07257   0.08754   0.10816   0.12852
 Alpha virt. eigenvalues --    0.14261   0.14319   0.16635   0.17675   0.17807
 Alpha virt. eigenvalues --    0.20053   0.20729   0.21574   0.22175   0.22264
 Alpha virt. eigenvalues --    0.24053   0.24949   0.26378   0.30013   0.31180
 Alpha virt. eigenvalues --    0.31605   0.36199   0.41458   0.43905   0.63796
 Alpha virt. eigenvalues --    0.74421   0.76335   0.80358   0.83206   0.84016
 Alpha virt. eigenvalues --    0.85121   0.87766   0.88821   0.93064   0.93200
 Alpha virt. eigenvalues --    0.94809   0.96092   0.97611   1.04216   1.05548
 Alpha virt. eigenvalues --    1.09171   1.22160   1.22879   1.25911   1.30971
 Alpha virt. eigenvalues --    1.31408   1.32335   1.44934   1.49182   1.50778
 Alpha virt. eigenvalues --    1.55985   1.65982   1.84651   1.87013   1.94277
 Alpha virt. eigenvalues --    2.04004   2.05894   2.14702   2.19143   2.25272
 Alpha virt. eigenvalues --    2.26065   2.33461   2.34864   2.45709   2.48842
 Alpha virt. eigenvalues --    2.56646   2.59673   2.62029   2.66509   2.71129
 Alpha virt. eigenvalues --    2.76455   2.82079   2.91868   3.03470   3.11664
 Alpha virt. eigenvalues --    3.31966   3.68234   3.92115   3.99712   4.21811
 Alpha virt. eigenvalues --    4.28726   4.52225
          Condensed to atoms (all electrons):
 Mulliken charges:
               1
     1  C   -0.006847
     2  N   -0.296120
     3  N    0.003809
     4  N   -0.011379
     5  N   -0.235672
     6  H    0.197308
     7  H    0.348901
 Sum of Mulliken charges =   0.00000
 Mulliken charges with hydrogens summed into heavy atoms:
               1
     1  C    0.190461
     2  N    0.052781
     3  N    0.003809
     4  N   -0.011379
     5  N   -0.235672
 Electronic spatial extent (au):  <R**2>=            253.1128
 Charge=              0.0000 electrons
 Dipole moment (field-independent basis, Debye):
    X=              2.6075    Y=              4.8752    Z=              0.0000  Tot=              5.5287
 B after Tr=     0.012627   -0.007004    0.000000
         Rot=    1.000000    0.000000    0.000000   -0.000085 Ang=  -0.01 deg.
 Determination of dummy atom variables in z-matrix conversion failed.
 NNew=      6.08764550D+00 NOld=      6.08493226D+00 Diff= 2.71D-03
 1\1\GINC-N856\FOpt\RTPSSh\6-31+G(d,p)\C1H2N4\RDJ3\17-Dec-2013\0\\#TPSS
 h/6-31+G** opt freq\\1H-tetrazole CH2N4 casno=288948 state=1 config=1 
 method=75 basis=4\\0,1\C,1.0135933289,0.0040673324,0.\N,0.3911254156,-
 1.1917491778,0.\N,-0.9469378144,-0.9850607769,0.\N,-1.1054249026,0.300
 3188074,0.\N,0.0947813101,0.9504642641,0.\H,2.0829392977,0.1438425313,
 0.\H,0.7626587197,-2.1323315762,0.\\Version=EM64L-G09RevD.01\State=1-A
 '\HF=-258.2814024\RMSD=3.865e-09\RMSF=1.119e-04\Dipole=1.7419465,-1.30
 26619,0.\Quadrupole=0.6784367,-0.3033624,-0.3750743,-1.6563343,0.,0.\P
 G=CS [SG(C1H2N4)]\\@


 Once you get people laughing, they're
 listening and you can tell them almost anything.
                                 -- Herb Gardner
 Job cpu time:       0 days  0 hours  2 minutes 44.5 seconds.
 File lengths (MBytes):  RWF=      7 Int=      0 D2E=      0 Chk=      2 Scr=      1
 Normal termination of Gaussian 09 at Tue Dec 17 05:36:50 2013.
 Link1:  Proceeding to internal job step number  2.
 ----------------------------------------------------------------------
 #T Geom=AllCheck Guess=TCheck SCRF=Check GenChk RTPSSh/6-31+G(d,p) Fre
 q
 ----------------------------------------------------------------------
 Structure from the checkpoint file:  "/tmp/rdj3/g09-28781/Gau-15458.chk"
 ------------------------------------------------------------------
 1H-tetrazole CH2N4 casno=288948 state=1 config=1 method=75 basis=4
 ------------------------------------------------------------------
 Charge =  0 Multiplicity = 1
 Redundant internal coordinates found in file.
 C,0,1.0135535336,0.0040769383,0.
 N,0,0.3910856203,-1.1917395718,0.
 N,0,-0.9469776097,-0.985051171,0.
 N,0,-1.1054646979,0.3003284134,0.
 N,0,0.0947415148,0.9504738701,0.
 H,0,2.0828995024,0.1438521373,0.
 H,0,0.7626189244,-2.1323219703,0.
 Recover connectivity data from disk.

 GradGradGradGradGradGradGradGradGradGradGradGradGradGradGradGradGradGrad
 Initialization pass.
                           ----------------------------
                           !    Initial Parameters    !
                           ! (Angstroms and Degrees)  !
 --------------------------                            --------------------------
 ! Name  Definition              Value          Derivative Info.                !
 --------------------------------------------------------------------------------
 ! R1    R(1,2)                  1.3481         calculate D2E/DX2 analytically  !
 ! R2    R(1,5)                  1.319          calculate D2E/DX2 analytically  !
 ! R3    R(1,6)                  1.0784         calculate D2E/DX2 analytically  !
 ! R4    R(2,3)                  1.3539         calculate D2E/DX2 analytically  !
 ! R5    R(2,7)                  1.0113         calculate D2E/DX2 analytically  !
 ! R6    R(3,4)                  1.2951         calculate D2E/DX2 analytically  !
 ! R7    R(4,5)                  1.365          calculate D2E/DX2 analytically  !
 ! A1    A(2,1,5)              108.3486         calculate D2E/DX2 analytically  !
 ! A2    A(2,1,6)              124.9457         calculate D2E/DX2 analytically  !
 ! A3    A(5,1,6)              126.7057         calculate D2E/DX2 analytically  !
 ! A4    A(1,2,3)              108.7177         calculate D2E/DX2 analytically  !
 ! A5    A(1,2,7)              130.9471         calculate D2E/DX2 analytically  !
 ! A6    A(3,2,7)              120.3352         calculate D2E/DX2 analytically  !
 ! A7    A(2,3,4)              105.8101         calculate D2E/DX2 analytically  !
 ! A8    A(3,4,5)              111.4151         calculate D2E/DX2 analytically  !
 ! A9    A(1,5,4)              105.7085         calculate D2E/DX2 analytically  !
 ! D1    D(5,1,2,3)              0.0            calculate D2E/DX2 analytically  !
 ! D2    D(5,1,2,7)            180.0            calculate D2E/DX2 analytically  !
 ! D3    D(6,1,2,3)            180.0            calculate D2E/DX2 analytically  !
 ! D4    D(6,1,2,7)              0.0            calculate D2E/DX2 analytically  !
 ! D5    D(2,1,5,4)              0.0            calculate D2E/DX2 analytically  !
 ! D6    D(6,1,5,4)            180.0            calculate D2E/DX2 analytically  !
 ! D7    D(1,2,3,4)              0.0            calculate D2E/DX2 analytically  !
 ! D8    D(7,2,3,4)            180.0            calculate D2E/DX2 analytically  !
 ! D9    D(2,3,4,5)              0.0            calculate D2E/DX2 analytically  !
 ! D10   D(3,4,5,1)              0.0            calculate D2E/DX2 analytically  !
 --------------------------------------------------------------------------------
 Number of steps in this run=      2 maximum allowed number of steps=      2.
 GradGradGradGradGradGradGradGradGradGradGradGradGradGradGradGradGradGrad

                    Distance matrix (angstroms):
                    1          2          3          4          5
     1  C    0.000000
     2  N    1.348126   0.000000
     3  N    2.195918   1.353933   0.000000
     4  N    2.139627   2.113275   1.295113   0.000000
     5  N    1.319046   2.162614   2.198053   1.364985   0.000000
     6  H    1.078442   2.155467   3.233354   3.192202   2.145556
     7  H    2.151085   1.011302   2.058871   3.067169   3.154313
                    6          7
     6  H    0.000000
     7  H    2.631370   0.000000
 Framework group  CS[SG(CH2N4)]
 Deg. of freedom    11
                         Standard orientation:                         
 ---------------------------------------------------------------------
 Center     Atomic      Atomic             Coordinates (Angstroms)
 Number     Number       Type             X           Y           Z
 ---------------------------------------------------------------------
      1          6           0        1.070520    0.237270    0.000000
      2          7           0        0.000000    1.056678    0.000000
      3          7           0       -1.124429    0.302494    0.000000
      4          7           0       -0.723342   -0.928947    0.000000
      5          7           0        0.639277   -1.009290    0.000000
      6          1           0        2.098352    0.563768    0.000000
      7          1           0       -0.062013    2.066077    0.000000
 ---------------------------------------------------------------------
 Rotational constants (GHZ):     10.4707470     10.2951612      5.1911059
   105 basis functions,   174 primitive gaussians,   105 cartesian basis functions
    18 alpha electrons       18 beta electrons
       nuclear repulsion energy       166.2863461039 Hartrees.
 NAtoms=    7 NActive=    7 NUniq=    7 SFac= 1.00D+00 NAtFMM=   60 NAOKFM=F Big=F
 Initial guess from the checkpoint file:  "/tmp/rdj3/g09-28781/Gau-15458.chk"
 B after Tr=     0.000000    0.000000    0.000000
         Rot=    1.000000    0.000000    0.000000    0.000000 Ang=   0.00 deg.
 Initial guess orbital symmetries:
       Occupied  (A') (A') (A') (A') (A') (A') (A') (A') (A') (A')
                 (A') (A') (A") (A') (A") (A") (A') (A')
       Virtual   (A") (A') (A") (A') (A') (A") (A') (A') (A') (A")
                 (A") (A') (A') (A') (A') (A') (A") (A') (A") (A')
                 (A') (A') (A') (A') (A') (A') (A') (A') (A') (A")
                 (A') (A') (A') (A') (A') (A") (A") (A') (A") (A')
                 (A') (A") (A') (A') (A') (A') (A') (A") (A') (A")
                 (A') (A") (A') (A") (A") (A') (A') (A') (A') (A')
                 (A') (A") (A') (A") (A") (A') (A') (A") (A') (A")
                 (A') (A") (A') (A') (A") (A') (A') (A') (A') (A')
                 (A') (A') (A') (A') (A') (A') (A')
 SCF Done:  E(RTPSSh) =  -258.281402353     A.U. after    1 cycles
            NFock=  1  Conv=0.54D-08     -V/T= 2.0081
 DoSCS=F DFT=T ScalE2(SS,OS)=  1.000000  1.000000
 NROrb=    105 NOA=    18 NOB=    18 NVA=    87 NVB=    87

 **** Warning!!: The largest alpha MO coefficient is  0.44417245D+02

 Symmetrizing basis deriv contribution to polar:
 IMax=3 JMax=2 DiffMx= 0.00D+00
 Calling FoFCou, ICntrl=  3107 FMM=F I1Cent=   0 AccDes= 0.00D+00.
 End of G2Drv F.D. properties file   721 does not exist.
 End of G2Drv F.D. properties file   722 does not exist.
 End of G2Drv F.D. properties file   788 does not exist.
          IDoAtm=1111111
 End of Minotr F.D. properties file   721 does not exist.
 End of Minotr F.D. properties file   722 does not exist.
 End of Minotr F.D. properties file   788 does not exist.

 **********************************************************************

            Population analysis using the SCF density.

 **********************************************************************

 Orbital symmetries:
       Occupied  (A') (A') (A') (A') (A') (A') (A') (A') (A') (A')
                 (A') (A') (A") (A') (A") (A") (A') (A')
       Virtual   (A") (A') (A") (A') (A') (A") (A') (A') (A') (A")
                 (A") (A') (A') (A') (A') (A') (A") (A') (A") (A')
                 (A') (A') (A') (A') (A') (A') (A') (A') (A') (A")
                 (A') (A') (A') (A') (A') (A") (A") (A') (A") (A')
                 (A') (A") (A') (A') (A') (A') (A') (A") (A') (A")
                 (A') (A") (A') (A") (A") (A') (A') (A') (A') (A')
                 (A') (A") (A') (A") (A") (A') (A') (A") (A') (A")
                 (A') (A") (A') (A') (A") (A') (A') (A') (A') (A')
                 (A') (A') (A') (A') (A') (A') (A')
 The electronic state is 1-A'.
 Alpha  occ. eigenvalues --  -14.39036 -14.35490 -14.33743 -14.30990 -10.22550
 Alpha  occ. eigenvalues --   -1.12728  -0.93503  -0.88177  -0.67085  -0.65398
 Alpha  occ. eigenvalues --   -0.58648  -0.49097  -0.48712  -0.37200  -0.32785
 Alpha  occ. eigenvalues --   -0.30683  -0.29860  -0.28529
 Alpha virt. eigenvalues --   -0.04893  -0.01522  -0.01475   0.02190   0.04290
 Alpha virt. eigenvalues --    0.05208   0.07257   0.08754   0.10816   0.12852
 Alpha virt. eigenvalues --    0.14261   0.14319   0.16635   0.17675   0.17807
 Alpha virt. eigenvalues --    0.20053   0.20729   0.21574   0.22175   0.22264
 Alpha virt. eigenvalues --    0.24053   0.24949   0.26378   0.30013   0.31180
 Alpha virt. eigenvalues --    0.31605   0.36199   0.41458   0.43905   0.63796
 Alpha virt. eigenvalues --    0.74421   0.76335   0.80358   0.83206   0.84016
 Alpha virt. eigenvalues --    0.85121   0.87766   0.88821   0.93064   0.93200
 Alpha virt. eigenvalues --    0.94809   0.96092   0.97611   1.04216   1.05548
 Alpha virt. eigenvalues --    1.09171   1.22160   1.22879   1.25911   1.30971
 Alpha virt. eigenvalues --    1.31408   1.32335   1.44934   1.49182   1.50778
 Alpha virt. eigenvalues --    1.55985   1.65982   1.84651   1.87013   1.94277
 Alpha virt. eigenvalues --    2.04004   2.05894   2.14702   2.19143   2.25272
 Alpha virt. eigenvalues --    2.26065   2.33461   2.34864   2.45709   2.48842
 Alpha virt. eigenvalues --    2.56646   2.59673   2.62029   2.66509   2.71129
 Alpha virt. eigenvalues --    2.76455   2.82079   2.91868   3.03470   3.11664
 Alpha virt. eigenvalues --    3.31966   3.68234   3.92115   3.99712   4.21811
 Alpha virt. eigenvalues --    4.28726   4.52225
          Condensed to atoms (all electrons):
 Mulliken charges:
               1
     1  C   -0.006847
     2  N   -0.296120
     3  N    0.003809
     4  N   -0.011379
     5  N   -0.235672
     6  H    0.197308
     7  H    0.348901
 Sum of Mulliken charges =   0.00000
 Mulliken charges with hydrogens summed into heavy atoms:
               1
     1  C    0.190461
     2  N    0.052781
     3  N    0.003809
     4  N   -0.011379
     5  N   -0.235672
 APT charges:
               1
     1  C    0.235061
     2  N   -0.248604
     3  N   -0.048390
     4  N   -0.028148
     5  N   -0.293770
     6  H    0.114898
     7  H    0.268952
 Sum of APT charges =   0.00000
 APT charges with hydrogens summed into heavy atoms:
               1
     1  C    0.349959
     2  N    0.020349
     3  N   -0.048390
     4  N   -0.028148
     5  N   -0.293770
 Electronic spatial extent (au):  <R**2>=            253.1128
 Charge=              0.0000 electrons
 Dipole moment (field-independent basis, Debye):
    X=              2.6075    Y=              4.8752    Z=              0.0000  Tot=              5.5287
  Exact polarizability:  44.381   0.404  43.997   0.000   0.000  23.930
 Approx polarizability:  77.414  -0.276  81.999   0.000   0.000  35.661
 Calling FoFJK, ICntrl=    100127 FMM=F ISym2X=1 I1Cent= 0 IOpClX= 0 NMat=1 NMatS=1 NMatT=0.
 Full mass-weighted force constant matrix:
 Low frequencies ---  -15.4973   -8.2989   -0.0012   -0.0011   -0.0010   16.0075
 Low frequencies ---  578.6452  684.5418  726.7651
 Diagonal vibrational polarizability:
        1.2011950       1.1376137       8.6569427
 Harmonic frequencies (cm**-1), IR intensities (KM/Mole), Raman scattering
 activities (A**4/AMU), depolarization ratios for plane and unpolarized
 incident light, reduced masses (AMU), force constants (mDyne/A),
 and normal coordinates:
                      1                      2                      3
                     A"                     A"                     A"
 Frequencies --    578.6451               684.5417               726.7650
 Red. masses --      1.9442                 1.8808                 7.8317
 Frc consts  --      0.3835                 0.5193                 2.4372
 IR Inten    --     80.7098                13.3479                 8.9870
  Atom  AN      X      Y      Z        X      Y      Z        X      Y      Z
     1   6     0.00   0.00  -0.11     0.00   0.00   0.17     0.00   0.00  -0.10
     2   7     0.00   0.00   0.23     0.00   0.00  -0.08     0.00   0.00  -0.11
     3   7     0.00   0.00  -0.10     0.00   0.00   0.09     0.00   0.00   0.41
     4   7     0.00   0.00   0.01     0.00   0.00   0.04     0.00   0.00  -0.48
     5   7     0.00   0.00   0.04     0.00   0.00  -0.16     0.00   0.00   0.33
     6   1     0.00   0.00  -0.22     0.00   0.00   0.48     0.00   0.00  -0.09
     7   1     0.00   0.00  -0.94     0.00   0.00  -0.84     0.00   0.00  -0.68
                      4                      5                      6
                     A"                     A'                     A'
 Frequencies --    846.7208               958.4188               998.8093
 Red. masses --      1.3240                 4.9684                 6.1545
 Frc consts  --      0.5593                 2.6889                 3.6175
 IR Inten    --     25.1923                 3.4997                 0.8861
  Atom  AN      X      Y      Z        X      Y      Z        X      Y      Z
     1   6     0.00   0.00   0.16     0.10   0.12   0.00    -0.35  -0.06   0.00
     2   7     0.00   0.00  -0.02     0.11   0.04   0.00     0.04   0.42   0.00
     3   7     0.00   0.00   0.00     0.14  -0.14   0.00     0.08  -0.08   0.00
     4   7     0.00   0.00  -0.02     0.04  -0.19   0.00     0.21  -0.06   0.00
     5   7     0.00   0.00  -0.02    -0.37   0.24   0.00    -0.03  -0.22   0.00
     6   1     0.00   0.00  -0.98     0.34  -0.64   0.00    -0.23  -0.53   0.00
     7   1     0.00   0.00  -0.08    -0.40   0.01   0.00     0.24   0.44   0.00
                      7                      8                      9
                     A'                     A'                     A'
 Frequencies --   1041.4926              1059.8981              1145.2916
 Red. masses --      4.7311                 4.3064                 1.8265
 Frc consts  --      3.0236                 2.8503                 1.4115
 IR Inten    --     16.5311                28.4399                15.4675
  Atom  AN      X      Y      Z        X      Y      Z        X      Y      Z
     1   6     0.11   0.03   0.00    -0.06   0.03   0.00     0.09  -0.11   0.00
     2   7     0.21   0.14   0.00     0.05  -0.18   0.00    -0.12   0.01   0.00
     3   7    -0.35  -0.22   0.00    -0.21   0.06   0.00    -0.07   0.02   0.00
     4   7    -0.13   0.00   0.00     0.36   0.07   0.00     0.11   0.12   0.00
     5   7     0.12   0.07   0.00    -0.19   0.02   0.00     0.03   0.00   0.00
     6   1     0.28  -0.45   0.00    -0.11   0.18   0.00     0.30  -0.78   0.00
     7   1     0.63   0.17   0.00     0.82  -0.14   0.00    -0.49  -0.01   0.00
                     10                     11                     12
                     A'                     A'                     A'
 Frequencies --   1262.1852              1280.8831              1457.4338
 Red. masses --      2.3045                11.2830                 3.1253
 Frc consts  --      2.1631                10.9067                 3.9113
 IR Inten    --      3.3501                14.9452                 9.8104
  Atom  AN      X      Y      Z        X      Y      Z        X      Y      Z
     1   6     0.16   0.04   0.00     0.29   0.07   0.00    -0.17   0.25   0.00
     2   7     0.06   0.09   0.00    -0.11   0.17   0.00     0.19  -0.13   0.00
     3   7    -0.07  -0.08   0.00    -0.24   0.49   0.00    -0.06   0.09   0.00
     4   7     0.04   0.08   0.00     0.04  -0.59   0.00    -0.01  -0.01   0.00
     5   7    -0.11  -0.18   0.00     0.02  -0.15   0.00     0.07  -0.11   0.00
     6   1    -0.02   0.69   0.00     0.36  -0.01   0.00     0.05  -0.52   0.00
     7   1    -0.65   0.06   0.00     0.11   0.23   0.00    -0.71  -0.22   0.00
                     13                     14                     15
                     A'                     A'                     A'
 Frequencies --   1503.7885              3308.3457              3645.9045
 Red. masses --      3.1627                 1.1003                 1.0839
 Frc consts  --      4.2139                 7.0958                 8.4892
 IR Inten    --     16.9500                 1.3923                85.1858
  Atom  AN      X      Y      Z        X      Y      Z        X      Y      Z
     1   6     0.11   0.28   0.00     0.09   0.03   0.00     0.00   0.00   0.00
     2   7    -0.17  -0.02   0.00     0.00   0.00   0.00    -0.01   0.08   0.00
     3   7     0.10  -0.07   0.00     0.00   0.00   0.00     0.00   0.00   0.00
     4   7    -0.05   0.08   0.00     0.00   0.00   0.00     0.00   0.00   0.00
     5   7    -0.05  -0.19   0.00     0.00   0.00   0.00     0.00   0.00   0.00
     6   1     0.36  -0.39   0.00    -0.95  -0.30   0.00    -0.02   0.00   0.00
     7   1     0.74   0.03   0.00     0.01   0.02   0.00     0.06  -0.99   0.00
 
 Temperature   298.150 Kelvin.  Pressure   1.00000 Atm.
 Zero-point correction=                           0.046700 (Hartree/Particle)
 Thermal correction to Energy=                    0.050190
 Thermal correction to Enthalpy=                  0.051134
 Thermal correction to Gibbs Free Energy=         0.020593
 Sum of electronic and zero-point Energies=           -258.234702
 Sum of electronic and thermal Energies=              -258.231212
 Sum of electronic and thermal Enthalpies=            -258.230268
 Sum of electronic and thermal Free Energies=         -258.260810
 FormGI is forming the generalized inverse of G from B-inverse, IUseBI=4.

 GradGradGradGradGradGradGradGradGradGradGradGradGradGradGradGradGradGrad
 Internal  Forces:  Max     0.000209301 RMS     0.000078518
 Step number   1 out of a maximum of    2
 All quantities printed in internal units (Hartrees-Bohrs-Radians)
 Second derivative matrix not updated -- analytic derivatives used.
 ITU=  0
     Eigenvalues ---    0.00815   0.02504   0.06940   0.07614   0.10144
     Eigenvalues ---    0.10548   0.19418   0.24181   0.34225   0.38140
     Eigenvalues ---    0.42492   0.45969   0.47561   0.56451   0.61559
 Angle between quadratic step and forces=  25.13 degrees.
 Linear search not attempted -- first point.
 Iteration  1 RMS(Cart)=  0.00017380 RMS(Int)=  0.00000001
 Iteration  2 RMS(Cart)=  0.00000001 RMS(Int)=  0.00000000
 ClnCor:  largest displacement from symmetrization is 1.19D-12 for atom     4.
 Variable       Old X    -DE/DX   Delta X   Delta X   Delta X     New X
                                 (Linear)    (Quad)   (Total)
    R1        2.54759   0.00013   0.00000   0.00024   0.00024   2.54783
    R2        2.49264   0.00021   0.00000   0.00044   0.00044   2.49308
    R3        2.03796  -0.00002   0.00000  -0.00005  -0.00005   2.03791
    R4        2.55856  -0.00008   0.00000  -0.00026  -0.00026   2.55830
    R5        1.91108   0.00005   0.00000   0.00009   0.00009   1.91118
    R6        2.44741   0.00014   0.00000   0.00037   0.00037   2.44778
    R7        2.57945  -0.00021   0.00000  -0.00080  -0.00080   2.57865
    A1        1.89104   0.00003   0.00000  -0.00008  -0.00008   1.89096
    A2        2.18071  -0.00001   0.00000   0.00011   0.00011   2.18083
    A3        2.21143  -0.00002   0.00000  -0.00003  -0.00003   2.21140
    A4        1.89748  -0.00011   0.00000  -0.00014  -0.00014   1.89734
    A5        2.28546   0.00005   0.00000   0.00002   0.00002   2.28548
    A6        2.10025   0.00006   0.00000   0.00012   0.00012   2.10036
    A7        1.84673   0.00008   0.00000   0.00008   0.00008   1.84682
    A8        1.94456   0.00003   0.00000   0.00009   0.00009   1.94465
    A9        1.84496  -0.00004   0.00000   0.00005   0.00005   1.84501
    D1        0.00000   0.00000   0.00000   0.00000   0.00000   0.00000
    D2        3.14159   0.00000   0.00000   0.00000   0.00000   3.14159
    D3        3.14159   0.00000   0.00000   0.00000   0.00000   3.14159
    D4        0.00000   0.00000   0.00000   0.00000   0.00000   0.00000
    D5        0.00000   0.00000   0.00000   0.00000   0.00000   0.00000
    D6        3.14159   0.00000   0.00000   0.00000   0.00000   3.14159
    D7        0.00000   0.00000   0.00000   0.00000   0.00000   0.00000
    D8        3.14159   0.00000   0.00000   0.00000   0.00000   3.14159
    D9        0.00000   0.00000   0.00000   0.00000   0.00000   0.00000
   D10        0.00000   0.00000   0.00000   0.00000   0.00000   0.00000
         Item               Value     Threshold  Converged?
 Maximum Force            0.000209     0.000450     YES
 RMS     Force            0.000079     0.000300     YES
 Maximum Displacement     0.000445     0.001800     YES
 RMS     Displacement     0.000174     0.001200     YES
 Optimization completed.
    -- Stationary point found.
                           ----------------------------
                           !   Optimized Parameters   !
                           ! (Angstroms and Degrees)  !
 --------------------------                            --------------------------
 ! Name  Definition              Value          Derivative Info.                !
 --------------------------------------------------------------------------------
 ! R1    R(1,2)                  1.3481         -DE/DX =    0.0001              !
 ! R2    R(1,5)                  1.319          -DE/DX =    0.0002              !
 ! R3    R(1,6)                  1.0784         -DE/DX =    0.0                 !
 ! R4    R(2,3)                  1.3539         -DE/DX =   -0.0001              !
 ! R5    R(2,7)                  1.0113         -DE/DX =    0.0                 !
 ! R6    R(3,4)                  1.2951         -DE/DX =    0.0001              !
 ! R7    R(4,5)                  1.365          -DE/DX =   -0.0002              !
 ! A1    A(2,1,5)              108.3486         -DE/DX =    0.0                 !
 ! A2    A(2,1,6)              124.9457         -DE/DX =    0.0                 !
 ! A3    A(5,1,6)              126.7057         -DE/DX =    0.0                 !
 ! A4    A(1,2,3)              108.7177         -DE/DX =   -0.0001              !
 ! A5    A(1,2,7)              130.9471         -DE/DX =    0.0001              !
 ! A6    A(3,2,7)              120.3352         -DE/DX =    0.0001              !
 ! A7    A(2,3,4)              105.8101         -DE/DX =    0.0001              !
 ! A8    A(3,4,5)              111.4151         -DE/DX =    0.0                 !
 ! A9    A(1,5,4)              105.7085         -DE/DX =    0.0                 !
 ! D1    D(5,1,2,3)              0.0            -DE/DX =    0.0                 !
 ! D2    D(5,1,2,7)            180.0            -DE/DX =    0.0                 !
 ! D3    D(6,1,2,3)            180.0            -DE/DX =    0.0                 !
 ! D4    D(6,1,2,7)              0.0            -DE/DX =    0.0                 !
 ! D5    D(2,1,5,4)              0.0            -DE/DX =    0.0                 !
 ! D6    D(6,1,5,4)            180.0            -DE/DX =    0.0                 !
 ! D7    D(1,2,3,4)              0.0            -DE/DX =    0.0                 !
 ! D8    D(7,2,3,4)            180.0            -DE/DX =    0.0                 !
 ! D9    D(2,3,4,5)              0.0            -DE/DX =    0.0                 !
 ! D10   D(3,4,5,1)              0.0            -DE/DX =    0.0                 !
 --------------------------------------------------------------------------------
 GradGradGradGradGradGradGradGradGradGradGradGradGradGradGradGradGradGrad

 1\1\GINC-N856\Freq\RTPSSh\6-31+G(d,p)\C1H2N4\RDJ3\17-Dec-2013\0\\#T Ge
 om=AllCheck Guess=TCheck SCRF=Check GenChk RTPSSh/6-31+G(d,p) Freq\\1H
 -tetrazole CH2N4 casno=288948 state=1 config=1 method=75 basis=4\\0,1\
 C,1.0135535336,0.0040769383,0.\N,0.3910856203,-1.1917395718,0.\N,-0.94
 69776097,-0.985051171,0.\N,-1.1054646979,0.3003284134,0.\N,0.094741514
 8,0.9504738701,0.\H,2.0828995024,0.1438521373,0.\H,0.7626189244,-2.132
 3219703,0.\\Version=EM64L-G09RevD.01\State=1-A'\HF=-258.2814024\RMSD=5
 .358e-09\RMSF=1.119e-04\ZeroPoint=0.0467004\Thermal=0.0501899\Dipole=1
 .7419479,-1.3026617,0.\DipoleDeriv=0.1656803,0.0242441,0.,-0.094632,0.
 4686776,0.,0.,0.,0.0708258,-0.2278481,0.3065552,0.,0.2157262,-0.382527
 ,0.,0.,0.,-0.1354364,0.135452,-0.3502362,0.,-0.3618099,-0.1811181,0.,0
 .,0.,-0.0995029,0.0569844,0.1659016,0.,0.2410538,0.0249595,0.,0.,0.,-0
 .1663879,-0.3779223,-0.1331261,0.,0.0023211,-0.3053221,0.,0.,0.,-0.198
 0656,0.0507074,0.0090935,0.,0.0083275,0.1112908,0.,0.,0.,0.1826953,0.1
 969462,-0.0224321,0.,-0.0109866,0.2640394,0.,0.,0.,0.3458716\Polar=44.
 622207,-0.1118039,43.755392,0.,0.,23.9296349\PG=CS [SG(C1H2N4)]\NImag=
 0\\0.94899295,0.01803321,0.60430872,0.,0.,0.13280407,-0.16769566,-0.07
 358179,0.,0.56633190,-0.10725910,-0.27938427,0.,-0.10877907,0.98856456
 ,0.,0.,-0.05679822,0.,0.,0.08757438,-0.08838952,-0.08803676,0.,-0.2222
 4293,-0.03061154,0.,0.44089776,0.00334087,-0.02371476,0.,0.00060532,-0
 .10226963,0.,0.06987897,0.56127161,0.,0.,0.01885340,0.,0.,-0.06488977,
 0.,0.,0.10999019,-0.11494839,0.06740621,0.,-0.07418979,0.03496348,0.,-
 0.10730345,-0.00113180,0.,0.48815509,-0.02966069,0.02794499,0.,0.10934
 027,-0.09567143,0.,0.05688793,-0.33486390,0.,-0.09505584,0.50884644,0.
 ,0.,0.01856357,0.,0.,0.02490155,0.,0.,-0.09303645,0.,0.,0.12024743,-0.
 23200913,0.13189352,0.,0.01808798,0.08506679,0.,-0.02623854,-0.1093162
 4,0.,-0.17815792,-0.04684396,0.,0.43231781,0.13980823,-0.26443950,0.,-
 0.02596070,-0.10003771,0.,-0.00628847,-0.09715513,0.,-0.00796193,-0.10
 488523,0.,-0.08484430,0.55864088,0.,0.,-0.07520294,0.,0.,0.01958268,0.
 ,0.,0.03464718,0.,0.,-0.08736346,0.,0.,0.10600778,-0.36279088,-0.04354
 317,0.,-0.00185669,0.00255923,0.,0.00031466,0.00248554,0.,-0.00160516,
 0.00009477,0.,-0.01135316,-0.00460784,0.,0.37775394,-0.03988949,-0.060
 78553,0.,-0.03264275,0.00217550,0.,-0.00124954,-0.00697583,0.,0.006646
 70,-0.00338977,0.,0.02341118,0.01186644,0.,0.04357694,0.05743224,0.,0.
 ,-0.02866294,0.,0.,-0.00326260,0.,0.,0.00626635,0.,0.,0.00889787,0.,0.
 ,-0.00521147,0.,0.,0.02264083,0.01684063,-0.01217121,0.,-0.11843480,0.
 12406022,0.,0.00296202,0.03413735,0.,-0.01195040,0.00523752,0.,-0.0026
 4704,-0.01014499,0.,-0.00046270,0.00014695,0.,0.11369230,0.01562698,-0
 .00392965,0.,0.13101871,-0.41337702,0.,-0.00058059,0.00370764,0.,-0.00
 486682,0.00201890,0.,0.00063302,-0.00398974,0.,-0.00056548,-0.00032305
 ,0.,-0.14126583,0.41589292,0.,0.,-0.00955694,0.,0.,-0.00710802,0.,0.,-
 0.01183089,0.,0.,0.00778950,0.,0.,0.00754022,0.,0.,-0.00066803,0.,0.,0
 .01383416\\-0.00011894,0.00002781,0.,0.00009795,0.00019167,0.,-0.00013
 684,0.00005364,0.,-0.00015470,-0.00019869,0.,0.00032161,-0.00010172,0.
 ,0.00002025,-0.00001263,0.,-0.00002934,0.00003991,0.\\\@


 I CLAIM NOT TO HAVE CONTROLLED EVENTS,
 BUT CONFESS PLAINLY THAT EVENTS HAVE CONTROLLED ME.

                                         A. LINCOLN
 Job cpu time:       0 days  0 hours  1 minutes 44.9 seconds.
 File lengths (MBytes):  RWF=     13 Int=      0 D2E=      0 Chk=      2 Scr=      1
 Normal termination of Gaussian 09 at Tue Dec 17 05:37:04 2013.
