 Entering Gaussian System, Link 0=g09
 Initial command:
 /usr/local/gaussian/g09.d01.em64t.legacy.linda/g09/l1.exe "/tmp/rdj3/g09-16160/Gau-20135.inp" -scrdir="/tmp/rdj3/g09-16160/"
 Entering Link 1 = /usr/local/gaussian/g09.d01.em64t.legacy.linda/g09/l1.exe PID=     20136.
  
 Copyright (c) 1988,1990,1992,1993,1995,1998,2003,2009,2013,
            Gaussian, Inc.  All Rights Reserved.
  
 This is part of the Gaussian(R) 09 program.  It is based on
 the Gaussian(R) 03 system (copyright 2003, Gaussian, Inc.),
 the Gaussian(R) 98 system (copyright 1998, Gaussian, Inc.),
 the Gaussian(R) 94 system (copyright 1995, Gaussian, Inc.),
 the Gaussian 92(TM) system (copyright 1992, Gaussian, Inc.),
 the Gaussian 90(TM) system (copyright 1990, Gaussian, Inc.),
 the Gaussian 88(TM) system (copyright 1988, Gaussian, Inc.),
 the Gaussian 86(TM) system (copyright 1986, Carnegie Mellon
 University), and the Gaussian 82(TM) system (copyright 1983,
 Carnegie Mellon University). Gaussian is a federally registered
 trademark of Gaussian, Inc.
  
 This software contains proprietary and confidential information,
 including trade secrets, belonging to Gaussian, Inc.
  
 This software is provided under written license and may be
 used, copied, transmitted, or stored only in accord with that
 written license.
  
 The following legend is applicable only to US Government
 contracts under FAR:
  
                    RESTRICTED RIGHTS LEGEND
  
 Use, reproduction and disclosure by the US Government is
 subject to restrictions as set forth in subparagraphs (a)
 and (c) of the Commercial Computer Software - Restricted
 Rights clause in FAR 52.227-19.
  
 Gaussian, Inc.
 340 Quinnipiac St., Bldg. 40, Wallingford CT 06492
  
  
 ---------------------------------------------------------------
 Warning -- This program may not be used in any manner that
 competes with the business of Gaussian, Inc. or will provide
 assistance to any competitor of Gaussian, Inc.  The licensee
 of this program is prohibited from giving any competitor of
 Gaussian, Inc. access to this program.  By using this program,
 the user acknowledges that Gaussian, Inc. is engaged in the
 business of creating and licensing software in the field of
 computational chemistry and represents and warrants to the
 licensee that it is not a competitor of Gaussian, Inc. and that
 it will not use this program in any manner prohibited above.
 ---------------------------------------------------------------
  

 Cite this work as:
 Gaussian 09, Revision D.01,
 M. J. Frisch, G. W. Trucks, H. B. Schlegel, G. E. Scuseria, 
 M. A. Robb, J. R. Cheeseman, G. Scalmani, V. Barone, B. Mennucci, 
 G. A. Petersson, H. Nakatsuji, M. Caricato, X. Li, H. P. Hratchian, 
 A. F. Izmaylov, J. Bloino, G. Zheng, J. L. Sonnenberg, M. Hada, 
 M. Ehara, K. Toyota, R. Fukuda, J. Hasegawa, M. Ishida, T. Nakajima, 
 Y. Honda, O. Kitao, H. Nakai, T. Vreven, J. A. Montgomery, Jr., 
 J. E. Peralta, F. Ogliaro, M. Bearpark, J. J. Heyd, E. Brothers, 
 K. N. Kudin, V. N. Staroverov, T. Keith, R. Kobayashi, J. Normand, 
 K. Raghavachari, A. Rendell, J. C. Burant, S. S. Iyengar, J. Tomasi, 
 M. Cossi, N. Rega, J. M. Millam, M. Klene, J. E. Knox, J. B. Cross, 
 V. Bakken, C. Adamo, J. Jaramillo, R. Gomperts, R. E. Stratmann, 
 O. Yazyev, A. J. Austin, R. Cammi, C. Pomelli, J. W. Ochterski, 
 R. L. Martin, K. Morokuma, V. G. Zakrzewski, G. A. Voth, 
 P. Salvador, J. J. Dannenberg, S. Dapprich, A. D. Daniels, 
 O. Farkas, J. B. Foresman, J. V. Ortiz, J. Cioslowski, 
 and D. J. Fox, Gaussian, Inc., Wallingford CT, 2013.
 
 ******************************************
 Gaussian 09:  EM64L-G09RevD.01 24-Apr-2013
                16-Dec-2013 
 ******************************************
 %Nproc=8
 Will use up to    8 processors via shared memory.
 %mem=436000000
 ----------------------
 #B3LYP/3-21G* opt freq
 ----------------------
 1/14=-1,18=20,19=15,26=3,38=1/1,3;
 2/9=110,12=2,17=6,18=5,40=1/2;
 3/5=5,7=1,11=2,16=1,25=1,30=1,71=1,74=-5/1,2,3;
 4//1;
 5/5=2,38=5/2;
 6/7=2,8=2,9=2,10=2,28=1/1;
 7//1,2,3,16;
 1/14=-1,18=20,19=15,26=3/3(2);
 2/9=110/2;
 99//99;
 2/9=110/2;
 3/5=5,7=1,11=2,16=1,25=1,30=1,71=1,74=-5/1,2,3;
 4/5=5,16=3,69=1/1;
 5/5=2,38=5/2;
 7//1,2,3,16;
 1/14=-1,18=20,19=15,26=3/3(-5);
 2/9=110/2;
 6/7=2,8=2,9=2,10=2,19=2,28=1/1;
 99/9=1/99;
 -----------------------------------------------------------------
 1H-tetrazole CH2N4 casno=288948 state=1 config=1 method=8 basis=8
 -----------------------------------------------------------------
 Symbolic Z-matrix:
 Charge =  0 Multiplicity = 1
 X
 X                    1     1. 
 C                    1     1.       2     90. 
 N                    1    rn1      2     90.      3    an1      0
 N                    1    rn2      2     90.      3    an2      0
 N                    1    rn3      2     90.      3    an3      0
 N                    1    rn4      2     90.      3    an4      0
 H                    3    rch      4    ach      5     180.     0
 H                    4    rnh      5    anh      6     180.     0
       Variables:
  rn1                   1.2426                   
  rn2                   1.333                    
  rn3                   1.1146                   
  rn4                   0.9264                   
  rch                   1.0678                   
  rnh                   0.9941                   
  an1                  71.8427                   
  an2                 133.7028                   
  an3                 194.4597                   
  an4                 276.0768                   
  ach                 125.0248                   
  anh                 120.7626                   
 

 GradGradGradGradGradGradGradGradGradGradGradGradGradGradGradGradGradGrad
 Berny optimization.
 Initialization pass.
                           ----------------------------
                           !    Initial Parameters    !
                           ! (Angstroms and Degrees)  !
 --------------------------                            --------------------------
 ! Name  Definition              Value          Derivative Info.                !
 --------------------------------------------------------------------------------
 ! R1    R(1,2)                  1.3303         estimate D2E/DX2                !
 ! R2    R(1,5)                  1.2892         estimate D2E/DX2                !
 ! R3    R(1,6)                  1.0678         estimate D2E/DX2                !
 ! R4    R(2,3)                  1.3261         estimate D2E/DX2                !
 ! R5    R(2,7)                  0.9941         estimate D2E/DX2                !
 ! R6    R(3,4)                  1.252          estimate D2E/DX2                !
 ! R7    R(4,5)                  1.3414         estimate D2E/DX2                !
 ! A1    A(2,1,5)              108.177          estimate D2E/DX2                !
 ! A2    A(2,1,6)              125.0248         estimate D2E/DX2                !
 ! A3    A(5,1,6)              126.7982         estimate D2E/DX2                !
 ! A4    A(1,2,3)              108.008          estimate D2E/DX2                !
 ! A5    A(1,2,7)              131.2294         estimate D2E/DX2                !
 ! A6    A(3,2,7)              120.7626         estimate D2E/DX2                !
 ! A7    A(2,3,4)              106.684          estimate D2E/DX2                !
 ! A8    A(3,4,5)              111.3724         estimate D2E/DX2                !
 ! A9    A(1,5,4)              105.7586         estimate D2E/DX2                !
 ! D1    D(5,1,2,3)              0.0            estimate D2E/DX2                !
 ! D2    D(5,1,2,7)            180.0            estimate D2E/DX2                !
 ! D3    D(6,1,2,3)            180.0            estimate D2E/DX2                !
 ! D4    D(6,1,2,7)              0.0            estimate D2E/DX2                !
 ! D5    D(2,1,5,4)              0.0            estimate D2E/DX2                !
 ! D6    D(6,1,5,4)            180.0            estimate D2E/DX2                !
 ! D7    D(1,2,3,4)              0.0            estimate D2E/DX2                !
 ! D8    D(7,2,3,4)            180.0            estimate D2E/DX2                !
 ! D9    D(2,3,4,5)              0.0            estimate D2E/DX2                !
 ! D10   D(3,4,5,1)              0.0            estimate D2E/DX2                !
 --------------------------------------------------------------------------------
 Trust Radius=3.00D-01 FncErr=1.00D-07 GrdErr=1.00D-06
 Number of steps in this run=     36 maximum allowed number of steps=    100.
 GradGradGradGradGradGradGradGradGradGradGradGradGradGradGradGradGradGrad

                          Input orientation:                          
 ---------------------------------------------------------------------
 Center     Atomic      Atomic             Coordinates (Angstroms)
 Number     Number       Type             X           Y           Z
 ---------------------------------------------------------------------
      1          6           0        1.000000    0.000000    0.000000
      2          7           0        0.387228   -1.180724    0.000000
      3          7           0       -0.920993   -0.963670    0.000000
      4          7           0       -1.079293    0.278314    0.000000
      5          7           0        0.098070    0.921194    0.000000
      6          1           0        2.058429    0.141157    0.000000
      7          1           0        0.749017   -2.106652    0.000000
 ---------------------------------------------------------------------
                    Distance matrix (angstroms):
                    1          2          3          4          5
     1  C    0.000000
     2  N    1.330263   0.000000
     3  N    2.149157   1.326105   0.000000
     4  N    2.097837   2.068690   1.252032   0.000000
     5  N    1.289216   2.121715   2.142710   1.341447   0.000000
     6  H    1.067800   2.130794   3.177672   3.140719   2.109850
     7  H    2.121551   0.994100   2.023695   3.005127   3.097029
                    6          7
     6  H    0.000000
     7  H    2.601385   0.000000
 Stoichiometry    CH2N4
 Framework group  CS[SG(CH2N4)]
 Deg. of freedom    11
 Full point group                 CS      NOp   2
 Largest Abelian subgroup         CS      NOp   2
 Largest concise Abelian subgroup C1      NOp   1
                         Standard orientation:                         
 ---------------------------------------------------------------------
 Center     Atomic      Atomic             Coordinates (Angstroms)
 Number     Number       Type             X           Y           Z
 ---------------------------------------------------------------------
      1          6           0        1.052733    0.225621    0.000000
      2          7           0        0.000000    1.038857    0.000000
      3          7           0       -1.095416    0.291448    0.000000
      4          7           0       -0.716382   -0.901832    0.000000
      5          7           0        0.622191   -0.989579    0.000000
      6          1           0        2.072287    0.542964    0.000000
      7          1           0       -0.061439    2.031056    0.000000
 ---------------------------------------------------------------------
 Rotational constants (GHZ):     10.9201517     10.7345054      5.4132664
 Standard basis: 3-21G* (6D, 7F)
 There are    39 symmetry adapted cartesian basis functions of A'  symmetry.
 There are    10 symmetry adapted cartesian basis functions of A"  symmetry.
 There are    39 symmetry adapted basis functions of A'  symmetry.
 There are    10 symmetry adapted basis functions of A"  symmetry.
    49 basis functions,    81 primitive gaussians,    49 cartesian basis functions
    18 alpha electrons       18 beta electrons
       nuclear repulsion energy       169.8308489506 Hartrees.
 NAtoms=    7 NActive=    7 NUniq=    7 SFac= 1.00D+00 NAtFMM=   60 NAOKFM=F Big=F
 Integral buffers will be    131072 words long.
 Raffenetti 2 integral format.
 Two-electron integral symmetry is turned on.
 One-electron integrals computed using PRISM.
 NBasis=    49 RedAO= T EigKep=  1.68D-02  NBF=    39    10
 NBsUse=    49 1.00D-06 EigRej= -1.00D+00 NBFU=    39    10
 ExpMin= 1.83D-01 ExpMax= 2.43D+02 ExpMxC= 2.43D+02 IAcc=1 IRadAn=         1 AccDes= 0.00D+00
 Harris functional with IExCor=  402 and IRadAn=       1 diagonalized for initial guess.
 HarFok:  IExCor=  402 AccDes= 0.00D+00 IRadAn=         1 IDoV= 1 UseB2=F ITyADJ=14
 ICtDFT=  3500011 ScaDFX=  1.000000  1.000000  1.000000  1.000000
 FoFCou: FMM=F IPFlag=           0 FMFlag=      100000 FMFlg1=           0
         NFxFlg=           0 DoJE=T BraDBF=F KetDBF=T FulRan=T
         wScrn=  0.000000 ICntrl=     500 IOpCl=  0 I1Cent=   200000004 NGrid=           0
         NMat0=    1 NMatS0=      1 NMatT0=    0 NMatD0=    1 NMtDS0=    0 NMtDT0=    0
 Petite list used in FoFCou.
 Initial guess orbital symmetries:
       Occupied  (A') (A') (A') (A') (A') (A') (A') (A') (A') (A')
                 (A') (A') (A") (A') (A") (A') (A") (A')
       Virtual   (A") (A") (A') (A') (A') (A') (A') (A') (A') (A')
                 (A") (A') (A') (A') (A') (A") (A') (A") (A') (A")
                 (A') (A") (A') (A') (A') (A') (A') (A') (A') (A')
                 (A')
 The electronic state of the initial guess is 1-A'.
 Keep R1 ints in memory in symmetry-blocked form, NReq=1649580.
 Requested convergence on RMS density matrix=1.00D-08 within 128 cycles.
 Requested convergence on MAX density matrix=1.00D-06.
 Requested convergence on             energy=1.00D-06.
 No special actions if energy rises.
 Integral accuracy reduced to 1.0D-05 until final iterations.
 Initial convergence to 1.0D-05 achieved.  Increase integral accuracy.
 SCF Done:  E(RB3LYP) =  -256.765877325     A.U. after   14 cycles
            NFock= 14  Conv=0.34D-08     -V/T= 2.0044

 **********************************************************************

            Population analysis using the SCF density.

 **********************************************************************

 Orbital symmetries:
       Occupied  (A') (A') (A') (A') (A') (A') (A') (A') (A') (A')
                 (A') (A") (A') (A') (A") (A") (A') (A')
       Virtual   (A") (A") (A') (A') (A') (A') (A') (A') (A') (A")
                 (A') (A') (A') (A') (A") (A') (A") (A') (A') (A")
                 (A') (A") (A') (A') (A') (A') (A') (A') (A') (A')
                 (A')
 The electronic state is 1-A'.
 Alpha  occ. eigenvalues --  -14.37357 -14.33216 -14.31126 -14.28429 -10.22315
 Alpha  occ. eigenvalues --   -1.21598  -0.98239  -0.93721  -0.70077  -0.69169
 Alpha  occ. eigenvalues --   -0.62061  -0.52392  -0.51630  -0.37445  -0.34386
 Alpha  occ. eigenvalues --   -0.32466  -0.28997  -0.26999
 Alpha virt. eigenvalues --   -0.01152   0.03054   0.07837   0.12537   0.20962
 Alpha virt. eigenvalues --    0.23492   0.33491   0.37800   0.46346   0.68271
 Alpha virt. eigenvalues --    0.68373   0.81042   0.83237   0.92180   1.01128
 Alpha virt. eigenvalues --    1.04281   1.07199   1.07846   1.11743   1.15020
 Alpha virt. eigenvalues --    1.18264   1.20169   1.24877   1.36232   1.38565
 Alpha virt. eigenvalues --    1.45609   1.66670   2.11372   2.39029   2.67773
 Alpha virt. eigenvalues --    2.74809
          Condensed to atoms (all electrons):
               1          2          3          4          5          6
     1  C    4.986335   0.171369  -0.128443  -0.124411   0.360978   0.362534
     2  N    0.171369   7.207819   0.120197  -0.136702  -0.084562  -0.044245
     3  N   -0.128443   0.120197   6.963207   0.213085  -0.127421   0.001849
     4  N   -0.124411  -0.136702   0.213085   6.887556   0.239950   0.004344
     5  N    0.360978  -0.084562  -0.127421   0.239950   6.997422  -0.031347
     6  H    0.362534  -0.044245   0.001849   0.004344  -0.031347   0.437818
     7  H   -0.013776   0.317296  -0.019435   0.004665   0.003603   0.001184
               7
     1  C   -0.013776
     2  N    0.317296
     3  N   -0.019435
     4  N    0.004665
     5  N    0.003603
     6  H    0.001184
     7  H    0.338416
 Mulliken charges:
               1
     1  C    0.385414
     2  N   -0.551173
     3  N   -0.023041
     4  N   -0.088486
     5  N   -0.358622
     6  H    0.267862
     7  H    0.368047
 Sum of Mulliken charges =   0.00000
 Mulliken charges with hydrogens summed into heavy atoms:
               1
     1  C    0.653276
     2  N   -0.183126
     3  N   -0.023041
     4  N   -0.088486
     5  N   -0.358622
 Electronic spatial extent (au):  <R**2>=            244.6057
 Charge=              0.0000 electrons
 Dipole moment (field-independent basis, Debye):
    X=              2.5422    Y=              4.9154    Z=              0.0000  Tot=              5.5339
 Quadrupole moment (field-independent basis, Debye-Ang):
   XX=            -29.1646   YY=            -26.5933   ZZ=            -27.9358
   XY=              1.7110   XZ=              0.0000   YZ=              0.0000
 Traceless Quadrupole moment (field-independent basis, Debye-Ang):
   XX=             -1.2667   YY=              1.3046   ZZ=             -0.0379
   XY=              1.7110   XZ=              0.0000   YZ=              0.0000
 Octapole moment (field-independent basis, Debye-Ang**2):
  XXX=             11.2968  YYY=             22.1019  ZZZ=              0.0000  XYY=             -0.6575
  XXY=              4.4746  XXZ=              0.0000  XZZ=             -1.0012  YZZ=              0.2605
  YYZ=              0.0000  XYZ=              0.0000
 Hexadecapole moment (field-independent basis, Debye-Ang**3):
 XXXX=           -133.9905 YYYY=           -111.3349 ZZZZ=            -22.4851 XXXY=              5.8787
 XXXZ=              0.0000 YYYX=             -0.8526 YYYZ=              0.0000 ZZZX=              0.0000
 ZZZY=              0.0000 XXYY=            -50.2951 XXZZ=            -28.2567 YYZZ=            -26.3136
 XXYZ=              0.0000 YYXZ=              0.0000 ZZXY=             -0.3187
 N-N= 1.698308489506D+02 E-N=-9.385709484202D+02  KE= 2.556348556462D+02
 Symmetry A'   KE= 2.461918447152D+02
 Symmetry A"   KE= 9.443010931059D+00
 Calling FoFJK, ICntrl=      2127 FMM=F ISym2X=1 I1Cent= 0 IOpClX= 0 NMat=1 NMatS=1 NMatT=0.
 ***** Axes restored to original set *****
 -------------------------------------------------------------------
 Center     Atomic                   Forces (Hartrees/Bohr)
 Number     Number              X              Y              Z
 -------------------------------------------------------------------
      1        6           0.055615761   -0.002435702    0.000000000
      2        7           0.045964759   -0.033616031    0.000000000
      3        7          -0.058251183   -0.080478598    0.000000000
      4        7          -0.077938952    0.060671431    0.000000000
      5        7           0.025039515    0.069228276    0.000000000
      6        1           0.003483845    0.000748379    0.000000000
      7        1           0.006086256   -0.014117756    0.000000000
 -------------------------------------------------------------------
 Cartesian Forces:  Max     0.080478598 RMS     0.038813309

 GradGradGradGradGradGradGradGradGradGradGradGradGradGradGradGradGradGrad
 Berny optimization.
 FormGI is forming the generalized inverse of G from B-inverse, IUseBI=4.
 Internal  Forces:  Max     0.088592495 RMS     0.030245441
 Search for a local minimum.
 Step number   1 out of a maximum of   36
 All quantities printed in internal units (Hartrees-Bohrs-Radians)
 Mixed Optimization -- RFO/linear search
 Second derivative matrix not updated -- first step.
 ITU=  0
     Eigenvalues ---    0.02505   0.02639   0.02674   0.02834   0.16000
     Eigenvalues ---    0.16000   0.22605   0.24688   0.37510   0.48741
     Eigenvalues ---    0.50870   0.56601   0.58498   0.66939   0.78934
 RFO step:  Lambda=-3.41660219D-02 EMin= 2.50488176D-02
 Linear search not attempted -- first point.
 Iteration  1 RMS(Cart)=  0.04376163 RMS(Int)=  0.00026395
 Iteration  2 RMS(Cart)=  0.00017105 RMS(Int)=  0.00018072
 Iteration  3 RMS(Cart)=  0.00000004 RMS(Int)=  0.00018072
 ClnCor:  largest displacement from symmetrization is 1.97D-11 for atom     1.
 Variable       Old X    -DE/DX   Delta X   Delta X   Delta X     New X
                                 (Linear)    (Quad)   (Total)
    R1        2.51383   0.04542   0.00000   0.06713   0.06689   2.58072
    R2        2.43626   0.05749   0.00000   0.07468   0.07451   2.51078
    R3        2.01785   0.00355   0.00000   0.00868   0.00868   2.02653
    R4        2.50598   0.07243   0.00000   0.11415   0.11416   2.62014
    R5        1.87858   0.01536   0.00000   0.02946   0.02946   1.90803
    R6        2.36600   0.08859   0.00000   0.10722   0.10747   2.47347
    R7        2.53497   0.06898   0.00000   0.11742   0.11757   2.65254
    A1        1.88804   0.00674   0.00000   0.00473   0.00432   1.89236
    A2        2.18209  -0.00309   0.00000  -0.00093  -0.00072   2.18138
    A3        2.21305  -0.00365   0.00000  -0.00381  -0.00360   2.20945
    A4        1.88509   0.00487   0.00000   0.00745   0.00720   1.89229
    A5        2.29039  -0.00293   0.00000  -0.00627  -0.00615   2.28424
    A6        2.10770  -0.00194   0.00000  -0.00117  -0.00105   2.10665
    A7        1.86199  -0.00540   0.00000  -0.00354  -0.00323   1.85876
    A8        1.94382  -0.01207   0.00000  -0.02221  -0.02175   1.92207
    A9        1.84584   0.00586   0.00000   0.01358   0.01346   1.85929
    D1        0.00000   0.00000   0.00000   0.00000   0.00000   0.00000
    D2        3.14159   0.00000   0.00000   0.00000   0.00000   3.14159
    D3        3.14159   0.00000   0.00000   0.00000   0.00000   3.14159
    D4        0.00000   0.00000   0.00000   0.00000   0.00000   0.00000
    D5        0.00000   0.00000   0.00000   0.00000   0.00000   0.00000
    D6        3.14159   0.00000   0.00000   0.00000   0.00000   3.14159
    D7        0.00000   0.00000   0.00000   0.00000   0.00000   0.00000
    D8        3.14159   0.00000   0.00000   0.00000   0.00000   3.14159
    D9        0.00000   0.00000   0.00000   0.00000   0.00000   0.00000
   D10        0.00000   0.00000   0.00000   0.00000   0.00000   0.00000
         Item               Value     Threshold  Converged?
 Maximum Force            0.088592     0.000450     NO 
 RMS     Force            0.030245     0.000300     NO 
 Maximum Displacement     0.113331     0.001800     NO 
 RMS     Displacement     0.043769     0.001200     NO 
 Predicted change in Energy=-1.792862D-02
 GradGradGradGradGradGradGradGradGradGradGradGradGradGradGradGradGradGrad

                          Input orientation:                          
 ---------------------------------------------------------------------
 Center     Atomic      Atomic             Coordinates (Angstroms)
 Number     Number       Type             X           Y           Z
 ---------------------------------------------------------------------
      1          6           0        1.029767    0.006905    0.000000
      2          7           0        0.400264   -1.205014    0.000000
      3          7           0       -0.969077   -0.987443    0.000000
      4          7           0       -1.139266    0.310351    0.000000
      5          7           0        0.104695    0.960604    0.000000
      6          1           0        2.092901    0.147531    0.000000
      7          1           0        0.773172   -2.143316    0.000000
 ---------------------------------------------------------------------
                    Distance matrix (angstroms):
                    1          2          3          4          5
     1  C    0.000000
     2  N    1.365659   0.000000
     3  N    2.232511   1.386518   0.000000
     4  N    2.190156   2.160205   1.308905   0.000000
     5  N    1.328646   2.185696   2.224381   1.403662   0.000000
     6  H    1.072394   2.166656   3.265559   3.236265   2.148035
     7  H    2.165478   1.009688   2.090807   3.110933   3.175088
                    6          7
     6  H    0.000000
     7  H    2.643797   0.000000
 Stoichiometry    CH2N4
 Framework group  CS[SG(CH2N4)]
 Deg. of freedom    11
 Full point group                 CS      NOp   2
 Largest Abelian subgroup         CS      NOp   2
 Largest concise Abelian subgroup C1      NOp   1
                         Standard orientation:                         
 ---------------------------------------------------------------------
 Center     Atomic      Atomic             Coordinates (Angstroms)
 Number     Number       Type             X           Y           Z
 ---------------------------------------------------------------------
      1          6           0        1.088119    0.250042    0.000000
      2          7           0        0.000000    1.075282    0.000000
      3          7           0       -1.144000    0.291894    0.000000
      4          7           0       -0.741624   -0.953629    0.000000
      5          7           0        0.660981   -1.008074    0.000000
      6          1           0        2.108951    0.578569    0.000000
      7          1           0       -0.065160    2.082865    0.000000
 ---------------------------------------------------------------------
 Rotational constants (GHZ):     10.1727125      9.9463216      5.0291216
 Standard basis: 3-21G* (6D, 7F)
 There are    39 symmetry adapted cartesian basis functions of A'  symmetry.
 There are    10 symmetry adapted cartesian basis functions of A"  symmetry.
 There are    39 symmetry adapted basis functions of A'  symmetry.
 There are    10 symmetry adapted basis functions of A"  symmetry.
    49 basis functions,    81 primitive gaussians,    49 cartesian basis functions
    18 alpha electrons       18 beta electrons
       nuclear repulsion energy       163.7516880744 Hartrees.
 NAtoms=    7 NActive=    7 NUniq=    7 SFac= 1.00D+00 NAtFMM=   60 NAOKFM=F Big=F
 Integral buffers will be    131072 words long.
 Raffenetti 2 integral format.
 Two-electron integral symmetry is turned on.
 One-electron integrals computed using PRISM.
 NBasis=    49 RedAO= T EigKep=  1.97D-02  NBF=    39    10
 NBsUse=    49 1.00D-06 EigRej= -1.00D+00 NBFU=    39    10
 Initial guess from the checkpoint file:  "/tmp/rdj3/g09-16160/Gau-20136.chk"
 B after Tr=     0.000000    0.000000    0.000000
         Rot=    0.999987    0.000000    0.000000   -0.005186 Ang=  -0.59 deg.
 Initial guess orbital symmetries:
       Occupied  (A') (A') (A') (A') (A') (A') (A') (A') (A') (A')
                 (A') (A") (A') (A') (A") (A") (A') (A')
       Virtual   (A') (A') (A') (A') (A') (A') (A') (A') (A') (A')
                 (A') (A') (A') (A') (A') (A') (A') (A') (A') (A')
                 (A') (A') (A') (A') (A") (A") (A") (A") (A") (A")
                 (A")
 ExpMin= 1.83D-01 ExpMax= 2.43D+02 ExpMxC= 2.43D+02 IAcc=1 IRadAn=         1 AccDes= 0.00D+00
 Harris functional with IExCor=  402 and IRadAn=       1 diagonalized for initial guess.
 HarFok:  IExCor=  402 AccDes= 0.00D+00 IRadAn=         1 IDoV= 1 UseB2=F ITyADJ=14
 ICtDFT=  3500011 ScaDFX=  1.000000  1.000000  1.000000  1.000000
 FoFCou: FMM=F IPFlag=           0 FMFlag=      100000 FMFlg1=           0
         NFxFlg=           0 DoJE=T BraDBF=F KetDBF=T FulRan=T
         wScrn=  0.000000 ICntrl=     500 IOpCl=  0 I1Cent=   200000004 NGrid=           0
         NMat0=    1 NMatS0=      1 NMatT0=    0 NMatD0=    1 NMtDS0=    0 NMtDT0=    0
 Petite list used in FoFCou.
 Keep R1 ints in memory in symmetry-blocked form, NReq=1649580.
 Requested convergence on RMS density matrix=1.00D-08 within 128 cycles.
 Requested convergence on MAX density matrix=1.00D-06.
 Requested convergence on             energy=1.00D-06.
 No special actions if energy rises.
 Integral accuracy reduced to 1.0D-05 until final iterations.
 Initial convergence to 1.0D-05 achieved.  Increase integral accuracy.
 SCF Done:  E(RB3LYP) =  -256.785429327     A.U. after   15 cycles
            NFock= 15  Conv=0.39D-08     -V/T= 2.0075
 Calling FoFJK, ICntrl=      2127 FMM=F ISym2X=1 I1Cent= 0 IOpClX= 0 NMat=1 NMatS=1 NMatT=0.
 ***** Axes restored to original set *****
 -------------------------------------------------------------------
 Center     Atomic                   Forces (Hartrees/Bohr)
 Number     Number              X              Y              Z
 -------------------------------------------------------------------
      1        6          -0.007094041   -0.003606403    0.000000000
      2        7           0.017361774    0.000725296    0.000000000
      3        7          -0.017275061   -0.024426225    0.000000000
      4        7          -0.012080561    0.009432227    0.000000000
      5        7           0.018933359    0.019746748    0.000000000
      6        1           0.000253263    0.000507156    0.000000000
      7        1          -0.000098733   -0.002378798    0.000000000
 -------------------------------------------------------------------
 Cartesian Forces:  Max     0.024426225 RMS     0.010350201

 GradGradGradGradGradGradGradGradGradGradGradGradGradGradGradGradGradGrad
 Berny optimization.
 Using GEDIIS/GDIIS optimizer.
 FormGI is forming the generalized inverse of G from B-inverse, IUseBI=4.
 Internal  Forces:  Max     0.021014907 RMS     0.007043890
 Search for a local minimum.
 Step number   2 out of a maximum of   36
 All quantities printed in internal units (Hartrees-Bohrs-Radians)
 Mixed Optimization -- RFO/linear search
 Update second derivatives using D2CorX and points    1    2
 DE= -1.96D-02 DEPred=-1.79D-02 R= 1.09D+00
 TightC=F SS=  1.41D+00  RLast= 2.24D-01 DXNew= 5.0454D-01 6.7192D-01
 Trust test= 1.09D+00 RLast= 2.24D-01 DXMaxT set to 5.05D-01
 ITU=  1  0
 Use linear search instead of GDIIS.
     Eigenvalues ---    0.02504   0.02634   0.02676   0.02834   0.15997
     Eigenvalues ---    0.16004   0.22589   0.24456   0.37516   0.47371
     Eigenvalues ---    0.48998   0.54206   0.58143   0.69000   0.75425
 RFO step:  Lambda=-2.11893115D-03 EMin= 2.50366504D-02
 Quartic linear search produced a step of  0.28984.
 Iteration  1 RMS(Cart)=  0.01931308 RMS(Int)=  0.00029598
 Iteration  2 RMS(Cart)=  0.00031033 RMS(Int)=  0.00004675
 Iteration  3 RMS(Cart)=  0.00000004 RMS(Int)=  0.00004675
 ClnCor:  largest displacement from symmetrization is 2.79D-11 for atom     1.
 Variable       Old X    -DE/DX   Delta X   Delta X   Delta X     New X
                                 (Linear)    (Quad)   (Total)
    R1        2.58072   0.00300   0.01939  -0.01015   0.00917   2.58989
    R2        2.51078   0.00236   0.02160  -0.01286   0.00870   2.51948
    R3        2.02653   0.00032   0.00252  -0.00038   0.00213   2.02866
    R4        2.62014   0.01431   0.03309   0.00902   0.04210   2.66224
    R5        1.90803   0.00217   0.00854   0.00033   0.00887   1.91691
    R6        2.47347   0.02101   0.03115   0.01411   0.04532   2.51879
    R7        2.65254   0.01835   0.03408   0.02138   0.05550   2.70804
    A1        1.89236   0.00946   0.00125   0.03579   0.03694   1.92930
    A2        2.18138  -0.00426  -0.00021  -0.01426  -0.01441   2.16696
    A3        2.20945  -0.00520  -0.00104  -0.02153  -0.02253   2.18692
    A4        1.89229   0.00261   0.00209   0.00384   0.00585   1.89814
    A5        2.28424  -0.00038  -0.00178   0.00569   0.00394   2.28818
    A6        2.10665  -0.00223  -0.00030  -0.00953  -0.00979   2.09686
    A7        1.85876  -0.00887  -0.00094  -0.03332  -0.03419   1.82457
    A8        1.92207   0.00373  -0.00630   0.03777   0.03159   1.95365
    A9        1.85929  -0.00693   0.00390  -0.04407  -0.04018   1.81911
    D1        0.00000   0.00000   0.00000   0.00000   0.00000   0.00000
    D2        3.14159   0.00000   0.00000   0.00000   0.00000   3.14159
    D3        3.14159   0.00000   0.00000   0.00000   0.00000   3.14159
    D4        0.00000   0.00000   0.00000   0.00000   0.00000   0.00000
    D5        0.00000   0.00000   0.00000   0.00000   0.00000   0.00000
    D6        3.14159   0.00000   0.00000   0.00000   0.00000   3.14159
    D7        0.00000   0.00000   0.00000   0.00000   0.00000   0.00000
    D8        3.14159   0.00000   0.00000   0.00000   0.00000   3.14159
    D9        0.00000   0.00000   0.00000   0.00000   0.00000   0.00000
   D10        0.00000   0.00000   0.00000   0.00000   0.00000   0.00000
         Item               Value     Threshold  Converged?
 Maximum Force            0.021015     0.000450     NO 
 RMS     Force            0.007044     0.000300     NO 
 Maximum Displacement     0.061642     0.001800     NO 
 RMS     Displacement     0.019326     0.001200     NO 
 Predicted change in Energy=-1.690411D-03
 GradGradGradGradGradGradGradGradGradGradGradGradGradGradGradGradGradGrad

                          Input orientation:                          
 ---------------------------------------------------------------------
 Center     Atomic      Atomic             Coordinates (Angstroms)
 Number     Number       Type             X           Y           Z
 ---------------------------------------------------------------------
      1          6           0        1.024091    0.010762    0.000000
      2          7           0        0.403456   -1.211168    0.000000
      3          7           0       -0.991037   -1.010932    0.000000
      4          7           0       -1.138892    0.313729    0.000000
      5          7           0        0.122802    0.993224    0.000000
      6          1           0        2.089076    0.145889    0.000000
      7          1           0        0.782960   -2.151885    0.000000
 ---------------------------------------------------------------------
                    Distance matrix (angstroms):
                    1          2          3          4          5
     1  C    0.000000
     2  N    1.370511   0.000000
     3  N    2.259336   1.408796   0.000000
     4  N    2.184099   2.168905   1.332888   0.000000
     5  N    1.333249   2.222186   2.292876   1.433033   0.000000
     6  H    1.073523   2.164004   3.290186   3.232328   2.141076
     7  H    2.176048   1.014383   2.109227   3.126143   3.213645
                    6          7
     6  H    0.000000
     7  H    2.643047   0.000000
 Stoichiometry    CH2N4
 Framework group  CS[SG(CH2N4)]
 Deg. of freedom    11
 Full point group                 CS      NOp   2
 Largest Abelian subgroup         CS      NOp   2
 Largest concise Abelian subgroup C1      NOp   1
                         Standard orientation:                         
 ---------------------------------------------------------------------
 Center     Atomic      Atomic             Coordinates (Angstroms)
 Number     Number       Type             X           Y           Z
 ---------------------------------------------------------------------
      1          6           0        1.084643    0.246244    0.000000
      2          7           0        0.000000    1.084009    0.000000
      3          7           0       -1.173925    0.305161    0.000000
      4          7           0       -0.739486   -0.954940    0.000000
      5          7           0        0.691695   -1.027784    0.000000
      6          1           0        2.104692    0.580833    0.000000
      7          1           0       -0.060533    2.096583    0.000000
 ---------------------------------------------------------------------
 Rotational constants (GHZ):     10.0419777      9.6131555      4.9114444
 Standard basis: 3-21G* (6D, 7F)
 There are    39 symmetry adapted cartesian basis functions of A'  symmetry.
 There are    10 symmetry adapted cartesian basis functions of A"  symmetry.
 There are    39 symmetry adapted basis functions of A'  symmetry.
 There are    10 symmetry adapted basis functions of A"  symmetry.
    49 basis functions,    81 primitive gaussians,    49 cartesian basis functions
    18 alpha electrons       18 beta electrons
       nuclear repulsion energy       161.8624746376 Hartrees.
 NAtoms=    7 NActive=    7 NUniq=    7 SFac= 1.00D+00 NAtFMM=   60 NAOKFM=F Big=F
 Integral buffers will be    131072 words long.
 Raffenetti 2 integral format.
 Two-electron integral symmetry is turned on.
 One-electron integrals computed using PRISM.
 NBasis=    49 RedAO= T EigKep=  2.06D-02  NBF=    39    10
 NBsUse=    49 1.00D-06 EigRej= -1.00D+00 NBFU=    39    10
 Initial guess from the checkpoint file:  "/tmp/rdj3/g09-16160/Gau-20136.chk"
 B after Tr=     0.000000    0.000000    0.000000
         Rot=    1.000000    0.000000    0.000000   -0.000709 Ang=  -0.08 deg.
 Initial guess orbital symmetries:
       Occupied  (A') (A') (A') (A') (A') (A') (A') (A') (A') (A')
                 (A') (A') (A") (A') (A") (A") (A') (A')
       Virtual   (A') (A') (A') (A') (A') (A') (A') (A') (A') (A')
                 (A') (A') (A') (A') (A') (A') (A') (A') (A') (A')
                 (A') (A') (A') (A') (A") (A") (A") (A") (A") (A")
                 (A")
 ExpMin= 1.83D-01 ExpMax= 2.43D+02 ExpMxC= 2.43D+02 IAcc=1 IRadAn=         1 AccDes= 0.00D+00
 Harris functional with IExCor=  402 and IRadAn=       1 diagonalized for initial guess.
 HarFok:  IExCor=  402 AccDes= 0.00D+00 IRadAn=         1 IDoV= 1 UseB2=F ITyADJ=14
 ICtDFT=  3500011 ScaDFX=  1.000000  1.000000  1.000000  1.000000
 FoFCou: FMM=F IPFlag=           0 FMFlag=      100000 FMFlg1=           0
         NFxFlg=           0 DoJE=T BraDBF=F KetDBF=T FulRan=T
         wScrn=  0.000000 ICntrl=     500 IOpCl=  0 I1Cent=   200000004 NGrid=           0
         NMat0=    1 NMatS0=      1 NMatT0=    0 NMatD0=    1 NMtDS0=    0 NMtDT0=    0
 Petite list used in FoFCou.
 Keep R1 ints in memory in symmetry-blocked form, NReq=1649580.
 Requested convergence on RMS density matrix=1.00D-08 within 128 cycles.
 Requested convergence on MAX density matrix=1.00D-06.
 Requested convergence on             energy=1.00D-06.
 No special actions if energy rises.
 Integral accuracy reduced to 1.0D-05 until final iterations.
 Initial convergence to 1.0D-05 achieved.  Increase integral accuracy.
 SCF Done:  E(RB3LYP) =  -256.786870775     A.U. after   13 cycles
            NFock= 13  Conv=0.87D-08     -V/T= 2.0082
 Calling FoFJK, ICntrl=      2127 FMM=F ISym2X=1 I1Cent= 0 IOpClX= 0 NMat=1 NMatS=1 NMatT=0.
 ***** Axes restored to original set *****
 -------------------------------------------------------------------
 Center     Atomic                   Forces (Hartrees/Bohr)
 Number     Number              X              Y              Z
 -------------------------------------------------------------------
      1        6          -0.003232590   -0.004977794    0.000000000
      2        7           0.010175942    0.003454129    0.000000000
      3        7           0.002617454    0.008032041    0.000000000
      4        7          -0.015294746    0.002339512    0.000000000
      5        7           0.005015237   -0.009904416    0.000000000
      6        1           0.000428932   -0.000521641    0.000000000
      7        1           0.000289771    0.001578169    0.000000000
 -------------------------------------------------------------------
 Cartesian Forces:  Max     0.015294746 RMS     0.005290409

 GradGradGradGradGradGradGradGradGradGradGradGradGradGradGradGradGradGrad
 Berny optimization.
 Using GEDIIS/GDIIS optimizer.
 FormGI is forming the generalized inverse of G from B-inverse, IUseBI=4.
 Internal  Forces:  Max     0.013244060 RMS     0.004436935
 Search for a local minimum.
 Step number   3 out of a maximum of   36
 All quantities printed in internal units (Hartrees-Bohrs-Radians)
 Mixed Optimization -- RFO/linear search
 Update second derivatives using D2CorX and points    1    2    3
 DE= -1.44D-03 DEPred=-1.69D-03 R= 8.53D-01
 TightC=F SS=  1.41D+00  RLast= 1.15D-01 DXNew= 8.4853D-01 3.4410D-01
 Trust test= 8.53D-01 RLast= 1.15D-01 DXMaxT set to 5.05D-01
 ITU=  1  1  0
 Use linear search instead of GDIIS.
     Eigenvalues ---    0.02506   0.02636   0.02678   0.02831   0.16001
     Eigenvalues ---    0.16042   0.21344   0.28460   0.37403   0.38189
     Eigenvalues ---    0.48909   0.53399   0.62346   0.68835   0.79805
 RFO step:  Lambda=-9.42262122D-04 EMin= 2.50567357D-02
 Quartic linear search produced a step of -0.20061.
 Iteration  1 RMS(Cart)=  0.01100035 RMS(Int)=  0.00011257
 Iteration  2 RMS(Cart)=  0.00008777 RMS(Int)=  0.00004327
 Iteration  3 RMS(Cart)=  0.00000000 RMS(Int)=  0.00004327
 ClnCor:  largest displacement from symmetrization is 1.01D-11 for atom     1.
 Variable       Old X    -DE/DX   Delta X   Delta X   Delta X     New X
                                 (Linear)    (Quad)   (Total)
    R1        2.58989  -0.01123  -0.00184  -0.01307  -0.01498   2.57491
    R2        2.51948  -0.00178  -0.00174   0.00060  -0.00117   2.51831
    R3        2.02866   0.00036  -0.00043   0.00155   0.00113   2.02979
    R4        2.66224   0.00603  -0.00845   0.02490   0.01644   2.67867
    R5        1.91691  -0.00135  -0.00178   0.00107  -0.00071   1.91619
    R6        2.51879  -0.00214  -0.00909   0.01666   0.00762   2.52642
    R7        2.70804   0.00387  -0.01113   0.02819   0.01711   2.72515
    A1        1.92930  -0.00159  -0.00741   0.00671  -0.00079   1.92851
    A2        2.16696   0.00022   0.00289  -0.00475  -0.00182   2.16515
    A3        2.18692   0.00137   0.00452  -0.00196   0.00261   2.18953
    A4        1.89814  -0.00176  -0.00117  -0.00579  -0.00705   1.89109
    A5        2.28818   0.00006  -0.00079   0.00149   0.00074   2.28892
    A6        2.09686   0.00171   0.00196   0.00430   0.00631   2.10317
    A7        1.82457   0.00762   0.00686   0.01353   0.02042   1.84499
    A8        1.95365  -0.01324  -0.00634  -0.02718  -0.03339   1.92026
    A9        1.81911   0.00898   0.00806   0.01274   0.02081   1.83993
    D1        0.00000   0.00000   0.00000   0.00000   0.00000   0.00000
    D2        3.14159   0.00000   0.00000   0.00000   0.00000   3.14159
    D3        3.14159   0.00000   0.00000   0.00000   0.00000   3.14159
    D4        0.00000   0.00000   0.00000   0.00000   0.00000   0.00000
    D5        0.00000   0.00000   0.00000   0.00000   0.00000   0.00000
    D6        3.14159   0.00000   0.00000   0.00000   0.00000   3.14159
    D7        0.00000   0.00000   0.00000   0.00000   0.00000   0.00000
    D8        3.14159   0.00000   0.00000   0.00000   0.00000   3.14159
    D9        0.00000   0.00000   0.00000   0.00000   0.00000   0.00000
   D10        0.00000   0.00000   0.00000   0.00000   0.00000   0.00000
         Item               Value     Threshold  Converged?
 Maximum Force            0.013244     0.000450     NO 
 RMS     Force            0.004437     0.000300     NO 
 Maximum Displacement     0.039096     0.001800     NO 
 RMS     Displacement     0.011015     0.001200     NO 
 Predicted change in Energy=-5.656608D-04
 GradGradGradGradGradGradGradGradGradGradGradGradGradGradGradGradGradGrad

                          Input orientation:                          
 ---------------------------------------------------------------------
 Center     Atomic      Atomic             Coordinates (Angstroms)
 Number     Number       Type             X           Y           Z
 ---------------------------------------------------------------------
      1          6           0        1.025845    0.005177    0.000000
      2          7           0        0.411375   -1.210991    0.000000
      3          7           0       -0.990717   -1.002601    0.000000
      4          7           0       -1.159581    0.323613    0.000000
      5          7           0        0.122123    0.984558    0.000000
      6          1           0        2.091380    0.140700    0.000000
      7          1           0        0.792033   -2.150837    0.000000
 ---------------------------------------------------------------------
                    Distance matrix (angstroms):
                    1          2          3          4          5
     1  C    0.000000
     2  N    1.362585   0.000000
     3  N    2.254360   1.417494   0.000000
     4  N    2.208503   2.196113   1.336921   0.000000
     5  N    1.332630   2.214521   2.277546   1.442086   0.000000
     6  H    1.074118   2.156267   3.287318   3.256102   2.142445
     7  H    2.168654   1.014007   2.120529   3.151459   3.206163
                    6          7
     6  H    0.000000
     7  H    2.634282   0.000000
 Stoichiometry    CH2N4
 Framework group  CS[SG(CH2N4)]
 Deg. of freedom    11
 Full point group                 CS      NOp   2
 Largest Abelian subgroup         CS      NOp   2
 Largest concise Abelian subgroup C1      NOp   1
                         Standard orientation:                         
 ---------------------------------------------------------------------
 Center     Atomic      Atomic             Coordinates (Angstroms)
 Number     Number       Type             X           Y           Z
 ---------------------------------------------------------------------
      1          6           0        1.083184    0.262226    0.000000
      2          7           0        0.000000    1.088876    0.000000
      3          7           0       -1.171004    0.290104    0.000000
      4          7           0       -0.744829   -0.977072    0.000000
      5          7           0        0.696806   -1.013162    0.000000
      6          1           0        2.101220    0.604766    0.000000
      7          1           0       -0.067132    2.100658    0.000000
 ---------------------------------------------------------------------
 Rotational constants (GHZ):      9.8974669      9.6732944      4.8920484
 Standard basis: 3-21G* (6D, 7F)
 There are    39 symmetry adapted cartesian basis functions of A'  symmetry.
 There are    10 symmetry adapted cartesian basis functions of A"  symmetry.
 There are    39 symmetry adapted basis functions of A'  symmetry.
 There are    10 symmetry adapted basis functions of A"  symmetry.
    49 basis functions,    81 primitive gaussians,    49 cartesian basis functions
    18 alpha electrons       18 beta electrons
       nuclear repulsion energy       161.5438026840 Hartrees.
 NAtoms=    7 NActive=    7 NUniq=    7 SFac= 1.00D+00 NAtFMM=   60 NAOKFM=F Big=F
 Integral buffers will be    131072 words long.
 Raffenetti 2 integral format.
 Two-electron integral symmetry is turned on.
 One-electron integrals computed using PRISM.
 NBasis=    49 RedAO= T EigKep=  2.07D-02  NBF=    39    10
 NBsUse=    49 1.00D-06 EigRej= -1.00D+00 NBFU=    39    10
 Initial guess from the checkpoint file:  "/tmp/rdj3/g09-16160/Gau-20136.chk"
 B after Tr=     0.000000    0.000000    0.000000
         Rot=    0.999991    0.000000    0.000000   -0.004237 Ang=  -0.49 deg.
 Initial guess orbital symmetries:
       Occupied  (A') (A') (A') (A') (A') (A') (A') (A') (A') (A')
                 (A') (A') (A") (A') (A") (A") (A') (A')
       Virtual   (A') (A') (A') (A') (A') (A') (A') (A') (A') (A')
                 (A') (A') (A') (A') (A') (A') (A') (A') (A') (A')
                 (A') (A') (A') (A') (A") (A") (A") (A") (A") (A")
                 (A")
 ExpMin= 1.83D-01 ExpMax= 2.43D+02 ExpMxC= 2.43D+02 IAcc=1 IRadAn=         1 AccDes= 0.00D+00
 Harris functional with IExCor=  402 and IRadAn=       1 diagonalized for initial guess.
 HarFok:  IExCor=  402 AccDes= 0.00D+00 IRadAn=         1 IDoV= 1 UseB2=F ITyADJ=14
 ICtDFT=  3500011 ScaDFX=  1.000000  1.000000  1.000000  1.000000
 FoFCou: FMM=F IPFlag=           0 FMFlag=      100000 FMFlg1=           0
         NFxFlg=           0 DoJE=T BraDBF=F KetDBF=T FulRan=T
         wScrn=  0.000000 ICntrl=     500 IOpCl=  0 I1Cent=   200000004 NGrid=           0
         NMat0=    1 NMatS0=      1 NMatT0=    0 NMatD0=    1 NMtDS0=    0 NMtDT0=    0
 Petite list used in FoFCou.
 Keep R1 ints in memory in symmetry-blocked form, NReq=1649580.
 Requested convergence on RMS density matrix=1.00D-08 within 128 cycles.
 Requested convergence on MAX density matrix=1.00D-06.
 Requested convergence on             energy=1.00D-06.
 No special actions if energy rises.
 Integral accuracy reduced to 1.0D-05 until final iterations.
 Initial convergence to 1.0D-05 achieved.  Increase integral accuracy.
 SCF Done:  E(RB3LYP) =  -256.787251589     A.U. after   13 cycles
            NFock= 13  Conv=0.28D-08     -V/T= 2.0084
 Calling FoFJK, ICntrl=      2127 FMM=F ISym2X=1 I1Cent= 0 IOpClX= 0 NMat=1 NMatS=1 NMatT=0.
 ***** Axes restored to original set *****
 -------------------------------------------------------------------
 Center     Atomic                   Forces (Hartrees/Bohr)
 Number     Number              X              Y              Z
 -------------------------------------------------------------------
      1        6          -0.005905036    0.000077956    0.000000000
      2        7          -0.000362091    0.004389894    0.000000000
      3        7          -0.002040212    0.001705105    0.000000000
      4        7           0.005409980   -0.007239439    0.000000000
      5        7           0.004015192   -0.000248519    0.000000000
      6        1          -0.000139910    0.000464700    0.000000000
      7        1          -0.000977924    0.000850302    0.000000000
 -------------------------------------------------------------------
 Cartesian Forces:  Max     0.007239439 RMS     0.002769936

 GradGradGradGradGradGradGradGradGradGradGradGradGradGradGradGradGradGrad
 Berny optimization.
 Using GEDIIS/GDIIS optimizer.
 FormGI is forming the generalized inverse of G from B-inverse, IUseBI=4.
 Internal  Forces:  Max     0.005683538 RMS     0.002206487
 Search for a local minimum.
 Step number   4 out of a maximum of   36
 All quantities printed in internal units (Hartrees-Bohrs-Radians)
 Mixed Optimization -- RFO/linear search
 Update second derivatives using D2CorX and points    1    2    3    4
 DE= -3.81D-04 DEPred=-5.66D-04 R= 6.73D-01
 TightC=F SS=  1.41D+00  RLast= 5.40D-02 DXNew= 8.4853D-01 1.6196D-01
 Trust test= 6.73D-01 RLast= 5.40D-02 DXMaxT set to 5.05D-01
 ITU=  1  1  1  0
 Use linear search instead of GDIIS.
     Eigenvalues ---    0.02504   0.02632   0.02681   0.02833   0.16000
     Eigenvalues ---    0.16024   0.22777   0.27452   0.37551   0.47802
     Eigenvalues ---    0.48926   0.54140   0.60111   0.73849   0.81464
 RFO step:  Lambda=-9.58032250D-05 EMin= 2.50443794D-02
 Quartic linear search produced a step of -0.24625.
 Iteration  1 RMS(Cart)=  0.00371581 RMS(Int)=  0.00001192
 Iteration  2 RMS(Cart)=  0.00000657 RMS(Int)=  0.00000908
 Iteration  3 RMS(Cart)=  0.00000000 RMS(Int)=  0.00000908
 ClnCor:  largest displacement from symmetrization is 1.18D-11 for atom     1.
 Variable       Old X    -DE/DX   Delta X   Delta X   Delta X     New X
                                 (Linear)    (Quad)   (Total)
    R1        2.57491  -0.00222   0.00369  -0.00762  -0.00392   2.57099
    R2        2.51831  -0.00568   0.00029  -0.00617  -0.00587   2.51243
    R3        2.02979  -0.00008  -0.00028   0.00015  -0.00013   2.02966
    R4        2.67867  -0.00238  -0.00405   0.00032  -0.00373   2.67495
    R5        1.91619  -0.00115   0.00017  -0.00226  -0.00208   1.91411
    R6        2.52642  -0.00524  -0.00188  -0.00454  -0.00643   2.51998
    R7        2.72515  -0.00013  -0.00421   0.00232  -0.00190   2.72325
    A1        1.92851   0.00106   0.00019   0.00009   0.00030   1.92881
    A2        2.16515  -0.00004   0.00045   0.00116   0.00160   2.16674
    A3        2.18953  -0.00102  -0.00064  -0.00125  -0.00190   2.18763
    A4        1.89109   0.00185   0.00174   0.00277   0.00452   1.89561
    A5        2.28892  -0.00037  -0.00018  -0.00033  -0.00052   2.28840
    A6        2.10317  -0.00148  -0.00155  -0.00244  -0.00400   2.09917
    A7        1.84499  -0.00403  -0.00503  -0.00256  -0.00760   1.83739
    A8        1.92026   0.00444   0.00822  -0.00037   0.00783   1.92809
    A9        1.83993  -0.00332  -0.00513   0.00007  -0.00506   1.83487
    D1        0.00000   0.00000   0.00000   0.00000   0.00000   0.00000
    D2        3.14159   0.00000   0.00000   0.00000   0.00000   3.14159
    D3        3.14159   0.00000   0.00000   0.00000   0.00000   3.14159
    D4        0.00000   0.00000   0.00000   0.00000   0.00000   0.00000
    D5        0.00000   0.00000   0.00000   0.00000   0.00000   0.00000
    D6        3.14159   0.00000   0.00000   0.00000   0.00000   3.14159
    D7        0.00000   0.00000   0.00000   0.00000   0.00000   0.00000
    D8        3.14159   0.00000   0.00000   0.00000   0.00000   3.14159
    D9        0.00000   0.00000   0.00000   0.00000   0.00000   0.00000
   D10        0.00000   0.00000   0.00000   0.00000   0.00000   0.00000
         Item               Value     Threshold  Converged?
 Maximum Force            0.005684     0.000450     NO 
 RMS     Force            0.002206     0.000300     NO 
 Maximum Displacement     0.010546     0.001800     NO 
 RMS     Displacement     0.003716     0.001200     NO 
 Predicted change in Energy=-9.278400D-05
 GradGradGradGradGradGradGradGradGradGradGradGradGradGradGradGradGradGrad

                          Input orientation:                          
 ---------------------------------------------------------------------
 Center     Atomic      Atomic             Coordinates (Angstroms)
 Number     Number       Type             X           Y           Z
 ---------------------------------------------------------------------
      1          6           0        1.024586    0.005428    0.000000
      2          7           0        0.409546   -1.208126    0.000000
      3          7           0       -0.991272   -1.004626    0.000000
      4          7           0       -1.154000    0.318926    0.000000
      5          7           0        0.124477    0.983914    0.000000
      6          1           0        2.090003    0.141324    0.000000
      7          1           0        0.789116   -2.147222    0.000000
 ---------------------------------------------------------------------
                    Distance matrix (angstroms):
                    1          2          3          4          5
     1  C    0.000000
     2  N    1.360510   0.000000
     3  N    2.254748   1.415522   0.000000
     4  N    2.201026   2.185536   1.333518   0.000000
     5  N    1.329522   2.210498   2.280172   1.441080   0.000000
     6  H    1.074050   2.155215   3.287470   3.248861   2.138516
     7  H    2.165491   1.012904   2.115492   3.139679   3.200899
                    6          7
     6  H    0.000000
     7  H    2.632443   0.000000
 Stoichiometry    CH2N4
 Framework group  CS[SG(CH2N4)]
 Deg. of freedom    11
 Full point group                 CS      NOp   2
 Largest Abelian subgroup         CS      NOp   2
 Largest concise Abelian subgroup C1      NOp   1
                         Standard orientation:                         
 ---------------------------------------------------------------------
 Center     Atomic      Atomic             Coordinates (Angstroms)
 Number     Number       Type             X           Y           Z
 ---------------------------------------------------------------------
      1          6           0        1.081978    0.259722    0.000000
      2          7           0        0.000000    1.084532    0.000000
      3          7           0       -1.172546    0.291538    0.000000
      4          7           0       -0.742895   -0.970869    0.000000
      5          7           0        0.697569   -1.013015    0.000000
      6          1           0        2.100311    0.601161    0.000000
      7          1           0       -0.067076    2.095212    0.000000
 ---------------------------------------------------------------------
 Rotational constants (GHZ):      9.9661949      9.6722050      4.9084997
 Standard basis: 3-21G* (6D, 7F)
 There are    39 symmetry adapted cartesian basis functions of A'  symmetry.
 There are    10 symmetry adapted cartesian basis functions of A"  symmetry.
 There are    39 symmetry adapted basis functions of A'  symmetry.
 There are    10 symmetry adapted basis functions of A"  symmetry.
    49 basis functions,    81 primitive gaussians,    49 cartesian basis functions
    18 alpha electrons       18 beta electrons
       nuclear repulsion energy       161.8164266445 Hartrees.
 NAtoms=    7 NActive=    7 NUniq=    7 SFac= 1.00D+00 NAtFMM=   60 NAOKFM=F Big=F
 Integral buffers will be    131072 words long.
 Raffenetti 2 integral format.
 Two-electron integral symmetry is turned on.
 One-electron integrals computed using PRISM.
 NBasis=    49 RedAO= T EigKep=  2.05D-02  NBF=    39    10
 NBsUse=    49 1.00D-06 EigRej= -1.00D+00 NBFU=    39    10
 Initial guess from the checkpoint file:  "/tmp/rdj3/g09-16160/Gau-20136.chk"
 B after Tr=     0.000000    0.000000    0.000000
         Rot=    1.000000    0.000000    0.000000    0.000380 Ang=   0.04 deg.
 Initial guess orbital symmetries:
       Occupied  (A') (A') (A') (A') (A') (A') (A') (A') (A') (A')
                 (A') (A') (A") (A') (A") (A") (A') (A')
       Virtual   (A') (A') (A') (A') (A') (A') (A') (A') (A') (A')
                 (A') (A') (A') (A') (A') (A') (A') (A') (A') (A')
                 (A') (A') (A') (A') (A") (A") (A") (A") (A") (A")
                 (A")
 Keep R1 ints in memory in symmetry-blocked form, NReq=1649580.
 Requested convergence on RMS density matrix=1.00D-08 within 128 cycles.
 Requested convergence on MAX density matrix=1.00D-06.
 Requested convergence on             energy=1.00D-06.
 No special actions if energy rises.
 SCF Done:  E(RB3LYP) =  -256.787359654     A.U. after    9 cycles
            NFock=  9  Conv=0.80D-08     -V/T= 2.0082
 Calling FoFJK, ICntrl=      2127 FMM=F ISym2X=1 I1Cent= 0 IOpClX= 0 NMat=1 NMatS=1 NMatT=0.
 ***** Axes restored to original set *****
 -------------------------------------------------------------------
 Center     Atomic                   Forces (Hartrees/Bohr)
 Number     Number              X              Y              Z
 -------------------------------------------------------------------
      1        6          -0.002745632   -0.000535564    0.000000000
      2        7           0.001447766    0.000332478    0.000000000
      3        7          -0.000280204    0.002883331    0.000000000
      4        7          -0.000102290   -0.003168587    0.000000000
      5        7           0.001908766    0.000257362    0.000000000
      6        1          -0.000026530    0.000121245    0.000000000
      7        1          -0.000201875    0.000109735    0.000000000
 -------------------------------------------------------------------
 Cartesian Forces:  Max     0.003168587 RMS     0.001239282

 GradGradGradGradGradGradGradGradGradGradGradGradGradGradGradGradGradGrad
 Berny optimization.
 Using GEDIIS/GDIIS optimizer.
 FormGI is forming the generalized inverse of G from B-inverse, IUseBI=4.
 Internal  Forces:  Max     0.002547394 RMS     0.000693496
 Search for a local minimum.
 Step number   5 out of a maximum of   36
 All quantities printed in internal units (Hartrees-Bohrs-Radians)
 Mixed Optimization -- En-DIIS/RFO-DIIS
 Update second derivatives using D2CorX and points    1    2    3    4    5
 DE= -1.08D-04 DEPred=-9.28D-05 R= 1.16D+00
 TightC=F SS=  1.41D+00  RLast= 1.73D-02 DXNew= 8.4853D-01 5.2022D-02
 Trust test= 1.16D+00 RLast= 1.73D-02 DXMaxT set to 5.05D-01
 ITU=  1  1  1  1  0
 Use linear search instead of GDIIS.
     Eigenvalues ---    0.02505   0.02632   0.02680   0.02832   0.15781
     Eigenvalues ---    0.16008   0.22628   0.29132   0.37548   0.47028
     Eigenvalues ---    0.48237   0.51111   0.56448   0.65518   0.78250
 RFO step:  Lambda=-2.76235221D-05 EMin= 2.50474519D-02
 Quartic linear search produced a step of  0.18780.
 Iteration  1 RMS(Cart)=  0.00159862 RMS(Int)=  0.00000252
 Iteration  2 RMS(Cart)=  0.00000243 RMS(Int)=  0.00000094
 Iteration  3 RMS(Cart)=  0.00000000 RMS(Int)=  0.00000094
 ClnCor:  largest displacement from symmetrization is 8.99D-13 for atom     1.
 Variable       Old X    -DE/DX   Delta X   Delta X   Delta X     New X
                                 (Linear)    (Quad)   (Total)
    R1        2.57099  -0.00129  -0.00074  -0.00307  -0.00380   2.56719
    R2        2.51243  -0.00130  -0.00110  -0.00199  -0.00309   2.50934
    R3        2.02966  -0.00001  -0.00002   0.00005   0.00003   2.02969
    R4        2.67495   0.00002  -0.00070   0.00115   0.00045   2.67540
    R5        1.91411  -0.00018  -0.00039  -0.00035  -0.00074   1.91337
    R6        2.51998  -0.00255  -0.00121  -0.00323  -0.00444   2.51554
    R7        2.72325   0.00066  -0.00036   0.00257   0.00221   2.72546
    A1        1.92881   0.00080   0.00006   0.00444   0.00450   1.93331
    A2        2.16674  -0.00027   0.00030  -0.00133  -0.00103   2.16571
    A3        2.18763  -0.00053  -0.00036  -0.00310  -0.00346   2.18417
    A4        1.89561  -0.00054   0.00085  -0.00352  -0.00267   1.89294
    A5        2.28840   0.00040  -0.00010   0.00262   0.00252   2.29092
    A6        2.09917   0.00013  -0.00075   0.00090   0.00015   2.09932
    A7        1.83739   0.00027  -0.00143   0.00234   0.00091   1.83831
    A8        1.92809   0.00026   0.00147  -0.00067   0.00079   1.92889
    A9        1.83487  -0.00078  -0.00095  -0.00258  -0.00353   1.83134
    D1        0.00000   0.00000   0.00000   0.00000   0.00000   0.00000
    D2        3.14159   0.00000   0.00000   0.00000   0.00000   3.14159
    D3        3.14159   0.00000   0.00000   0.00000   0.00000   3.14159
    D4        0.00000   0.00000   0.00000   0.00000   0.00000   0.00000
    D5        0.00000   0.00000   0.00000   0.00000   0.00000   0.00000
    D6        3.14159   0.00000   0.00000   0.00000   0.00000   3.14159
    D7        0.00000   0.00000   0.00000   0.00000   0.00000   0.00000
    D8        3.14159   0.00000   0.00000   0.00000   0.00000   3.14159
    D9        0.00000   0.00000   0.00000   0.00000   0.00000   0.00000
   D10        0.00000   0.00000   0.00000   0.00000   0.00000   0.00000
         Item               Value     Threshold  Converged?
 Maximum Force            0.002547     0.000450     NO 
 RMS     Force            0.000693     0.000300     NO 
 Maximum Displacement     0.004289     0.001800     NO 
 RMS     Displacement     0.001599     0.001200     NO 
 Predicted change in Energy=-1.662246D-05
 GradGradGradGradGradGradGradGradGradGradGradGradGradGradGradGradGradGrad

                          Input orientation:                          
 ---------------------------------------------------------------------
 Center     Atomic      Atomic             Coordinates (Angstroms)
 Number     Number       Type             X           Y           Z
 ---------------------------------------------------------------------
      1          6           0        1.022404    0.004696    0.000000
      2          7           0        0.410439   -1.208159    0.000000
      3          7           0       -0.990434   -1.003385    0.000000
      4          7           0       -1.152913    0.317831    0.000000
      5          7           0        0.126054    0.984410    0.000000
      6          1           0        2.087734    0.141395    0.000000
      7          1           0        0.789174   -2.147170    0.000000
 ---------------------------------------------------------------------
                    Distance matrix (angstroms):
                    1          2          3          4          5
     1  C    0.000000
     2  N    1.358498   0.000000
     3  N    2.251165   1.415761   0.000000
     4  N    2.197739   2.184654   1.331169   0.000000
     5  N    1.327887   2.210935   2.279885   1.442249   0.000000
     6  H    1.074065   2.152816   3.284150   3.245446   2.135150
     7  H    2.164469   1.012513   2.115479   3.138142   3.201019
                    6          7
     6  H    0.000000
     7  H    2.631310   0.000000
 Stoichiometry    CH2N4
 Framework group  CS[SG(CH2N4)]
 Deg. of freedom    11
 Full point group                 CS      NOp   2
 Largest Abelian subgroup         CS      NOp   2
 Largest concise Abelian subgroup C1      NOp   1
                         Standard orientation:                         
 ---------------------------------------------------------------------
 Center     Atomic      Atomic             Coordinates (Angstroms)
 Number     Number       Type             X           Y           Z
 ---------------------------------------------------------------------
      1          6           0        1.079212    0.259645    0.000000
      2          7           0        0.000000    1.084763    0.000000
      3          7           0       -1.171746    0.290162    0.000000
      4          7           0       -0.742419   -0.969873    0.000000
      5          7           0        0.699194   -1.012703    0.000000
      6          1           0        2.097689    0.600702    0.000000
      7          1           0       -0.068165    2.094979    0.000000
 ---------------------------------------------------------------------
 Rotational constants (GHZ):      9.9756867      9.6871577      4.9146526
 Standard basis: 3-21G* (6D, 7F)
 There are    39 symmetry adapted cartesian basis functions of A'  symmetry.
 There are    10 symmetry adapted cartesian basis functions of A"  symmetry.
 There are    39 symmetry adapted basis functions of A'  symmetry.
 There are    10 symmetry adapted basis functions of A"  symmetry.
    49 basis functions,    81 primitive gaussians,    49 cartesian basis functions
    18 alpha electrons       18 beta electrons
       nuclear repulsion energy       161.9222292975 Hartrees.
 NAtoms=    7 NActive=    7 NUniq=    7 SFac= 1.00D+00 NAtFMM=   60 NAOKFM=F Big=F
 Integral buffers will be    131072 words long.
 Raffenetti 2 integral format.
 Two-electron integral symmetry is turned on.
 One-electron integrals computed using PRISM.
 NBasis=    49 RedAO= T EigKep=  2.04D-02  NBF=    39    10
 NBsUse=    49 1.00D-06 EigRej= -1.00D+00 NBFU=    39    10
 Initial guess from the checkpoint file:  "/tmp/rdj3/g09-16160/Gau-20136.chk"
 B after Tr=     0.000000    0.000000    0.000000
         Rot=    1.000000    0.000000    0.000000   -0.000245 Ang=  -0.03 deg.
 Initial guess orbital symmetries:
       Occupied  (A') (A') (A') (A') (A') (A') (A') (A') (A') (A')
                 (A') (A') (A") (A') (A") (A") (A') (A')
       Virtual   (A') (A') (A') (A') (A') (A') (A') (A') (A') (A')
                 (A') (A') (A') (A') (A') (A') (A') (A') (A') (A')
                 (A') (A') (A') (A') (A") (A") (A") (A") (A") (A")
                 (A")
 Keep R1 ints in memory in symmetry-blocked form, NReq=1649580.
 Requested convergence on RMS density matrix=1.00D-08 within 128 cycles.
 Requested convergence on MAX density matrix=1.00D-06.
 Requested convergence on             energy=1.00D-06.
 No special actions if energy rises.
 SCF Done:  E(RB3LYP) =  -256.787378763     A.U. after    9 cycles
            NFock=  9  Conv=0.65D-08     -V/T= 2.0082
 Calling FoFJK, ICntrl=      2127 FMM=F ISym2X=1 I1Cent= 0 IOpClX= 0 NMat=1 NMatS=1 NMatT=0.
 ***** Axes restored to original set *****
 -------------------------------------------------------------------
 Center     Atomic                   Forces (Hartrees/Bohr)
 Number     Number              X              Y              Z
 -------------------------------------------------------------------
      1        6           0.000629093    0.000156418    0.000000000
      2        7           0.000499705   -0.000154342    0.000000000
      3        7          -0.000941450    0.001762396    0.000000000
      4        7          -0.000973739   -0.001983397    0.000000000
      5        7           0.000714535    0.000267342    0.000000000
      6        1           0.000055891    0.000031341    0.000000000
      7        1           0.000015966   -0.000079759    0.000000000
 -------------------------------------------------------------------
 Cartesian Forces:  Max     0.001983397 RMS     0.000695595

 GradGradGradGradGradGradGradGradGradGradGradGradGradGradGradGradGradGrad
 Berny optimization.
 Using GEDIIS/GDIIS optimizer.
 FormGI is forming the generalized inverse of G from B-inverse, IUseBI=4.
 Internal  Forces:  Max     0.001557571 RMS     0.000437395
 Search for a local minimum.
 Step number   6 out of a maximum of   36
 All quantities printed in internal units (Hartrees-Bohrs-Radians)
 Mixed Optimization -- En-DIIS/RFO-DIIS
 Swapping is turned off.
 Update second derivatives using D2CorX and points    1    2    3    4    5
                                                      6
 DE= -1.91D-05 DEPred=-1.66D-05 R= 1.15D+00
 TightC=F SS=  1.41D+00  RLast= 1.05D-02 DXNew= 8.4853D-01 3.1472D-02
 Trust test= 1.15D+00 RLast= 1.05D-02 DXMaxT set to 5.05D-01
 ITU=  1  1  1  1  1  0
     Eigenvalues ---    0.02505   0.02632   0.02681   0.02832   0.14654
     Eigenvalues ---    0.16009   0.19554   0.33969   0.37541   0.40772
     Eigenvalues ---    0.47943   0.49557   0.55571   0.66447   0.86598
 En-DIIS/RFO-DIIS IScMMF=        0 using points:     6    5
 RFO step:  Lambda=-7.14104602D-06.
 DidBck=F Rises=F RFO-DIIS coefs:    1.17434   -0.17434
 Iteration  1 RMS(Cart)=  0.00084148 RMS(Int)=  0.00000028
 Iteration  2 RMS(Cart)=  0.00000013 RMS(Int)=  0.00000024
 ClnCor:  largest displacement from symmetrization is 8.38D-13 for atom     1.
 Variable       Old X    -DE/DX   Delta X   Delta X   Delta X     New X
                                 (Linear)    (Quad)   (Total)
    R1        2.56719   0.00019  -0.00066  -0.00059  -0.00126   2.56593
    R2        2.50934   0.00010  -0.00054  -0.00067  -0.00121   2.50814
    R3        2.02969   0.00006   0.00000   0.00021   0.00022   2.02991
    R4        2.67540   0.00090   0.00008   0.00228   0.00236   2.67776
    R5        1.91337   0.00008  -0.00013  -0.00001  -0.00014   1.91324
    R6        2.51554  -0.00156  -0.00077  -0.00283  -0.00360   2.51194
    R7        2.72546   0.00111   0.00039   0.00347   0.00386   2.72932
    A1        1.93331  -0.00046   0.00078  -0.00037   0.00042   1.93372
    A2        2.16571   0.00026  -0.00018   0.00076   0.00058   2.16628
    A3        2.18417   0.00020  -0.00060  -0.00039  -0.00099   2.18318
    A4        1.89294   0.00005  -0.00047   0.00053   0.00006   1.89301
    A5        2.29092  -0.00001   0.00044   0.00022   0.00066   2.29158
    A6        2.09932  -0.00003   0.00003  -0.00075  -0.00072   2.09860
    A7        1.83831   0.00027   0.00016  -0.00010   0.00006   1.83836
    A8        1.92889  -0.00007   0.00014  -0.00012   0.00002   1.92891
    A9        1.83134   0.00021  -0.00062   0.00006  -0.00056   1.83078
    D1        0.00000   0.00000   0.00000   0.00000   0.00000   0.00000
    D2        3.14159   0.00000   0.00000   0.00000   0.00000   3.14159
    D3        3.14159   0.00000   0.00000   0.00000   0.00000   3.14159
    D4        0.00000   0.00000   0.00000   0.00000   0.00000   0.00000
    D5        0.00000   0.00000   0.00000   0.00000   0.00000   0.00000
    D6        3.14159   0.00000   0.00000   0.00000   0.00000   3.14159
    D7        0.00000   0.00000   0.00000   0.00000   0.00000   0.00000
    D8        3.14159   0.00000   0.00000   0.00000   0.00000   3.14159
    D9        0.00000   0.00000   0.00000   0.00000   0.00000   0.00000
   D10        0.00000   0.00000   0.00000   0.00000   0.00000   0.00000
         Item               Value     Threshold  Converged?
 Maximum Force            0.001558     0.000450     NO 
 RMS     Force            0.000437     0.000300     NO 
 Maximum Displacement     0.002431     0.001800     NO 
 RMS     Displacement     0.000842     0.001200     YES
 Predicted change in Energy=-5.673923D-06
 GradGradGradGradGradGradGradGradGradGradGradGradGradGradGradGradGradGrad

                          Input orientation:                          
 ---------------------------------------------------------------------
 Center     Atomic      Atomic             Coordinates (Angstroms)
 Number     Number       Type             X           Y           Z
 ---------------------------------------------------------------------
      1          6           0        1.022570    0.004516    0.000000
      2          7           0        0.410838   -1.207712    0.000000
      3          7           0       -0.991274   -1.002769    0.000000
      4          7           0       -1.153608    0.316545    0.000000
      5          7           0        0.127111    0.984181    0.000000
      6          1           0        2.087943    0.141784    0.000000
      7          1           0        0.788877   -2.146926    0.000000
 ---------------------------------------------------------------------
                    Distance matrix (angstroms):
                    1          2          3          4          5
     1  C    0.000000
     2  N    1.357833   0.000000
     3  N    2.251708   1.417011   0.000000
     4  N    2.198434   2.184227   1.329263   0.000000
     5  N    1.327249   2.210180   2.280077   1.444292   0.000000
     6  H    1.074181   2.152632   3.285055   3.246259   2.134126
     7  H    2.164096   1.012441   2.116137   3.137186   3.200275
                    6          7
     6  H    0.000000
     7  H    2.631685   0.000000
 Stoichiometry    CH2N4
 Framework group  CS[SG(CH2N4)]
 Deg. of freedom    11
 Full point group                 CS      NOp   2
 Largest Abelian subgroup         CS      NOp   2
 Largest concise Abelian subgroup C1      NOp   1
                         Standard orientation:                         
 ---------------------------------------------------------------------
 Center     Atomic      Atomic             Coordinates (Angstroms)
 Number     Number       Type             X           Y           Z
 ---------------------------------------------------------------------
      1          6           0        1.079177    0.260371    0.000000
      2          7           0        0.000000    1.084440    0.000000
      3          7           0       -1.172356    0.288511    0.000000
      4          7           0       -0.743044   -0.969516    0.000000
      5          7           0        0.700630   -1.011750    0.000000
      6          1           0        2.097756    0.601487    0.000000
      7          1           0       -0.069428    2.094497    0.000000
 ---------------------------------------------------------------------
 Rotational constants (GHZ):      9.9854016      9.6772177      4.9144472
 Standard basis: 3-21G* (6D, 7F)
 There are    39 symmetry adapted cartesian basis functions of A'  symmetry.
 There are    10 symmetry adapted cartesian basis functions of A"  symmetry.
 There are    39 symmetry adapted basis functions of A'  symmetry.
 There are    10 symmetry adapted basis functions of A"  symmetry.
    49 basis functions,    81 primitive gaussians,    49 cartesian basis functions
    18 alpha electrons       18 beta electrons
       nuclear repulsion energy       161.9250463532 Hartrees.
 NAtoms=    7 NActive=    7 NUniq=    7 SFac= 1.00D+00 NAtFMM=   60 NAOKFM=F Big=F
 Integral buffers will be    131072 words long.
 Raffenetti 2 integral format.
 Two-electron integral symmetry is turned on.
 One-electron integrals computed using PRISM.
 NBasis=    49 RedAO= T EigKep=  2.04D-02  NBF=    39    10
 NBsUse=    49 1.00D-06 EigRej= -1.00D+00 NBFU=    39    10
 Initial guess from the checkpoint file:  "/tmp/rdj3/g09-16160/Gau-20136.chk"
 B after Tr=     0.000000    0.000000    0.000000
         Rot=    1.000000    0.000000    0.000000   -0.000291 Ang=  -0.03 deg.
 Initial guess orbital symmetries:
       Occupied  (A') (A') (A') (A') (A') (A') (A') (A') (A') (A')
                 (A') (A') (A") (A') (A") (A") (A') (A')
       Virtual   (A') (A') (A') (A') (A') (A') (A') (A') (A') (A')
                 (A') (A') (A') (A') (A') (A') (A') (A') (A') (A')
                 (A') (A') (A') (A') (A") (A") (A") (A") (A") (A")
                 (A")
 Keep R1 ints in memory in symmetry-blocked form, NReq=1649580.
 Requested convergence on RMS density matrix=1.00D-08 within 128 cycles.
 Requested convergence on MAX density matrix=1.00D-06.
 Requested convergence on             energy=1.00D-06.
 No special actions if energy rises.
 SCF Done:  E(RB3LYP) =  -256.787386413     A.U. after    9 cycles
            NFock=  9  Conv=0.69D-08     -V/T= 2.0082
 Calling FoFJK, ICntrl=      2127 FMM=F ISym2X=1 I1Cent= 0 IOpClX= 0 NMat=1 NMatS=1 NMatT=0.
 ***** Axes restored to original set *****
 -------------------------------------------------------------------
 Center     Atomic                   Forces (Hartrees/Bohr)
 Number     Number              X              Y              Z
 -------------------------------------------------------------------
      1        6           0.000813314    0.000319226    0.000000000
      2        7           0.000079428   -0.000988308    0.000000000
      3        7          -0.000349839    0.001149971    0.000000000
      4        7          -0.000565010   -0.000986250    0.000000000
      5        7          -0.000052215    0.000671997    0.000000000
      6        1          -0.000007618   -0.000046139    0.000000000
      7        1           0.000081941   -0.000120496    0.000000000
 -------------------------------------------------------------------
 Cartesian Forces:  Max     0.001149971 RMS     0.000486039

 GradGradGradGradGradGradGradGradGradGradGradGradGradGradGradGradGradGrad
 Berny optimization.
 Using GEDIIS/GDIIS optimizer.
 FormGI is forming the generalized inverse of G from B-inverse, IUseBI=4.
 Internal  Forces:  Max     0.000732295 RMS     0.000306790
 Search for a local minimum.
 Step number   7 out of a maximum of   36
 All quantities printed in internal units (Hartrees-Bohrs-Radians)
 Mixed Optimization -- En-DIIS/RFO-DIIS
 Swapping is turned off.
 Update second derivatives using D2CorX and points    1    2    3    4    5
                                                      6    7
 DE= -7.65D-06 DEPred=-5.67D-06 R= 1.35D+00
 TightC=F SS=  1.41D+00  RLast= 6.27D-03 DXNew= 8.4853D-01 1.8809D-02
 Trust test= 1.35D+00 RLast= 6.27D-03 DXMaxT set to 5.05D-01
 ITU=  1  1  1  1  1  1  0
     Eigenvalues ---    0.02505   0.02632   0.02681   0.02832   0.12164
     Eigenvalues ---    0.16011   0.17069   0.36054   0.37472   0.40452
     Eigenvalues ---    0.47715   0.49253   0.54843   0.69209   0.86344
 En-DIIS/RFO-DIIS IScMMF=        0 using points:     7    6    5
 RFO step:  Lambda=-3.60355930D-06.
 DidBck=F Rises=F RFO-DIIS coefs:    1.50772   -0.49266   -0.01506
 Iteration  1 RMS(Cart)=  0.00070626 RMS(Int)=  0.00000037
 Iteration  2 RMS(Cart)=  0.00000029 RMS(Int)=  0.00000023
 ClnCor:  largest displacement from symmetrization is 6.19D-13 for atom     1.
 Variable       Old X    -DE/DX   Delta X   Delta X   Delta X     New X
                                 (Linear)    (Quad)   (Total)
    R1        2.56593   0.00073  -0.00070   0.00115   0.00046   2.56639
    R2        2.50814   0.00066  -0.00066   0.00071   0.00005   2.50819
    R3        2.02991  -0.00001   0.00011  -0.00007   0.00004   2.02994
    R4        2.67776   0.00049   0.00121   0.00087   0.00208   2.67984
    R5        1.91324   0.00014  -0.00008   0.00017   0.00009   1.91333
    R6        2.51194  -0.00071  -0.00190  -0.00139  -0.00329   2.50865
    R7        2.72932   0.00055   0.00199   0.00126   0.00325   2.73256
    A1        1.93372  -0.00018   0.00028   0.00056   0.00084   1.93457
    A2        2.16628   0.00005   0.00028  -0.00043  -0.00016   2.16613
    A3        2.18318   0.00013  -0.00056  -0.00013  -0.00069   2.18249
    A4        1.89301  -0.00030  -0.00001  -0.00115  -0.00115   1.89185
    A5        2.29158   0.00012   0.00037   0.00052   0.00089   2.29247
    A6        2.09860   0.00018  -0.00036   0.00063   0.00027   2.09887
    A7        1.83836   0.00047   0.00004   0.00103   0.00108   1.83944
    A8        1.92891   0.00003   0.00002   0.00016   0.00018   1.92909
    A9        1.83078  -0.00001  -0.00034  -0.00061  -0.00095   1.82983
    D1        0.00000   0.00000   0.00000   0.00000   0.00000   0.00000
    D2        3.14159   0.00000   0.00000   0.00000   0.00000   3.14159
[...]
 XXXZ=              0.0000 YYYX=             -1.2819 YYYZ=              0.0000 ZZZX=              0.0000
 ZZZY=              0.0000 XXYY=            -54.3159 XXZZ=            -30.6613 YYZZ=            -28.4640
 XXYZ=              0.0000 YYXZ=              0.0000 ZZXY=             -0.3894
 N-N= 1.618688849509D+02 E-N=-9.222778125416D+02  KE= 2.547035457311D+02
 Symmetry A'   KE= 2.453528437513D+02
 Symmetry A"   KE= 9.350701979795D+00
  Exact polarizability:  35.016   1.290  34.793   0.000   0.000  11.304
 Approx polarizability:  66.856  -0.554  75.048   0.000   0.000  14.654
 Calling FoFJK, ICntrl=    100127 FMM=F ISym2X=1 I1Cent= 0 IOpClX= 0 NMat=1 NMatS=1 NMatT=0.
 Full mass-weighted force constant matrix:
 Low frequencies ---  -11.3017  -10.7861   -5.0022   -0.0013   -0.0011   -0.0007
 Low frequencies ---  625.2617  674.9353  683.6125
 Diagonal vibrational polarizability:
        1.4939931       1.2790966      10.7662123
 Harmonic frequencies (cm**-1), IR intensities (KM/Mole), Raman scattering
 activities (A**4/AMU), depolarization ratios for plane and unpolarized
 incident light, reduced masses (AMU), force constants (mDyne/A),
 and normal coordinates:
                      1                      2                      3
                     A"                     A"                     A"
 Frequencies --    625.2616               674.9352               683.6124
 Red. masses --      2.6114                 1.4115                 8.1884
 Frc consts  --      0.6015                 0.3788                 2.2546
 IR Inten    --     93.4578                53.8101                11.2881
  Atom  AN      X      Y      Z        X      Y      Z        X      Y      Z
     1   6     0.00   0.00  -0.13     0.00   0.00   0.12     0.00   0.00  -0.22
     2   7     0.00   0.00   0.28     0.00   0.00  -0.04     0.00   0.00   0.00
     3   7     0.00   0.00  -0.17     0.00   0.00   0.10     0.00   0.00   0.32
     4   7     0.00   0.00   0.05     0.00   0.00  -0.02     0.00   0.00  -0.48
     5   7     0.00   0.00   0.03     0.00   0.00  -0.09     0.00   0.00   0.42
     6   1     0.00   0.00  -0.46     0.00   0.00   0.32     0.00   0.00  -0.51
     7   1     0.00   0.00  -0.81     0.00   0.00  -0.93     0.00   0.00  -0.42
                      4                      5                      6
                     A'                     A'                     A"
 Frequencies --    763.7401               847.5853               916.2941
 Red. masses --     10.3757                 6.4991                 1.3848
 Frc consts  --      3.5658                 2.7509                 0.6850
 IR Inten    --      9.9218                15.9566                15.7285
  Atom  AN      X      Y      Z        X      Y      Z        X      Y      Z
     1   6    -0.06   0.09   0.00    -0.02   0.04   0.00     0.00   0.00   0.18
     2   7     0.12   0.06   0.00     0.31   0.28   0.00     0.00   0.00  -0.04
     3   7     0.02  -0.04   0.00    -0.34  -0.35   0.00     0.00   0.00   0.00
     4   7     0.52  -0.17   0.00    -0.07   0.06   0.00     0.00   0.00  -0.02
     5   7    -0.62   0.11   0.00     0.06  -0.01   0.00     0.00   0.00  -0.03
     6   1     0.13  -0.50   0.00     0.14  -0.40   0.00     0.00   0.00  -0.98
     7   1     0.09   0.05   0.00     0.55   0.31   0.00     0.00   0.00   0.00
                      7                      8                      9
                     A'                     A'                     A'
 Frequencies --    979.5923              1011.0184              1075.6357
 Red. masses --      4.7534                 6.5318                 7.2877
 Frc consts  --      2.6875                 3.9337                 4.9679
 IR Inten    --      7.5924                 8.6998                 2.9272
  Atom  AN      X      Y      Z        X      Y      Z        X      Y      Z
     1   6     0.22   0.09   0.00    -0.28  -0.05   0.00    -0.02   0.12   0.00
     2   7     0.06  -0.03   0.00    -0.06   0.41   0.00     0.14   0.08   0.00
     3   7     0.19  -0.19   0.00     0.36  -0.07   0.00    -0.08   0.27   0.00
     4   7    -0.28  -0.07   0.00    -0.05  -0.10   0.00    -0.15  -0.57   0.00
     5   7    -0.13   0.25   0.00     0.03  -0.19   0.00     0.06   0.09   0.00
     6   1     0.36  -0.31   0.00    -0.18  -0.39   0.00    -0.04   0.21   0.00
     7   1    -0.69  -0.09   0.00    -0.46   0.40   0.00     0.67   0.13   0.00
                     10                     11                     12
                     A'                     A'                     A'
 Frequencies --   1142.3226              1215.8967              1360.3158
 Red. masses --      2.1491                 2.1850                 2.6167
 Frc consts  --      1.6523                 1.9032                 2.8529
 IR Inten    --     13.5179                 7.4800                 5.0741
  Atom  AN      X      Y      Z        X      Y      Z        X      Y      Z
     1   6     0.17  -0.10   0.00     0.17   0.10   0.00    -0.14   0.25   0.00
     2   7    -0.12   0.10   0.00     0.03   0.07   0.00     0.13  -0.13   0.00
     3   7    -0.12   0.09   0.00    -0.05   0.01   0.00    -0.03   0.07   0.00
     4   7     0.05  -0.05   0.00    -0.01  -0.02   0.00     0.00   0.02   0.00
     5   7     0.05  -0.01   0.00    -0.08  -0.20   0.00     0.06  -0.11   0.00
     6   1     0.39  -0.73   0.00    -0.03   0.79   0.00     0.14  -0.65   0.00
     7   1    -0.47   0.09   0.00    -0.53   0.04   0.00    -0.61  -0.21   0.00
                     13                     14                     15
                     A'                     A'                     A'
 Frequencies --   1435.7644              3321.9257              3588.6346
 Red. masses --      2.1723                 1.0993                 1.0845
 Frc consts  --      2.6383                 7.1471                 8.2291
 IR Inten    --     39.4193                 2.1821                95.1785
  Atom  AN      X      Y      Z        X      Y      Z        X      Y      Z
     1   6    -0.10  -0.20   0.00     0.09   0.03   0.00     0.01   0.00   0.00
     2   7     0.15   0.01   0.00     0.00   0.00   0.00    -0.01   0.08   0.00
     3   7    -0.06   0.04   0.00     0.00   0.00   0.00     0.00   0.00   0.00
     4   7     0.04  -0.02   0.00     0.00   0.00   0.00     0.00   0.00   0.00
     5   7     0.03   0.12   0.00     0.00   0.00   0.00     0.00   0.00   0.00
     6   1    -0.31   0.34   0.00    -0.94  -0.31   0.00    -0.03  -0.01   0.00
     7   1    -0.83  -0.07   0.00     0.00   0.03   0.00     0.07  -0.99   0.00

 -------------------
 - Thermochemistry -
 -------------------
 Temperature   298.150 Kelvin.  Pressure   1.00000 Atm.
 Atom     1 has atomic number  6 and mass  12.00000
 Atom     2 has atomic number  7 and mass  14.00307
 Atom     3 has atomic number  7 and mass  14.00307
 Atom     4 has atomic number  7 and mass  14.00307
 Atom     5 has atomic number  7 and mass  14.00307
 Atom     6 has atomic number  1 and mass   1.00783
 Atom     7 has atomic number  1 and mass   1.00783
 Molecular mass:    70.02795 amu.
 Principal axes and moments of inertia in atomic units:
                           1         2         3
     Eigenvalues --   180.81347 186.71203 367.52550
           X            0.99646   0.08411   0.00000
           Y           -0.08411   0.99646   0.00000
           Z            0.00000   0.00000   1.00000
 This molecule is an asymmetric top.
 Rotational symmetry number  1.
 Rotational temperatures (Kelvin)      0.47902     0.46389     0.23567
 Rotational constants (GHZ):           9.98123     9.66591     4.91052
 Zero-point vibrational energy     117488.5 (Joules/Mol)
                                   28.08041 (Kcal/Mol)
 Vibrational temperatures:    899.61   971.08   983.56  1098.85  1219.48
          (Kelvin)           1318.34  1409.41  1454.63  1547.60  1643.55
                             1749.40  1957.19  2065.74  4779.50  5163.24
 
 Zero-point correction=                           0.044749 (Hartree/Particle)
 Thermal correction to Energy=                    0.048331
 Thermal correction to Enthalpy=                  0.049275
 Thermal correction to Gibbs Free Energy=         0.018540
 Sum of electronic and zero-point Energies=           -256.742642
 Sum of electronic and thermal Energies=              -256.739060
 Sum of electronic and thermal Enthalpies=            -256.738116
 Sum of electronic and thermal Free Energies=         -256.768852
 
                     E (Thermal)             CV                S
                      KCal/Mol        Cal/Mol-Kelvin    Cal/Mol-Kelvin
 Total                   30.328             12.167             64.689
 Electronic               0.000              0.000              0.000
 Translational            0.889              2.981             38.656
 Rotational               0.889              2.981             24.032
 Vibrational             28.551              6.206              2.001
                       Q            Log10(Q)             Ln(Q)
 Total Bot       0.296764D-08         -8.527589        -19.635498
 Total V=0       0.113625D+13         12.055473         27.758752
 Vib (Bot)       0.323115D-20        -20.490643        -47.181448
 Vib (V=0)       0.123714D+01          0.092419          0.212803
 Electronic      0.100000D+01          0.000000          0.000000
 Translational   0.230336D+08          7.362362         16.952466
 Rotational      0.398742D+05          4.600692         10.593484
 ***** Axes restored to original set *****
 -------------------------------------------------------------------
 Center     Atomic                   Forces (Hartrees/Bohr)
 Number     Number              X              Y              Z
 -------------------------------------------------------------------
      1        6           0.000003878    0.000080336    0.000000000
      2        7          -0.000064607   -0.000047140    0.000000000
      3        7           0.000036659    0.000008771    0.000000000
      4        7          -0.000022236   -0.000005903    0.000000000
      5        7           0.000033409   -0.000013615    0.000000000
      6        1           0.000003896   -0.000024549    0.000000000
      7        1           0.000009001    0.000002100    0.000000000
 -------------------------------------------------------------------
 Cartesian Forces:  Max     0.000080336 RMS     0.000028301
 FormGI is forming the generalized inverse of G from B-inverse, IUseBI=4.

 GradGradGradGradGradGradGradGradGradGradGradGradGradGradGradGradGradGrad
 Berny optimization.
 Internal  Forces:  Max     0.000041623 RMS     0.000014027
 Search for a local minimum.
 Step number   1 out of a maximum of    2
 All quantities printed in internal units (Hartrees-Bohrs-Radians)
 Second derivative matrix not updated -- analytic derivatives used.
 ITU=  0
     Eigenvalues ---    0.00977   0.02836   0.07005   0.07408   0.09743
     Eigenvalues ---    0.10391   0.12245   0.15932   0.29357   0.33130
     Eigenvalues ---    0.38694   0.42136   0.45962   0.51988   0.59728
 Angle between quadratic step and forces=  22.28 degrees.
 Linear search not attempted -- first point.
 Iteration  1 RMS(Cart)=  0.00009231 RMS(Int)=  0.00000001
 Iteration  2 RMS(Cart)=  0.00000001 RMS(Int)=  0.00000000
 ClnCor:  largest displacement from symmetrization is 3.81D-14 for atom     1.
 Variable       Old X    -DE/DX   Delta X   Delta X   Delta X     New X
                                 (Linear)    (Quad)   (Total)
    R1        2.56780   0.00004   0.00000   0.00019   0.00019   2.56799
    R2        2.50891  -0.00002   0.00000  -0.00013  -0.00013   2.50878
    R3        2.02989   0.00000   0.00000   0.00000   0.00000   2.02989
    R4        2.68040  -0.00003   0.00000  -0.00023  -0.00023   2.68018
    R5        1.91352   0.00000   0.00000   0.00001   0.00001   1.91353
    R6        2.50763   0.00000   0.00000   0.00000   0.00000   2.50762
    R7        2.73343   0.00002   0.00000   0.00020   0.00020   2.73363
    A1        1.93434   0.00000   0.00000  -0.00001  -0.00001   1.93433
    A2        2.16578  -0.00002   0.00000  -0.00025  -0.00025   2.16554
    A3        2.18306   0.00002   0.00000   0.00026   0.00026   2.18332
    A4        1.89145   0.00000   0.00000   0.00000   0.00000   1.89145
    A5        2.29238  -0.00001   0.00000  -0.00016  -0.00016   2.29222
    A6        2.09936   0.00001   0.00000   0.00015   0.00015   2.09951
    A7        1.83996   0.00001   0.00000   0.00009   0.00009   1.84005
    A8        1.92935   0.00000   0.00000  -0.00007  -0.00007   1.92928
    A9        1.82968   0.00000   0.00000  -0.00001  -0.00001   1.82967
    D1        0.00000   0.00000   0.00000   0.00000   0.00000   0.00000
    D2        3.14159   0.00000   0.00000   0.00000   0.00000   3.14159
    D3        3.14159   0.00000   0.00000   0.00000   0.00000   3.14159
    D4        0.00000   0.00000   0.00000   0.00000   0.00000   0.00000
    D5        0.00000   0.00000   0.00000   0.00000   0.00000   0.00000
    D6        3.14159   0.00000   0.00000   0.00000   0.00000   3.14159
    D7        0.00000   0.00000   0.00000   0.00000   0.00000   0.00000
    D8        3.14159   0.00000   0.00000   0.00000   0.00000   3.14159
    D9        0.00000   0.00000   0.00000   0.00000   0.00000   0.00000
   D10        0.00000   0.00000   0.00000   0.00000   0.00000   0.00000
         Item               Value     Threshold  Converged?
 Maximum Force            0.000042     0.000450     YES
 RMS     Force            0.000014     0.000300     YES
 Maximum Displacement     0.000312     0.001800     YES
 RMS     Displacement     0.000092     0.001200     YES
 Predicted change in Energy=-1.901642D-08
 Optimization completed.
    -- Stationary point found.
                           ----------------------------
                           !   Optimized Parameters   !
                           ! (Angstroms and Degrees)  !
 --------------------------                            --------------------------
 ! Name  Definition              Value          Derivative Info.                !
 --------------------------------------------------------------------------------
 ! R1    R(1,2)                  1.3588         -DE/DX =    0.0                 !
 ! R2    R(1,5)                  1.3277         -DE/DX =    0.0                 !
 ! R3    R(1,6)                  1.0742         -DE/DX =    0.0                 !
 ! R4    R(2,3)                  1.4184         -DE/DX =    0.0                 !
 ! R5    R(2,7)                  1.0126         -DE/DX =    0.0                 !
 ! R6    R(3,4)                  1.327          -DE/DX =    0.0                 !
 ! R7    R(4,5)                  1.4465         -DE/DX =    0.0                 !
 ! A1    A(2,1,5)              110.8295         -DE/DX =    0.0                 !
 ! A2    A(2,1,6)              124.0903         -DE/DX =    0.0                 !
 ! A3    A(5,1,6)              125.0802         -DE/DX =    0.0                 !
 ! A4    A(1,2,3)              108.372          -DE/DX =    0.0                 !
 ! A5    A(1,2,7)              131.3436         -DE/DX =    0.0                 !
 ! A6    A(3,2,7)              120.2844         -DE/DX =    0.0                 !
 ! A7    A(2,3,4)              105.4221         -DE/DX =    0.0                 !
 ! A8    A(3,4,5)              110.5435         -DE/DX =    0.0                 !
 ! A9    A(1,5,4)              104.8329         -DE/DX =    0.0                 !
 ! D1    D(5,1,2,3)              0.0            -DE/DX =    0.0                 !
 ! D2    D(5,1,2,7)            180.0            -DE/DX =    0.0                 !
 ! D3    D(6,1,2,3)            180.0            -DE/DX =    0.0                 !
 ! D4    D(6,1,2,7)              0.0            -DE/DX =    0.0                 !
 ! D5    D(2,1,5,4)              0.0            -DE/DX =    0.0                 !
 ! D6    D(6,1,5,4)            180.0            -DE/DX =    0.0                 !
 ! D7    D(1,2,3,4)              0.0            -DE/DX =    0.0                 !
 ! D8    D(7,2,3,4)            180.0            -DE/DX =    0.0                 !
 ! D9    D(2,3,4,5)              0.0            -DE/DX =    0.0                 !
 ! D10   D(3,4,5,1)              0.0            -DE/DX =    0.0                 !
 --------------------------------------------------------------------------------
 GradGradGradGradGradGradGradGradGradGradGradGradGradGradGradGradGradGrad

 1\1\GINC-N544\Freq\RB3LYP\3-21G*\C1H2N4\RDJ3\16-Dec-2013\0\\#N Geom=Al
 lCheck Guess=TCheck SCRF=Check GenChk RB3LYP/3-21G* Freq\\1H-tetrazole
  CH2N4 casno=288948 state=1 config=1 method=8 basis=8\\0,1\C,1.0229841
 919,0.0049336987,0.\N,0.4112534519,-1.2083980979,0.\N,-0.9919969316,-1
 .0015833292,0.\N,-1.1545885327,0.3153960113,0.\N,0.1274943094,0.985125
 6684,0.\H,2.0883668714,0.1420587948,0.\H,0.7889434277,-2.1479141002,0.
 \\Version=EM64L-G09RevD.01\State=1-A'\HF=-256.7873914\RMSD=2.455e-09\R
 MSF=2.830e-05\ZeroPoint=0.044749\Thermal=0.0483313\Dipole=1.6978255,-1
 .3064361,0.\DipoleDeriv=0.1692249,0.0965992,0.,-0.1404409,0.3559016,0.
 ,0.,0.,0.0841613,-0.3475815,0.2126113,0.,0.2268425,-0.3983551,0.,0.,0.
 ,-0.2631932,0.1859633,-0.2837073,0.,-0.2688766,-0.1185291,0.,0.,0.,-0.
 0621727,0.156352,0.0247708,0.,0.1449513,-0.095858,0.,0.,0.,-0.1545332,
 -0.4477323,-0.0374176,0.,0.0398405,-0.1586075,0.,0.,0.,-0.1913818,0.06
 70686,-0.0072901,0.,0.0198288,0.1323875,0.,0.,0.,0.1861274,0.216705,-0
 .0055664,0.,-0.0221455,0.2830606,0.,0.,0.,0.4009922\Polar=35.9870001,-
 0.7115656,33.8224915,0.,0.,11.3035608\PG=CS [SG(C1H2N4)]\NImag=0\\0.92
 122236,0.02136660,0.53016108,0.,0.,0.15371884,-0.15210197,-0.04763619,
 0.,0.45363707,-0.08298997,-0.24027343,0.,-0.11867295,0.93212140,0.,0.,
 -0.06940077,0.,0.,0.09770036,-0.09227868,-0.08888861,0.,-0.12073086,-0
 .03682427,0.,0.32592138,-0.00481697,-0.02444237,0.,-0.00248220,-0.0885
 5546,0.,0.09236875,0.41440771,0.,0.,0.02089488,0.,0.,-0.06216405,0.,0.
 ,0.09761040,-0.12247721,0.06438382,0.,-0.07961134,0.03292157,0.,-0.086
 10482,-0.02576741,0.,0.38118382,-0.01803076,0.01858778,0.,0.09782919,-
 0.09180486,0.,0.04205260,-0.20632843,0.,-0.10946443,0.34105122,0.,0.,0
 .01584816,0.,0.,0.02163286,0.,0.,-0.08131898,0.,0.,0.10451199,-0.20270
 243,0.11045340,0.,0.01923103,0.07675393,0.,-0.03282979,-0.09364546,0.,
 -0.08255589,-0.01575638,0.,0.31381267,0.10779683,-0.22568184,0.,-0.023
 52034,-0.10841263,0.,-0.00536497,-0.09237582,0.,0.03839442,-0.06175186
 ,0.,-0.10425969,0.48353631,0.,0.,-0.07877207,0.,0.,0.02394100,0.,0.,0.
 02884591,0.,0.,-0.07660297,0.,0.,0.09905213,-0.36767370,-0.04462142,0.
 ,-0.00288086,0.00333777,0.,0.00173196,0.00312265,0.,0.00007597,-0.0004
 7293,0.,-0.01178293,-0.00426267,0.,0.38093239,-0.04090403,-0.05370217,
 0.,-0.03514672,-0.00195827,0.,0.00010075,-0.00662107,0.,0.00548312,-0.
 00240589,0.,0.02643172,0.00709373,0.,0.04371245,0.05810239,0.,0.,-0.03
 577176,0.,0.,0.00027352,0.,0.,0.00502646,0.,0.,0.00927477,0.,0.,-0.003
 32353,0.,0.,0.02557304,0.01601164,-0.01505760,0.,-0.11754306,0.1254739
 2,0.,0.00429082,0.03122064,0.,-0.01051052,0.00384271,0.,-0.00317265,-0
 .00878359,0.,-0.00040282,0.00032272,0.,0.11132661,0.01757830,-0.004649
 06,0.,0.12962921,-0.40111675,0.,-0.00344425,0.00391544,0.,-0.00595109,
 0.00265205,0.,0.00002249,-0.00240790,0.,-0.00081585,-0.00050872,0.,-0.
 13701880,0.40211495,0.,0.,-0.00651727,0.,0.,-0.01198292,0.,0.,-0.00889
 463,0.,0.,0.00665418,0.,0.,0.00685953,0.,0.,-0.00105249,0.,0.,0.014933
 61\\-0.00000388,-0.00008034,0.,0.00006461,0.00004714,0.,-0.00003666,-0
 .00000877,0.,0.00002224,0.00000590,0.,-0.00003341,0.00001362,0.,-0.000
 00390,0.00002455,0.,-0.00000900,-0.00000210,0.\\\@


 HAPPINESS IS NOT HAVING WHAT YOU WANT --
 HAPPINESS IS WANTING WHAT YOU HAVE!

              -- FROM MRS. SEVERN'S DESK
 Job cpu time:       0 days  0 hours  0 minutes 25.6 seconds.
 File lengths (MBytes):  RWF=      5 Int=      0 D2E=      0 Chk=      1 Scr=      1
 Normal termination of Gaussian 09 at Mon Dec 16 14:29:17 2013.
