 Entering Gaussian System, Link 0=g09
 Initial command:
 /usr/local/gaussian/g09.d01.em64t.legacy.linda/g09/l1.exe "/tmp/rdj3/g09-13608/Gau-11912.inp" -scrdir="/tmp/rdj3/g09-13608/"
 Entering Link 1 = /usr/local/gaussian/g09.d01.em64t.legacy.linda/g09/l1.exe PID=     11913.
  
 Copyright (c) 1988,1990,1992,1993,1995,1998,2003,2009,2013,
            Gaussian, Inc.  All Rights Reserved.
  
 This is part of the Gaussian(R) 09 program.  It is based on
 the Gaussian(R) 03 system (copyright 2003, Gaussian, Inc.),
 the Gaussian(R) 98 system (copyright 1998, Gaussian, Inc.),
 the Gaussian(R) 94 system (copyright 1995, Gaussian, Inc.),
 the Gaussian 92(TM) system (copyright 1992, Gaussian, Inc.),
 the Gaussian 90(TM) system (copyright 1990, Gaussian, Inc.),
 the Gaussian 88(TM) system (copyright 1988, Gaussian, Inc.),
 the Gaussian 86(TM) system (copyright 1986, Carnegie Mellon
 University), and the Gaussian 82(TM) system (copyright 1983,
 Carnegie Mellon University). Gaussian is a federally registered
 trademark of Gaussian, Inc.
  
 This software contains proprietary and confidential information,
 including trade secrets, belonging to Gaussian, Inc.
  
 This software is provided under written license and may be
 used, copied, transmitted, or stored only in accord with that
 written license.
  
 The following legend is applicable only to US Government
 contracts under FAR:
  
                    RESTRICTED RIGHTS LEGEND
  
 Use, reproduction and disclosure by the US Government is
 subject to restrictions as set forth in subparagraphs (a)
 and (c) of the Commercial Computer Software - Restricted
 Rights clause in FAR 52.227-19.
  
 Gaussian, Inc.
 340 Quinnipiac St., Bldg. 40, Wallingford CT 06492
  
  
 ---------------------------------------------------------------
 Warning -- This program may not be used in any manner that
 competes with the business of Gaussian, Inc. or will provide
 assistance to any competitor of Gaussian, Inc.  The licensee
 of this program is prohibited from giving any competitor of
 Gaussian, Inc. access to this program.  By using this program,
 the user acknowledges that Gaussian, Inc. is engaged in the
 business of creating and licensing software in the field of
 computational chemistry and represents and warrants to the
 licensee that it is not a competitor of Gaussian, Inc. and that
 it will not use this program in any manner prohibited above.
 ---------------------------------------------------------------
  

 Cite this work as:
 Gaussian 09, Revision D.01,
 M. J. Frisch, G. W. Trucks, H. B. Schlegel, G. E. Scuseria, 
 M. A. Robb, J. R. Cheeseman, G. Scalmani, V. Barone, B. Mennucci, 
 G. A. Petersson, H. Nakatsuji, M. Caricato, X. Li, H. P. Hratchian, 
 A. F. Izmaylov, J. Bloino, G. Zheng, J. L. Sonnenberg, M. Hada, 
 M. Ehara, K. Toyota, R. Fukuda, J. Hasegawa, M. Ishida, T. Nakajima, 
 Y. Honda, O. Kitao, H. Nakai, T. Vreven, J. A. Montgomery, Jr., 
 J. E. Peralta, F. Ogliaro, M. Bearpark, J. J. Heyd, E. Brothers, 
 K. N. Kudin, V. N. Staroverov, T. Keith, R. Kobayashi, J. Normand, 
 K. Raghavachari, A. Rendell, J. C. Burant, S. S. Iyengar, J. Tomasi, 
 M. Cossi, N. Rega, J. M. Millam, M. Klene, J. E. Knox, J. B. Cross, 
 V. Bakken, C. Adamo, J. Jaramillo, R. Gomperts, R. E. Stratmann, 
 O. Yazyev, A. J. Austin, R. Cammi, C. Pomelli, J. W. Ochterski, 
 R. L. Martin, K. Morokuma, V. G. Zakrzewski, G. A. Voth, 
 P. Salvador, J. J. Dannenberg, S. Dapprich, A. D. Daniels, 
 O. Farkas, J. B. Foresman, J. V. Ortiz, J. Cioslowski, 
 and D. J. Fox, Gaussian, Inc., Wallingford CT, 2013.
 
 ******************************************
 Gaussian 09:  EM64L-G09RevD.01 24-Apr-2013
                25-Nov-2013 
 ******************************************
 %Nproc=8
 Will use up to    8 processors via shared memory.
 %mem=436000000
 ------------------------------
 #B3LYP/6-31G opt=z-matrix freq
 ------------------------------
 1/10=7,14=-1,18=40,26=3,38=1/1,3;
 2/12=2,17=6,18=5,29=3,40=1/2;
 3/5=1,6=6,11=2,16=1,25=1,30=1,71=1,74=-5/1,2,3;
 4//1;
 5/5=2,38=5/2;
 6/7=2,8=2,9=2,10=2,28=1/1;
 7/29=1/1,2,3,16;
 1/10=7,14=-1,18=40,26=3/3(2);
 2/29=3/2;
 99//99;
 2/29=3/2;
 3/5=1,6=6,11=2,16=1,25=1,30=1,71=1,74=-5/1,2,3;
 4/5=5,16=3,69=1/1;
 5/5=2,38=5/2;
 7//1,2,3,16;
 1/14=-1,18=40,26=3/3(-5);
 2/29=3/2;
 6/7=2,8=2,9=2,10=2,19=2,28=1/1;
 99/9=1/99;
 -----------------------------------------------------------------
 1H-tetrazole CH2N4 casno=288948 state=1 config=1 method=8 basis=9
 -----------------------------------------------------------------
 Symbolic Z-matrix:
 Charge =  0 Multiplicity = 1
 X
 X                    1     1. 
 C                    1     1.       2     90. 
 N                    1    rn1      2     90.      3    an1      0
 N                    1    rn2      2     90.      3    an2      0
 N                    1    rn3      2     90.      3    an3      0
 N                    1    rn4      2     90.      3    an4      0
 H                    3    rch      4    ach      5     180.     0
 H                    4    rnh      5    anh      6     180.     0
       Variables:
  rn1                   1.2426                   
  rn2                   1.333                    
  rn3                   1.1146                   
  rn4                   0.9264                   
  rch                   1.0678                   
  rnh                   0.9941                   
  an1                  71.8427                   
  an2                 133.7028                   
  an3                 194.4597                   
  an4                 276.0768                   
  ach                 125.0248                   
  anh                 120.7626                   
 

 GradGradGradGradGradGradGradGradGradGradGradGradGradGradGradGradGradGrad
 Berny optimization.
 Initialization pass.
                       ----------------------------
                       !    Initial Parameters    !
                       ! (Angstroms and Degrees)  !
 ----------------------                            ----------------------
 !      Name          Value   Derivative information (Atomic Units)     !
 ------------------------------------------------------------------------
 !       rn1         1.2426   estimate D2E/DX2                          !
 !       rn2         1.333    estimate D2E/DX2                          !
 !       rn3         1.1146   estimate D2E/DX2                          !
 !       rn4         0.9264   estimate D2E/DX2                          !
 !       rch         1.0678   estimate D2E/DX2                          !
 !       rnh         0.9941   estimate D2E/DX2                          !
 !       an1        71.8427   estimate D2E/DX2                          !
 !       an2       133.7028   estimate D2E/DX2                          !
 !       an3       194.4597   estimate D2E/DX2                          !
 !       an4       276.0768   estimate D2E/DX2                          !
 !       ach       125.0248   estimate D2E/DX2                          !
 !       anh       120.7626   estimate D2E/DX2                          !
 ------------------------------------------------------------------------
 Trust Radius=3.00D-01 FncErr=1.00D-07 GrdErr=1.00D-06
 Number of steps in this run=     22 maximum allowed number of steps=    100.
 GradGradGradGradGradGradGradGradGradGradGradGradGradGradGradGradGradGrad

 ---------------------------------------------------------------------------------------------------
                            Z-MATRIX (ANGSTROMS AND DEGREES)
   CD    Cent   Atom    N1       Length/X        N2       Alpha/Y        N3        Beta/Z          J
 ---------------------------------------------------------------------------------------------------
      1         X 
      2         X        1   1.000000(     1)
      3      1  C        1   1.000000(     2)      2   90.000(     9)
      4      2  N        1   1.242600(     3)      2   90.000(    10)      3   71.843(    16)      0
      5      3  N        1   1.333000(     4)      2   90.000(    11)      3  133.703(    17)      0
      6      4  N        1   1.114600(     5)      2   90.000(    12)      3  194.460(    18)      0
      7      5  N        1   0.926400(     6)      2   90.000(    13)      3  276.077(    19)      0
      8      6  H        3   1.067800(     7)      4  125.025(    14)      5  180.000(    20)      0
      9      7  H        4   0.994100(     8)      5  120.763(    15)      6  180.000(    21)      0
 ---------------------------------------------------------------------------------------------------
                         Z-Matrix orientation:                         
 ---------------------------------------------------------------------
 Center     Atomic      Atomic             Coordinates (Angstroms)
 Number     Number       Type             X           Y           Z
 ---------------------------------------------------------------------
      1         -1           0        0.000000    0.000000    0.000000
      2         -1           0        0.000000    0.000000    1.000000
      3          6           0        1.000000    0.000000    0.000000
      4          7           0        0.387228   -1.180724    0.000000
      5          7           0       -0.920993   -0.963670    0.000000
      6          7           0       -1.079293    0.278314    0.000000
      7          7           0        0.098070    0.921194    0.000000
      8          1           0        2.058429    0.141157    0.000000
      9          1           0        0.749017   -2.106652    0.000000
 ---------------------------------------------------------------------
                    Distance matrix (angstroms):
                    1          2          3          4          5
     1  X    0.000000
     2  X    1.000000   0.000000
     3  C    1.000000   1.414214   0.000000
     4  N    1.242600   1.595009   1.330263   0.000000
     5  N    1.333000   1.666400   2.149157   1.326105   0.000000
     6  N    1.114600   1.497442   2.097837   2.068690   1.252032
     7  N    0.926400   1.363164   1.289216   2.121715   2.142710
     8  H    2.063263   2.292827   1.067800   2.130794   3.177672
     9  H    2.235847   2.449288   2.121551   0.994100   2.023695
                    6          7          8          9
     6  N    0.000000
     7  N    1.341447   0.000000
     8  H    3.140719   2.109850   0.000000
     9  H    3.005127   3.097029   2.601385   0.000000
 Stoichiometry    CH2N4
 Framework group  CS[SG(CH2N4)]
 Deg. of freedom    11
 Full point group                 CS      NOp   2
 Largest Abelian subgroup         CS      NOp   2
 Largest concise Abelian subgroup C1      NOp   1
                         Standard orientation:                         
 ---------------------------------------------------------------------
 Center     Atomic      Atomic             Coordinates (Angstroms)
 Number     Number       Type             X           Y           Z
 ---------------------------------------------------------------------
      1          6           0        1.052733    0.225621    0.000000
      2          7           0        0.000000    1.038857    0.000000
      3          7           0       -1.095416    0.291448    0.000000
      4          7           0       -0.716382   -0.901832    0.000000
      5          7           0        0.622191   -0.989579    0.000000
      6          1           0        2.072287    0.542964    0.000000
      7          1           0       -0.061439    2.031056    0.000000
 ---------------------------------------------------------------------
 Rotational constants (GHZ):     10.9201517     10.7345054      5.4132664
 Standard basis: 6-31G (6D, 7F)
 There are    39 symmetry adapted cartesian basis functions of A'  symmetry.
 There are    10 symmetry adapted cartesian basis functions of A"  symmetry.
 There are    39 symmetry adapted basis functions of A'  symmetry.
 There are    10 symmetry adapted basis functions of A"  symmetry.
    49 basis functions,   118 primitive gaussians,    49 cartesian basis functions
    18 alpha electrons       18 beta electrons
       nuclear repulsion energy       169.8308489506 Hartrees.
 NAtoms=    7 NActive=    7 NUniq=    7 SFac= 1.00D+00 NAtFMM=   60 NAOKFM=F Big=F
 Integral buffers will be    131072 words long.
 Raffenetti 2 integral format.
 Two-electron integral symmetry is turned on.
 One-electron integrals computed using PRISM.
 NBasis=    49 RedAO= T EigKep=  6.07D-03  NBF=    39    10
 NBsUse=    49 1.00D-06 EigRej= -1.00D+00 NBFU=    39    10
 ExpMin= 1.61D-01 ExpMax= 4.17D+03 ExpMxC= 6.27D+02 IAcc=1 IRadAn=         1 AccDes= 0.00D+00
 Harris functional with IExCor=  402 and IRadAn=       1 diagonalized for initial guess.
 HarFok:  IExCor=  402 AccDes= 0.00D+00 IRadAn=         1 IDoV= 1 UseB2=F ITyADJ=14
 ICtDFT=  3500011 ScaDFX=  1.000000  1.000000  1.000000  1.000000
 FoFCou: FMM=F IPFlag=           0 FMFlag=      100000 FMFlg1=           0
         NFxFlg=           0 DoJE=T BraDBF=F KetDBF=T FulRan=T
         wScrn=  0.000000 ICntrl=     500 IOpCl=  0 I1Cent=   200000004 NGrid=           0
         NMat0=    1 NMatS0=      1 NMatT0=    0 NMatD0=    1 NMtDS0=    0 NMtDT0=    0
 Petite list used in FoFCou.
 Initial guess orbital symmetries:
       Occupied  (A') (A') (A') (A') (A') (A') (A') (A') (A') (A')
                 (A') (A') (A") (A') (A") (A') (A") (A')
       Virtual   (A") (A") (A') (A') (A') (A') (A') (A') (A') (A")
                 (A') (A') (A') (A') (A') (A") (A') (A") (A') (A")
                 (A") (A') (A') (A') (A') (A') (A') (A') (A') (A')
                 (A')
 The electronic state of the initial guess is 1-A'.
 Keep R1 ints in memory in symmetry-blocked form, NReq=1649580.
 Requested convergence on RMS density matrix=1.00D-08 within 128 cycles.
 Requested convergence on MAX density matrix=1.00D-06.
 Requested convergence on             energy=1.00D-06.
 No special actions if energy rises.
 Integral accuracy reduced to 1.0D-05 until final iterations.
 Initial convergence to 1.0D-05 achieved.  Increase integral accuracy.
 SCF Done:  E(RB3LYP) =  -258.118940026     A.U. after   14 cycles
            NFock= 14  Conv=0.62D-08     -V/T= 2.0022

 **********************************************************************

            Population analysis using the SCF density.

 **********************************************************************

 Orbital symmetries:
       Occupied  (A') (A') (A') (A') (A') (A') (A') (A') (A') (A')
                 (A') (A") (A') (A') (A") (A") (A') (A')
       Virtual   (A") (A") (A') (A') (A') (A') (A') (A') (A') (A")
                 (A') (A') (A') (A") (A') (A') (A") (A') (A") (A')
                 (A") (A') (A') (A') (A') (A') (A') (A') (A') (A')
                 (A')
 The electronic state is 1-A'.
 Alpha  occ. eigenvalues --  -14.45474 -14.42396 -14.40238 -14.37599 -10.28831
 Alpha  occ. eigenvalues --   -1.22350  -0.99209  -0.94651  -0.71012  -0.69861
 Alpha  occ. eigenvalues --   -0.62697  -0.53171  -0.52371  -0.38438  -0.35419
 Alpha  occ. eigenvalues --   -0.33449  -0.30357  -0.28288
 Alpha virt. eigenvalues --   -0.02698   0.01390   0.05060   0.10473   0.18535
 Alpha virt. eigenvalues --    0.20414   0.28768   0.31778   0.42665   0.50686
 Alpha virt. eigenvalues --    0.54614   0.62085   0.65287   0.65973   0.67302
 Alpha virt. eigenvalues --    0.69726   0.70645   0.72519   0.78347   0.78555
 Alpha virt. eigenvalues --    0.82716   0.83513   0.87067   0.89878   1.01902
 Alpha virt. eigenvalues --    1.06270   1.16527   1.22323   1.36575   1.53778
 Alpha virt. eigenvalues --    1.59919
          Condensed to atoms (all electrons):
               1          2          3          4          5          6
     1  C    5.106690   0.151703  -0.130298  -0.131661   0.348725   0.364056
     2  N    0.151703   7.300170   0.043694  -0.103943  -0.091231  -0.046928
     3  N   -0.130298   0.043694   7.063817   0.129295  -0.118570   0.002693
     4  N   -0.131661  -0.103943   0.129295   6.966974   0.222502   0.006888
     5  N    0.348725  -0.091231  -0.118570   0.222502   6.938076  -0.024308
     6  H    0.364056  -0.046928   0.002693   0.006888  -0.024308   0.478689
     7  H   -0.018428   0.291966  -0.021485   0.009387   0.006100   0.002926
               7
     1  C   -0.018428
     2  N    0.291966
     3  N   -0.021485
     4  N    0.009387
     5  N    0.006100
     6  H    0.002926
     7  H    0.359416
 Mulliken charges:
               1
     1  C    0.309213
     2  N   -0.545431
     3  N    0.030852
     4  N   -0.099443
     5  N   -0.281294
     6  H    0.215984
     7  H    0.370118
 Sum of Mulliken charges =   0.00000
 Mulliken charges with hydrogens summed into heavy atoms:
               1
     1  C    0.525197
     2  N   -0.175312
     3  N    0.030852
     4  N   -0.099443
     5  N   -0.281294
 Electronic spatial extent (au):  <R**2>=            245.7269
 Charge=              0.0000 electrons
 Dipole moment (field-independent basis, Debye):
    X=              2.7142    Y=              5.1136    Z=              0.0000  Tot=              5.7893
 Quadrupole moment (field-independent basis, Debye-Ang):
   XX=            -29.8588   YY=            -27.3137   ZZ=            -28.0292
   XY=              1.8207   XZ=              0.0000   YZ=              0.0000
 Traceless Quadrupole moment (field-independent basis, Debye-Ang):
   XX=             -1.4582   YY=              1.0869   ZZ=              0.3713
   XY=              1.8207   XZ=              0.0000   YZ=              0.0000
 Octapole moment (field-independent basis, Debye-Ang**2):
  XXX=             12.5180  YYY=             23.3443  ZZZ=              0.0000  XYY=             -0.4903
  XXY=              4.8364  XXZ=              0.0000  XZZ=             -0.6303  YZZ=              0.4545
  YYZ=              0.0000  XYZ=              0.0000
 Hexadecapole moment (field-independent basis, Debye-Ang**3):
 XXXX=           -139.4428 YYYY=           -117.4154 ZZZZ=            -24.2966 XXXY=              6.3186
 XXXZ=              0.0000 YYYX=             -0.5305 YYYZ=              0.0000 ZZZX=              0.0000
 ZZZY=              0.0000 XXYY=            -52.5627 XXZZ=            -29.2337 YYZZ=            -27.6605
 XXYZ=              0.0000 YYXZ=              0.0000 ZZXY=             -0.1467
 N-N= 1.698308489506D+02 E-N=-9.420495502375D+02  KE= 2.575551806667D+02
 Symmetry A'   KE= 2.479950637406D+02
 Symmetry A"   KE= 9.560116926074D+00
 Calling FoFJK, ICntrl=      2127 FMM=F ISym2X=1 I1Cent= 0 IOpClX= 0 NMat=1 NMatS=1 NMatT=0.
 ***** Axes restored to original set *****
 -------------------------------------------------------------------
 Center     Atomic                   Forces (Hartrees/Bohr)
 Number     Number              X              Y              Z
 -------------------------------------------------------------------
      1        6           0.059601253   -0.006055766    0.000000000
      2        7           0.030879721   -0.030668335    0.000000000
      3        7          -0.044743997   -0.072407128    0.000000000
      4        7          -0.063047671    0.057616241    0.000000000
      5        7           0.008246876    0.060023924    0.000000000
      6        1           0.004567015    0.001378463    0.000000000
      7        1           0.004496804   -0.009887400    0.000000000
 -------------------------------------------------------------------
 Cartesian Forces:  Max     0.072407128 RMS     0.033689171
 -----------------------------------------------------------------------------------------------
                       Internal Coordinate Forces (Hartree/Bohr or radian)
  Cent   Atom   N1       Length/X         N2         Alpha/Y        N3         Beta/Z          J
 -----------------------------------------------------------------------------------------------
         X 
         X        1   0.000000(     1)
      1  C        1   0.063625(     2)      2   0.000000(     9)
      2  N        1   0.049606(     3)      2   0.000000(    10)      3  -0.050744(    16)     0
      3  N        1   0.083625(     4)      2   0.000000(    11)      3  -0.045165(    17)     0
      4  N        1   0.075437(     5)      2   0.000000(    12)      3   0.084353(    18)     0
      5  N        1   0.060560(     6)      2   0.000000(    13)      3   0.003232(    19)     0
      6  H        3   0.004709(     7)      4   0.001539(    14)      5   0.000000(    20)     0
      7  H        4   0.010846(     8)      5   0.001108(    15)      6   0.000000(    21)     0
 -----------------------------------------------------------------------------------------------
 Internal  Forces:  Max     0.084353119 RMS     0.040675489

 GradGradGradGradGradGradGradGradGradGradGradGradGradGradGradGradGradGrad
 Berny optimization.
 Search for a local minimum.
 Step number   1 out of a maximum of   22
 All quantities printed in internal units (Hartrees-Bohrs-Radians)
 Second derivative matrix not updated -- first step.
 The second derivative matrix:
                          rn1       rn2       rn3       rn4       rch
           rn1          0.65186
           rn2          0.01318   0.69869
           rn3          0.03472   0.07334   0.58262
           rn4          0.03688   0.02662   0.13967   0.63921
           rch          0.00000   0.00000   0.00000   0.00000   0.37510
           rnh          0.00000   0.00000   0.00000   0.00000   0.00000
           an1          0.02012  -0.75016   0.04258  -0.08486   0.00000
           an2          0.72119  -0.31234  -0.71865   0.05436   0.00000
           an3         -0.02914   1.04797   0.05412  -0.58583   0.00000
           an4          0.05328  -0.03228   0.65851  -0.10009   0.00000
           ach          0.04546   0.00000   0.00000   0.05066   0.00000
           anh         -0.10206   0.05276   0.00000   0.00000   0.00000
                          rnh       an1       an2       an3       an4
           rnh          0.48741
           an1          0.00000   4.53257
           an2          0.00000  -2.68051   6.02300
           an3          0.00000  -0.03573  -3.19618   4.47465
           an4          0.00000  -0.12258  -0.06592  -1.16042   2.58479
           ach          0.00000  -0.10460   0.00000   0.00000   0.07318
           anh          0.00000   0.03519  -0.09059   0.00000   0.00000
                          ach       anh
           ach          0.32000
           anh          0.00000   0.32000
 ITU=  0
     Eigenvalues ---    0.00000   0.13346   0.26445   0.33044   0.37510
     Eigenvalues ---    0.40158   0.48741   0.75609   1.20990   2.99509
     Eigenvalues ---    5.09563   9.64077
 RFO step:  Lambda=-2.53382444D-02 EMin=-6.95624114D-16
 Linear search not attempted -- first point.
 Variable       Old X    -DE/DX   Delta X   Delta X   Delta X     New X
                                 (Linear)    (Quad)   (Total)
   rn1        2.34817   0.04961   0.00000   0.03185   0.03185   2.38002
   rn2        2.51900   0.08363   0.00000   0.12110   0.12110   2.64011
   rn3        2.10629   0.07544   0.00000   0.15940   0.15940   2.26569
   rn4        1.75064   0.06056   0.00000   0.05333   0.05333   1.80397
   rch        2.01785   0.00471   0.00000   0.01176   0.01176   2.02961
   rnh        1.87858   0.01085   0.00000   0.02115   0.02115   1.89973
   an1        1.25389  -0.05074   0.00000   0.02380   0.02380   1.27770
   an2        2.33355  -0.04516   0.00000   0.02766   0.02766   2.36121
   an3        3.39396   0.08435   0.00000   0.00760   0.00760   3.40156
   an4        4.81845   0.00323   0.00000  -0.03106  -0.03106   4.78738
   ach        2.18209   0.00154   0.00000   0.00623   0.00623   2.18833
   anh        2.10770   0.00111   0.00000  -0.00105  -0.00105   2.10666
         Item               Value     Threshold  Converged?
 Maximum Force            0.084353     0.000450     NO 
 RMS     Force            0.050577     0.000300     NO 
 Maximum Displacement     0.159403     0.001800     NO 
 RMS     Displacement     0.062526     0.001200     NO 
 Predicted change in Energy=-1.326347D-02
 GradGradGradGradGradGradGradGradGradGradGradGradGradGradGradGradGradGrad

 ---------------------------------------------------------------------------------------------------
                            Z-MATRIX (ANGSTROMS AND DEGREES)
   CD    Cent   Atom    N1       Length/X        N2       Alpha/Y        N3        Beta/Z          J
 ---------------------------------------------------------------------------------------------------
      1         X 
      2         X        1   1.000000(     1)
      3      1  C        1   1.000000(     2)      2   90.000(     9)
      4      2  N        1   1.259453(     3)      2   90.000(    10)      3   73.207(    16)      0
      5      3  N        1   1.397084(     4)      2   90.000(    11)      3  135.288(    17)      0
      6      4  N        1   1.198953(     5)      2   90.000(    12)      3  194.895(    18)      0
      7      5  N        1   0.954622(     6)      2   90.000(    13)      3  274.297(    19)      0
      8      6  H        3   1.074023(     7)      4  125.382(    14)      5  180.000(    20)      0
      9      7  H        4   1.005293(     8)      5  120.703(    15)      6  180.000(    21)      0
 ---------------------------------------------------------------------------------------------------
                         Z-Matrix orientation:                         
 ---------------------------------------------------------------------
 Center     Atomic      Atomic             Coordinates (Angstroms)
 Number     Number       Type             X           Y           Z
 ---------------------------------------------------------------------
      1         -1           0        0.000000    0.000000    0.000000
      2         -1           0        0.000000    0.000000    1.000000
      3          6           0        1.000000    0.000000    0.000000
      4          7           0        0.363884   -1.205740    0.000000
      5          7           0       -0.992834   -0.982915    0.000000
      6          7           0       -1.158665    0.308192    0.000000
      7          7           0        0.071525    0.951938    0.000000
      8          1           0        2.064670    0.141433    0.000000
      9          1           0        0.730295   -2.141880    0.000000
 ---------------------------------------------------------------------
                    Distance matrix (angstroms):
                    1          2          3          4          5
     1  X    0.000000
     2  X    1.000000   0.000000
     3  C    1.000000   1.414214   0.000000
     4  N    1.259453   1.608173   1.363251   0.000000
     5  N    1.397084   1.718093   2.222051   1.374895   0.000000
     6  N    1.198953   1.561245   2.180554   2.147125   1.301713
     7  N    0.954622   1.382499   1.329756   2.177395   2.208284
     8  H    2.069509   2.298449   1.074023   2.169689   3.257682
     9  H    2.262959   2.474062   2.158794   1.005293   2.076626
                    6          7          8          9
     6  N    0.000000
     7  N    1.388445   0.000000
     8  H    3.227646   2.151638   0.000000
     9  H    3.093707   3.163177   2.644632   0.000000
 Stoichiometry    CH2N4
 Framework group  CS[SG(CH2N4)]
 Deg. of freedom    11
 Full point group                 CS      NOp   2
 Largest Abelian subgroup         CS      NOp   2
 Largest concise Abelian subgroup C1      NOp   1
                         Standard orientation:                         
 ---------------------------------------------------------------------
 Center     Atomic      Atomic             Coordinates (Angstroms)
 Number     Number       Type             X           Y           Z
 ---------------------------------------------------------------------
      1          6           0        1.086866    0.247430    0.000000
      2          7           0        0.000000    1.070337    0.000000
      3          7           0       -1.134699    0.293939    0.000000
      4          7           0       -0.738172   -0.945909    0.000000
      5          7           0        0.648878   -1.008126    0.000000
      6          1           0        2.111251    0.570168    0.000000
      7          1           0       -0.064500    2.073559    0.000000
 ---------------------------------------------------------------------
 Rotational constants (GHZ):     10.2562389     10.0666918      5.0802907
 Standard basis: 6-31G (6D, 7F)
 There are    39 symmetry adapted cartesian basis functions of A'  symmetry.
 There are    10 symmetry adapted cartesian basis functions of A"  symmetry.
 There are    39 symmetry adapted basis functions of A'  symmetry.
 There are    10 symmetry adapted basis functions of A"  symmetry.
    49 basis functions,   118 primitive gaussians,    49 cartesian basis functions
    18 alpha electrons       18 beta electrons
       nuclear repulsion energy       164.5710128142 Hartrees.
 NAtoms=    7 NActive=    7 NUniq=    7 SFac= 1.00D+00 NAtFMM=   60 NAOKFM=F Big=F
 Integral buffers will be    131072 words long.
 Raffenetti 2 integral format.
 Two-electron integral symmetry is turned on.
 One-electron integrals computed using PRISM.
 NBasis=    49 RedAO= T EigKep=  7.16D-03  NBF=    39    10
 NBsUse=    49 1.00D-06 EigRej= -1.00D+00 NBFU=    39    10
 Initial guess from the checkpoint file:  "/tmp/rdj3/g09-13608/Gau-11913.chk"
 B after Tr=     0.000000    0.000000    0.000000
         Rot=    0.999994    0.000000    0.000000   -0.003598 Ang=  -0.41 deg.
 Initial guess orbital symmetries:
       Occupied  (A') (A') (A') (A') (A') (A') (A') (A') (A') (A')
                 (A') (A") (A') (A') (A") (A") (A') (A')
       Virtual   (A') (A') (A') (A') (A') (A') (A') (A') (A') (A')
                 (A') (A') (A') (A') (A') (A') (A') (A') (A') (A')
                 (A') (A') (A') (A') (A") (A") (A") (A") (A") (A")
                 (A")
 ExpMin= 1.61D-01 ExpMax= 4.17D+03 ExpMxC= 6.27D+02 IAcc=1 IRadAn=         1 AccDes= 0.00D+00
 Harris functional with IExCor=  402 and IRadAn=       1 diagonalized for initial guess.
 HarFok:  IExCor=  402 AccDes= 0.00D+00 IRadAn=         1 IDoV= 1 UseB2=F ITyADJ=14
 ICtDFT=  3500011 ScaDFX=  1.000000  1.000000  1.000000  1.000000
 FoFCou: FMM=F IPFlag=           0 FMFlag=      100000 FMFlg1=           0
         NFxFlg=           0 DoJE=T BraDBF=F KetDBF=T FulRan=T
         wScrn=  0.000000 ICntrl=     500 IOpCl=  0 I1Cent=   200000004 NGrid=           0
         NMat0=    1 NMatS0=      1 NMatT0=    0 NMatD0=    1 NMtDS0=    0 NMtDT0=    0
 Petite list used in FoFCou.
 Keep R1 ints in memory in symmetry-blocked form, NReq=1649580.
 Requested convergence on RMS density matrix=1.00D-08 within 128 cycles.
 Requested convergence on MAX density matrix=1.00D-06.
 Requested convergence on             energy=1.00D-06.
 No special actions if energy rises.
 Integral accuracy reduced to 1.0D-05 until final iterations.
 Initial convergence to 1.0D-05 achieved.  Increase integral accuracy.
 SCF Done:  E(RB3LYP) =  -258.132632245     A.U. after   14 cycles
            NFock= 14  Conv=0.74D-08     -V/T= 2.0047
 Calling FoFJK, ICntrl=      2127 FMM=F ISym2X=1 I1Cent= 0 IOpClX= 0 NMat=1 NMatS=1 NMatT=0.
 ***** Axes restored to original set *****
 -------------------------------------------------------------------
 Center     Atomic                   Forces (Hartrees/Bohr)
 Number     Number              X              Y              Z
 -------------------------------------------------------------------
      1        6          -0.001276056   -0.004255757    0.000000000
      2        7           0.008214071    0.003365975    0.000000000
      3        7          -0.011054464   -0.019225329    0.000000000
      4        7          -0.005519105    0.006788956    0.000000000
      5        7           0.010132561    0.013980461    0.000000000
      6        1          -0.000118104    0.000750066    0.000000000
      7        1          -0.000378902   -0.001404370    0.000000000
 -------------------------------------------------------------------
 Cartesian Forces:  Max     0.019225329 RMS     0.006788365
 -----------------------------------------------------------------------------------------------
                       Internal Coordinate Forces (Hartree/Bohr or radian)
  Cent   Atom   N1       Length/X         N2         Alpha/Y        N3         Beta/Z          J
 -----------------------------------------------------------------------------------------------
         X 
         X        1   0.000000(     1)
      1  C        1  -0.001923(     2)      2   0.000000(     9)
      2  N        1   0.001373(     3)      2   0.000000(    10)      3  -0.019552(    16)     0
      3  N        1   0.020870(     4)      2   0.000000(    11)      3  -0.014557(    17)     0
      4  N        1   0.007079(     5)      2   0.000000(    12)      3   0.011651(    18)     0
      5  N        1   0.014700(     6)      2   0.000000(    13)      3   0.016338(    19)     0
      6  H        3  -0.000018(     7)      4   0.001541(    14)      5   0.000000(    20)     0
      7  H        4   0.001170(     8)      5  -0.001643(    15)      6   0.000000(    21)     0
 -----------------------------------------------------------------------------------------------
 Internal  Forces:  Max     0.020870014 RMS     0.009025495

 GradGradGradGradGradGradGradGradGradGradGradGradGradGradGradGradGradGrad
 Berny optimization.
 Search for a local minimum.
 Step number   2 out of a maximum of   22
 All quantities printed in internal units (Hartrees-Bohrs-Radians)
 Update second derivatives using D2CorN and points    1    2
 DE= -1.37D-02 DEPred=-1.33D-02 R= 1.03D+00
 TightC=F SS=  1.41D+00  RLast= 2.17D-01 DXNew= 5.0454D-01 6.4978D-01
 Trust test= 1.03D+00 RLast= 2.17D-01 DXMaxT set to 5.05D-01
 The second derivative matrix:
                          rn1       rn2       rn3       rn4       rch
           rn1          0.65148
           rn2          0.00641   0.65274
           rn3          0.03273   0.03918   0.57229
           rn4          0.03203  -0.00073   0.11526   0.62404
           rch          0.00004  -0.00182   0.00016  -0.00149   0.37517
           rnh         -0.00034  -0.00483  -0.00176  -0.00337  -0.00001
           an1          0.02682  -0.72867   0.07605  -0.07679   0.00261
           an2          0.72620  -0.29789  -0.69362   0.05909   0.00201
           an3         -0.03307   1.03174   0.03441  -0.59342  -0.00141
           an4          0.04766  -0.04849   0.63042  -0.10541  -0.00225
           ach          0.04496  -0.00297  -0.00255   0.04898  -0.00015
           anh         -0.10150   0.05504   0.00278   0.00107   0.00020
                          rnh       an1       an2       an3       an4
           rnh          0.48712
           an1          0.00438   4.54280
           an2          0.00325  -2.67070   6.03200
           an3         -0.00263  -0.03701  -3.19833   4.47280
           an4         -0.00365  -0.13360  -0.07602  -1.15802   2.59613
           ach         -0.00035  -0.10361   0.00061  -0.00087   0.07250
           anh          0.00037   0.03537  -0.09029   0.00026  -0.00034
                          ach       anh
           ach          0.31982
           anh          0.00012   0.31996
 ITU=  1  0
     Eigenvalues ---    0.00000   0.14314   0.27115   0.33402   0.37516
     Eigenvalues ---    0.39220   0.48711   0.72034   1.21004   2.98509
     Eigenvalues ---    5.08843   9.63966
 RFO step:  Lambda=-9.11300980D-04 EMin=-7.80426282D-07
 Quartic linear search produced a step of  0.17893.
 Variable       Old X    -DE/DX   Delta X   Delta X   Delta X     New X
                                 (Linear)    (Quad)   (Total)
   rn1        2.38002   0.00137   0.00570   0.06850   0.07420   2.45422
   rn2        2.64011   0.02087   0.02167   0.08121   0.10288   2.74299
   rn3        2.26569   0.00708   0.02852  -0.05088  -0.02235   2.24334
   rn4        1.80397   0.01470   0.00954  -0.06186  -0.05232   1.75165
   rch        2.02961  -0.00002   0.00210  -0.00150   0.00061   2.03022
   rnh        1.89973   0.00117   0.00378  -0.00009   0.00369   1.90342
   an1        1.27770  -0.01955   0.00426  -0.03269  -0.02844   1.24926
   an2        2.36121  -0.01456   0.00495  -0.06955  -0.06460   2.29661
   an3        3.40156   0.01165   0.00136  -0.08235  -0.08099   3.32058
   an4        4.78738   0.01634  -0.00556  -0.02333  -0.02889   4.75850
   ach        2.18833   0.00154   0.00112  -0.00008   0.00104   2.18936
   anh        2.10666  -0.00164  -0.00019  -0.01424  -0.01443   2.09223
         Item               Value     Threshold  Converged?
 Maximum Force            0.020870     0.000450     NO 
 RMS     Force            0.011927     0.000300     NO 
 Maximum Displacement     0.102880     0.001800     NO 
 RMS     Displacement     0.051580     0.001200     NO 
 Predicted change in Energy=-6.364487D-04
 GradGradGradGradGradGradGradGradGradGradGradGradGradGradGradGradGradGrad

 ---------------------------------------------------------------------------------------------------
                            Z-MATRIX (ANGSTROMS AND DEGREES)
   CD    Cent   Atom    N1       Length/X        N2       Alpha/Y        N3        Beta/Z          J
 ---------------------------------------------------------------------------------------------------
      1         X 
      2         X        1   1.000000(     1)
      3      1  C        1   1.000000(     2)      2   90.000(     9)
      4      2  N        1   1.298719(     3)      2   90.000(    10)      3   71.577(    16)      0
      5      3  N        1   1.451525(     4)      2   90.000(    11)      3  131.586(    17)      0
      6      4  N        1   1.187123(     5)      2   90.000(    12)      3  190.255(    18)      0
      7      5  N        1   0.926934(     6)      2   90.000(    13)      3  272.642(    19)      0
      8      6  H        3   1.074345(     7)      4  125.441(    14)      5  180.000(    20)      0
      9      7  H        4   1.007247(     8)      5  119.876(    15)      6  180.000(    21)      0
 ---------------------------------------------------------------------------------------------------
                         Z-Matrix orientation:                         
 ---------------------------------------------------------------------
 Center     Atomic      Atomic             Coordinates (Angstroms)
 Number     Number       Type             X           Y           Z
 ---------------------------------------------------------------------
      1         -1           0        0.000000    0.000000    0.000000
      2         -1           0        0.000000    0.000000    1.000000
      3          6           0        1.000000    0.000000    0.000000
      4          7           0        0.410427   -1.232161    0.000000
      5          7           0       -0.963447   -1.085678    0.000000
      6          7           0       -1.168159    0.211342    0.000000
      7          7           0        0.042724    0.925949    0.000000
      8          1           0        2.058441    0.184170    0.000000
      9          1           0        0.816736   -2.153822    0.000000
 ---------------------------------------------------------------------
                    Distance matrix (angstroms):
                    1          2          3          4          5
     1  X    0.000000
     2  X    1.000000   0.000000
     3  C    1.000000   1.414214   0.000000
     4  N    1.298719   1.639107   1.365949   0.000000
     5  N    1.451525   1.762647   2.243618   1.381661   0.000000
     6  N    1.187123   1.552180   2.178435   2.139074   1.313076
     7  N    0.926934   1.363527   1.331825   2.189210   2.249227
     8  H    2.066664   2.295887   1.074345   2.173004   3.277853
     9  H    2.303477   2.511177   2.161605   1.007247   2.076050
                    6          7          8          9
     6  N    0.000000
     7  N    1.406023   0.000000
     8  H    3.226715   2.147871   0.000000
     9  H    3.087687   3.175545   2.647271   0.000000
 Stoichiometry    CH2N4
 Framework group  CS[SG(CH2N4)]
 Deg. of freedom    11
 Full point group                 CS      NOp   2
 Largest Abelian subgroup         CS      NOp   2
 Largest concise Abelian subgroup C1      NOp   1
                         Standard orientation:                         
 ---------------------------------------------------------------------
 Center     Atomic      Atomic             Coordinates (Angstroms)
 Number     Number       Type             X           Y           Z
 ---------------------------------------------------------------------
      1          6           0        1.089731    0.243584    0.000000
      2          7           0        0.000000    1.067176    0.000000
      3          7           0       -1.153021    0.305908    0.000000
      4          7           0       -0.739002   -0.940188    0.000000
      5          7           0        0.664831   -1.018643    0.000000
      6          1           0        2.114477    0.566246    0.000000
      7          1           0       -0.062516    2.072481    0.000000
 ---------------------------------------------------------------------
 Rotational constants (GHZ):     10.2524669      9.8528607      5.0243463
 Standard basis: 6-31G (6D, 7F)
 There are    39 symmetry adapted cartesian basis functions of A'  symmetry.
 There are    10 symmetry adapted cartesian basis functions of A"  symmetry.
 There are    39 symmetry adapted basis functions of A'  symmetry.
 There are    10 symmetry adapted basis functions of A"  symmetry.
    49 basis functions,   118 primitive gaussians,    49 cartesian basis functions
    18 alpha electrons       18 beta electrons
       nuclear repulsion energy       163.6777246590 Hartrees.
 NAtoms=    7 NActive=    7 NUniq=    7 SFac= 1.00D+00 NAtFMM=   60 NAOKFM=F Big=F
 Integral buffers will be    131072 words long.
 Raffenetti 2 integral format.
 Two-electron integral symmetry is turned on.
 One-electron integrals computed using PRISM.
 NBasis=    49 RedAO= T EigKep=  7.31D-03  NBF=    39    10
 NBsUse=    49 1.00D-06 EigRej= -1.00D+00 NBFU=    39    10
 Initial guess from the checkpoint file:  "/tmp/rdj3/g09-13608/Gau-11913.chk"
 B after Tr=     0.000000    0.000000    0.000000
         Rot=    1.000000    0.000000    0.000000    0.000651 Ang=   0.07 deg.
 Initial guess orbital symmetries:
       Occupied  (A') (A') (A') (A') (A') (A') (A') (A') (A') (A')
                 (A') (A') (A") (A') (A") (A") (A') (A')
       Virtual   (A') (A') (A') (A') (A') (A') (A') (A') (A') (A')
                 (A') (A') (A') (A') (A') (A') (A') (A') (A') (A')
                 (A') (A') (A') (A') (A") (A") (A") (A") (A") (A")
                 (A")
 ExpMin= 1.61D-01 ExpMax= 4.17D+03 ExpMxC= 6.27D+02 IAcc=1 IRadAn=         1 AccDes= 0.00D+00
 Harris functional with IExCor=  402 and IRadAn=       1 diagonalized for initial guess.
 HarFok:  IExCor=  402 AccDes= 0.00D+00 IRadAn=         1 IDoV= 1 UseB2=F ITyADJ=14
 ICtDFT=  3500011 ScaDFX=  1.000000  1.000000  1.000000  1.000000
 FoFCou: FMM=F IPFlag=           0 FMFlag=      100000 FMFlg1=           0
         NFxFlg=           0 DoJE=T BraDBF=F KetDBF=T FulRan=T
         wScrn=  0.000000 ICntrl=     500 IOpCl=  0 I1Cent=   200000004 NGrid=           0
         NMat0=    1 NMatS0=      1 NMatT0=    0 NMatD0=    1 NMtDS0=    0 NMtDT0=    0
 Petite list used in FoFCou.
 Keep R1 ints in memory in symmetry-blocked form, NReq=1649580.
 Requested convergence on RMS density matrix=1.00D-08 within 128 cycles.
 Requested convergence on MAX density matrix=1.00D-06.
 Requested convergence on             energy=1.00D-06.
 No special actions if energy rises.
 Integral accuracy reduced to 1.0D-05 until final iterations.
 Initial convergence to 1.0D-05 achieved.  Increase integral accuracy.
 SCF Done:  E(RB3LYP) =  -258.133092571     A.U. after   13 cycles
            NFock= 13  Conv=0.42D-08     -V/T= 2.0051
 Calling FoFJK, ICntrl=      2127 FMM=F ISym2X=1 I1Cent= 0 IOpClX= 0 NMat=1 NMatS=1 NMatT=0.
 ***** Axes restored to original set *****
 -------------------------------------------------------------------
 Center     Atomic                   Forces (Hartrees/Bohr)
 Number     Number              X              Y              Z
 -------------------------------------------------------------------
      1        6          -0.003096003   -0.005333222    0.000000000
      2        7           0.009697659   -0.002092054    0.000000000
      3        7           0.002444133    0.004106692    0.000000000
      4        7          -0.010176522    0.005974032    0.000000000
      5        7           0.000366185   -0.002624313    0.000000000
      6        1           0.000107115   -0.000438962    0.000000000
      7        1           0.000657433    0.000407827    0.000000000
 -------------------------------------------------------------------
 Cartesian Forces:  Max     0.010176522 RMS     0.003819517
 -----------------------------------------------------------------------------------------------
                       Internal Coordinate Forces (Hartree/Bohr or radian)
  Cent   Atom   N1       Length/X         N2         Alpha/Y        N3         Beta/Z          J
 -----------------------------------------------------------------------------------------------
         X 
         X        1   0.000000(     1)
      1  C        1  -0.002669(     2)      2   0.000000(     9)
      2  N        1   0.004116(     3)      2   0.000000(    10)      3  -0.022748(    16)     0
      3  N        1  -0.004239(     4)      2   0.000000(    11)      3   0.001573(    17)     0
      4  N        1   0.011078(     5)      2   0.000000(    12)      3   0.009123(    18)     0
      5  N        1  -0.002605(     6)      2   0.000000(    13)      3   0.000853(    19)     0
      6  H        3   0.000030(     7)      4  -0.000915(    14)      5   0.000000(    20)     0
      7  H        4  -0.000108(     8)      5   0.001458(    15)      6   0.000000(    21)     0
 -----------------------------------------------------------------------------------------------
 Internal  Forces:  Max     0.022747521 RMS     0.006088218

 GradGradGradGradGradGradGradGradGradGradGradGradGradGradGradGradGradGrad
 Berny optimization.
 Search for a local minimum.
 Step number   3 out of a maximum of   22
 All quantities printed in internal units (Hartrees-Bohrs-Radians)
 Update second derivatives using D2CorN and points    1    2    3
 DE= -4.60D-04 DEPred=-6.36D-04 R= 7.23D-01
 TightC=F SS=  1.41D+00  RLast= 1.79D-01 DXNew= 8.4853D-01 5.3603D-01
 Trust test= 7.23D-01 RLast= 1.79D-01 DXMaxT set to 5.36D-01
 The second derivative matrix:
                          rn1       rn2       rn3       rn4       rch
           rn1          0.63859
           rn2         -0.00410   0.64894
           rn3          0.01191   0.00348   0.56294
           rn4          0.03415  -0.00590   0.11983   0.62114
           rch         -0.00033  -0.00209  -0.00044  -0.00165   0.37521
           rnh         -0.00131  -0.00567  -0.00389  -0.00379   0.00001
           an1          0.06836  -0.65978   0.10124  -0.09114   0.00519
           an2          0.73242  -0.29374  -0.67399   0.06016   0.00263
           an3         -0.04437   0.99968   0.04315  -0.58801  -0.00243
           an4          0.04434  -0.06142   0.63044  -0.10490  -0.00302
           ach          0.04564  -0.00181  -0.00329   0.04825  -0.00013
           anh         -0.10209   0.05227   0.00619   0.00207   0.00017
                          rnh       an1       an2       an3       an4
           rnh          0.48709
           an1          0.01016   4.52594
           an2          0.00433  -2.69408   6.03341
           an3         -0.00497  -0.06892  -3.18823   4.50342
           an4         -0.00508  -0.15250  -0.07550  -1.14543   2.60328
           ach         -0.00030  -0.10226   0.00014  -0.00256   0.07169
           anh          0.00027   0.02915  -0.08909   0.00495   0.00128
                          ach       anh
           ach          0.31985
           anh         -0.00009   0.32060
 ITU=  1  1  0
     Eigenvalues ---   -0.00260   0.14981   0.28268   0.33346   0.37520
     Eigenvalues ---    0.40562   0.48692   0.70173   1.20998   2.97681
     Eigenvalues ---    5.08098   9.63984
 RFO step:  Lambda=-3.15776993D-03 EMin=-2.60212351D-03
 Quartic linear search produced a step of -0.26074.
 Maximum step size (   0.536) exceeded in Quadratic search.
    -- Step size scaled by   0.536
 Variable       Old X    -DE/DX   Delta X   Delta X   Delta X     New X
                                 (Linear)    (Quad)   (Total)
   rn1        2.45422   0.00412  -0.01935   0.26284   0.24349   2.69771
   rn2        2.74299  -0.00424  -0.02683   0.14012   0.11330   2.85628
   rn3        2.24334   0.01108   0.00583  -0.00688  -0.00105   2.24229
   rn4        1.75165  -0.00260   0.01364  -0.25585  -0.24221   1.50944
   rch        2.03022   0.00003  -0.00016   0.00045   0.00029   2.03051
   rnh        1.90342  -0.00011  -0.00096   0.00111   0.00015   1.90357
   an1        1.24926  -0.02275   0.00741  -0.12264  -0.11523   1.13403
   an2        2.29661   0.00157   0.01684  -0.20704  -0.19020   2.10642
   an3        3.32058   0.00912   0.02112  -0.24146  -0.22034   3.10024
   an4        4.75850   0.00085   0.00753  -0.12775  -0.12022   4.63828
   ach        2.18936  -0.00092  -0.00027  -0.01093  -0.01120   2.17816
   anh        2.09223   0.00146   0.00376   0.02134   0.02510   2.11733
         Item               Value     Threshold  Converged?
 Maximum Force            0.022748     0.000450     NO 
 RMS     Force            0.008017     0.000300     NO 
 Maximum Displacement     0.243490     0.001800     NO 
 RMS     Displacement     0.142595     0.001200     NO 
 Predicted change in Energy=-1.561022D-03
 GradGradGradGradGradGradGradGradGradGradGradGradGradGradGradGradGradGrad

 ---------------------------------------------------------------------------------------------------
                            Z-MATRIX (ANGSTROMS AND DEGREES)
   CD    Cent   Atom    N1       Length/X        N2       Alpha/Y        N3        Beta/Z          J
 ---------------------------------------------------------------------------------------------------
      1         X 
      2         X        1   1.000000(     1)
      3      1  C        1   1.000000(     2)      2   90.000(     9)
      4      2  N        1   1.427568(     3)      2   90.000(    10)      3   64.975(    16)      0
      5      3  N        1   1.511479(     4)      2   90.000(    11)      3  120.689(    17)      0
      6      4  N        1   1.186568(     5)      2   90.000(    12)      3  177.631(    18)      0
      7      5  N        1   0.798761(     6)      2   90.000(    13)      3  265.754(    19)      0
      8      6  H        3   1.074498(     7)      4  124.799(    14)      5  180.000(    20)      0
      9      7  H        4   1.007327(     8)      5  121.314(    15)      6  180.000(    21)      0
 ---------------------------------------------------------------------------------------------------
                         Z-Matrix orientation:                         
 ---------------------------------------------------------------------
 Center     Atomic      Atomic             Coordinates (Angstroms)
 Number     Number       Type             X           Y           Z
 ---------------------------------------------------------------------
      1         -1           0        0.000000    0.000000    0.000000
      2         -1           0        0.000000    0.000000    1.000000
      3          6           0        1.000000    0.000000    0.000000
      4          7           0        0.603874   -1.293556    0.000000
      5          7           0       -0.771423   -1.299799    0.000000
      6          7           0       -1.185553   -0.049057    0.000000
      7          7           0       -0.059143    0.796568    0.000000
      8          1           0        2.023215    0.327991    0.000000
      9          1           0        1.131313   -2.151761    0.000000
 ---------------------------------------------------------------------
                    Distance matrix (angstroms):
                    1          2          3          4          5
     1  X    0.000000
     2  X    1.000000   0.000000
     3  C    1.000000   1.414214   0.000000
     4  N    1.427568   1.742972   1.352850   0.000000
     5  N    1.511479   1.812338   2.197138   1.375311   0.000000
     6  N    1.186568   1.551755   2.186104   2.179639   1.317520
     7  N    0.798761   1.279851   1.325257   2.192763   2.214068
     8  H    2.049629   2.280565   1.074498   2.154981   3.234146
     9  H    2.431038   2.628677   2.155764   1.007327   2.084765
                    6          7          8          9
     6  N    0.000000
     7  N    1.408503   0.000000
     8  H    3.230845   2.134428   0.000000
     9  H    3.128775   3.179596   2.635272   0.000000
 Stoichiometry    CH2N4
 Framework group  CS[SG(CH2N4)]
 Deg. of freedom    11
 Full point group                 CS      NOp   2
 Largest Abelian subgroup         CS      NOp   2
 Largest concise Abelian subgroup C1      NOp   1
                         Standard orientation:                         
 ---------------------------------------------------------------------
 Center     Atomic      Atomic             Coordinates (Angstroms)
 Number     Number       Type             X           Y           Z
 ---------------------------------------------------------------------
      1          6           0        1.069718    0.253947    0.000000
      2          7           0        0.000000    1.082142    0.000000
      3          7           0       -1.127056    0.293962    0.000000
      4          7           0       -0.743917   -0.966618    0.000000
      5          7           0        0.663988   -1.007674    0.000000
      6          1           0        2.094750    0.576213    0.000000
      7          1           0       -0.064163    2.087423    0.000000
 ---------------------------------------------------------------------
 Rotational constants (GHZ):     10.1788690     10.0131789      5.0476721
 Standard basis: 6-31G (6D, 7F)
 There are    39 symmetry adapted cartesian basis functions of A'  symmetry.
 There are    10 symmetry adapted cartesian basis functions of A"  symmetry.
 There are    39 symmetry adapted basis functions of A'  symmetry.
 There are    10 symmetry adapted basis functions of A"  symmetry.
    49 basis functions,   118 primitive gaussians,    49 cartesian basis functions
    18 alpha electrons       18 beta electrons
       nuclear repulsion energy       164.0359859119 Hartrees.
 NAtoms=    7 NActive=    7 NUniq=    7 SFac= 1.00D+00 NAtFMM=   60 NAOKFM=F Big=F
 Integral buffers will be    131072 words long.
 Raffenetti 2 integral format.
 Two-electron integral symmetry is turned on.
 One-electron integrals computed using PRISM.
 NBasis=    49 RedAO= T EigKep=  7.17D-03  NBF=    39    10
 NBsUse=    49 1.00D-06 EigRej= -1.00D+00 NBFU=    39    10
 Initial guess from the checkpoint file:  "/tmp/rdj3/g09-13608/Gau-11913.chk"
 B after Tr=     0.000000    0.000000    0.000000
         Rot=    0.999996    0.000000    0.000000   -0.002940 Ang=  -0.34 deg.
 Initial guess orbital symmetries:
       Occupied  (A') (A') (A') (A') (A') (A') (A') (A') (A') (A')
                 (A') (A') (A") (A') (A") (A") (A') (A')
       Virtual   (A') (A') (A') (A') (A') (A') (A') (A') (A') (A')
                 (A') (A') (A') (A') (A') (A') (A') (A') (A') (A')
                 (A') (A') (A') (A') (A") (A") (A") (A") (A") (A")
                 (A")
 ExpMin= 1.61D-01 ExpMax= 4.17D+03 ExpMxC= 6.27D+02 IAcc=1 IRadAn=         1 AccDes= 0.00D+00
 Harris functional with IExCor=  402 and IRadAn=       1 diagonalized for initial guess.
 HarFok:  IExCor=  402 AccDes= 0.00D+00 IRadAn=         1 IDoV= 1 UseB2=F ITyADJ=14
 ICtDFT=  3500011 ScaDFX=  1.000000  1.000000  1.000000  1.000000
 FoFCou: FMM=F IPFlag=           0 FMFlag=      100000 FMFlg1=           0
         NFxFlg=           0 DoJE=T BraDBF=F KetDBF=T FulRan=T
         wScrn=  0.000000 ICntrl=     500 IOpCl=  0 I1Cent=   200000004 NGrid=           0
         NMat0=    1 NMatS0=      1 NMatT0=    0 NMatD0=    1 NMtDS0=    0 NMtDT0=    0
 Petite list used in FoFCou.
 Keep R1 ints in memory in symmetry-blocked form, NReq=1649580.
 Requested convergence on RMS density matrix=1.00D-08 within 128 cycles.
 Requested convergence on MAX density matrix=1.00D-06.
 Requested convergence on             energy=1.00D-06.
 No special actions if energy rises.
 Integral accuracy reduced to 1.0D-05 until final iterations.
 Initial convergence to 1.0D-05 achieved.  Increase integral accuracy.
 SCF Done:  E(RB3LYP) =  -258.132091485     A.U. after   13 cycles
            NFock= 13  Conv=0.81D-08     -V/T= 2.0049
 Calling FoFJK, ICntrl=      2127 FMM=F ISym2X=1 I1Cent= 0 IOpClX= 0 NMat=1 NMatS=1 NMatT=0.
 ***** Axes restored to original set *****
 -------------------------------------------------------------------
 Center     Atomic                   Forces (Hartrees/Bohr)
 Number     Number              X              Y              Z
 -------------------------------------------------------------------
      1        6           0.015073004    0.008093771    0.000000000
      2        7          -0.005723933    0.007381481    0.000000000
      3        7          -0.020773959   -0.018194857    0.000000000
      4        7           0.015163679   -0.007336053    0.000000000
      5        7          -0.001984105    0.009421410    0.000000000
      6        1           0.000030216    0.000556234    0.000000000
      7        1          -0.001784902    0.000078015    0.000000000
 -------------------------------------------------------------------
 Cartesian Forces:  Max     0.020773959 RMS     0.008514752
 -----------------------------------------------------------------------------------------------
                       Internal Coordinate Forces (Hartree/Bohr or radian)
  Cent   Atom   N1       Length/X         N2         Alpha/Y        N3         Beta/Z          J
 -----------------------------------------------------------------------------------------------
         X 
         X        1   0.000000(     1)
      1  C        1   0.014708(     2)      2   0.000000(     9)
      2  N        1  -0.008674(     3)      2   0.000000(    10)      3   0.010239(    16)     0
      3  N        1   0.025320(     4)      2   0.000000(    11)      3   0.026094(    17)     0
      4  N        1  -0.014847(     5)      2   0.000000(    12)      3  -0.017841(    18)     0
      5  N        1   0.009542(     6)      2   0.000000(    13)      3  -0.001934(    19)     0
      6  H        3   0.000199(     7)      4   0.001057(    14)      5   0.000000(    20)     0
      7  H        4  -0.001001(     8)      5  -0.002817(    15)      6   0.000000(    21)     0
 -----------------------------------------------------------------------------------------------
 Internal  Forces:  Max     0.026094359 RMS     0.010605621

 GradGradGradGradGradGradGradGradGradGradGradGradGradGradGradGradGradGrad
 Berny optimization.
 Search for a local minimum.
 Step number   4 out of a maximum of   22
 All quantities printed in internal units (Hartrees-Bohrs-Radians)
 Update second derivatives using D2CorN and points    1    2    4    3
 DE=  1.00D-03 DEPred=-1.56D-03 R=-6.41D-01
 Trust test=-6.41D-01 RLast= 4.94D-01 DXMaxT set to 2.68D-01
 The second derivative matrix:
                          rn1       rn2       rn3       rn4       rch
           rn1          0.64946
           rn2         -0.01464   0.63716
           rn3          0.02119   0.00145   0.56967
           rn4          0.02296   0.00111   0.10834   0.62964
           rch         -0.00033  -0.00207  -0.00001  -0.00165   0.37525
           rnh         -0.00072  -0.00545  -0.00365  -0.00458   0.00007
           an1          0.06049  -0.64259   0.10050  -0.07725   0.00583
           an2          0.71506  -0.28890  -0.67468   0.07927   0.00307
           an3         -0.04083   1.00681   0.03501  -0.59482  -0.00260
           an4          0.04160  -0.05974   0.62060  -0.10518  -0.00343
           ach          0.04475  -0.00139  -0.00422   0.04894  -0.00013
           anh         -0.09948   0.05126   0.00897  -0.00007   0.00018
                          rnh       an1       an2       an3       an4
           rnh          0.48716
           an1          0.01133   4.53604
           an2          0.00451  -2.68140   6.05747
           an3         -0.00614  -0.06980  -3.18191   4.48911
           an4         -0.00616  -0.15084  -0.07113  -1.15073   2.60393
           ach         -0.00033  -0.10081   0.00128  -0.00299   0.07169
           anh          0.00034   0.02445  -0.09155   0.00603   0.00091
                          ach       anh
           ach          0.31992
           anh         -0.00033   0.32119
 ITU= -1  1  1  0
 Energy rises -- skip Quadratic search.
 Quartic linear search produced a step of -0.69499.
 Variable       Old X    -DE/DX   Delta X   Delta X   Delta X     New X
                                 (Linear)    (Quad)   (Total)
   rn1        2.69771  -0.00867  -0.16922   0.00000  -0.16922   2.52849
   rn2        2.85628   0.02532  -0.07874   0.00000  -0.07874   2.77754
   rn3        2.24229  -0.01485   0.00073   0.00000   0.00073   2.24302
   rn4        1.50944   0.00954   0.16834   0.00000   0.16834   1.67778
   rch        2.03051   0.00020  -0.00020   0.00000  -0.00020   2.03031
   rnh        1.90357  -0.00100  -0.00010   0.00000  -0.00010   1.90347
   an1        1.13403   0.01024   0.08008   0.00000   0.08008   1.21412
   an2        2.10642   0.02609   0.13219   0.00000   0.13219   2.23860
   an3        3.10024  -0.01784   0.15313   0.00000   0.15313   3.25337
   an4        4.63828  -0.00193   0.08355   0.00000   0.08355   4.72183
   ach        2.17816   0.00106   0.00779   0.00000   0.00779   2.18595
   anh        2.11733  -0.00282  -0.01745   0.00000  -0.01745   2.09989
         Item               Value     Threshold  Converged?
 Maximum Force            0.026094     0.000450     NO 
 RMS     Force            0.013372     0.000300     NO 
 Maximum Displacement     0.169224     0.001800     NO 
 RMS     Displacement     0.099103     0.001200     NO 
 Predicted change in Energy=-2.945603D-04
 GradGradGradGradGradGradGradGradGradGradGradGradGradGradGradGradGradGrad

 ---------------------------------------------------------------------------------------------------
                            Z-MATRIX (ANGSTROMS AND DEGREES)
   CD    Cent   Atom    N1       Length/X        N2       Alpha/Y        N3        Beta/Z          J
 ---------------------------------------------------------------------------------------------------
      1         X 
      2         X        1   1.000000(     1)
      3      1  C        1   1.000000(     2)      2   90.000(     9)
      4      2  N        1   1.338019(     3)      2   90.000(    10)      3   69.564(    16)      0
      5      3  N        1   1.469812(     4)      2   90.000(    11)      3  128.263(    17)      0
      6      4  N        1   1.186954(     5)      2   90.000(    12)      3  186.404(    18)      0
      7      5  N        1   0.887840(     6)      2   90.000(    13)      3  270.541(    19)      0
      8      6  H        3   1.074392(     7)      4  125.245(    14)      5  180.000(    20)      0
      9      7  H        4   1.007272(     8)      5  120.315(    15)      6  180.000(    21)      0
 ---------------------------------------------------------------------------------------------------
                         Z-Matrix orientation:                         
 ---------------------------------------------------------------------
 Center     Atomic      Atomic             Coordinates (Angstroms)
 Number     Number       Type             X           Y           Z
 ---------------------------------------------------------------------
      1         -1           0        0.000000    0.000000    0.000000
      2         -1           0        0.000000    0.000000    1.000000
      3          6           0        1.000000    0.000000    0.000000
      4          7           0        0.467191   -1.253805    0.000000
      5          7           0       -0.910204   -1.154069    0.000000
      6          7           0       -1.179546    0.132400    0.000000
      7          7           0        0.008382    0.887801    0.000000
      8          1           0        2.050039    0.227453    0.000000
      9          1           0        0.911482   -2.157797    0.000000
 ---------------------------------------------------------------------
                    Distance matrix (angstroms):
                    1          2          3          4          5
     1  X    0.000000
     2  X    1.000000   0.000000
     3  C    1.000000   1.414214   0.000000
     4  N    1.338019   1.670417   1.362318   0.000000
     5  N    1.469812   1.777736   2.231761   1.381002   0.000000
     6  N    1.186954   1.552050   2.183564   2.152512   1.314362
     7  N    0.887840   1.337259   1.330976   2.190201   2.238980
     8  H    2.062619   2.292247   1.074392   2.167840   3.266748
     9  H    2.342410   2.546937   2.159612   1.007272   2.079907
                    6          7          8          9
     6  N    0.000000
     7  N    1.407765   0.000000
     8  H    3.230984   2.145793   0.000000
     9  H    3.101194   3.176674   2.643053   0.000000
 Stoichiometry    CH2N4
 Framework group  CS[SG(CH2N4)]
 Deg. of freedom    11
 Full point group                 CS      NOp   2
 Largest Abelian subgroup         CS      NOp   2
 Largest concise Abelian subgroup C1      NOp   1
                         Standard orientation:                         
 ---------------------------------------------------------------------
 Center     Atomic      Atomic             Coordinates (Angstroms)
 Number     Number       Type             X           Y           Z
 ---------------------------------------------------------------------
      1          6           0        1.084999    0.247961    0.000000
      2          7           0        0.000000    1.071787    0.000000
      3          7           0       -1.146123    0.301354    0.000000
      4          7           0       -0.741209   -0.949083    0.000000
      5          7           0        0.665011   -1.015014    0.000000
      6          1           0        2.109407    0.571853    0.000000
      7          1           0       -0.063155    2.077077    0.000000
 ---------------------------------------------------------------------
 Rotational constants (GHZ):     10.1729295      9.9343943      5.0261235
 Standard basis: 6-31G (6D, 7F)
 There are    39 symmetry adapted cartesian basis functions of A'  symmetry.
 There are    10 symmetry adapted cartesian basis functions of A"  symmetry.
 There are    39 symmetry adapted basis functions of A'  symmetry.
 There are    10 symmetry adapted basis functions of A"  symmetry.
    49 basis functions,   118 primitive gaussians,    49 cartesian basis functions
    18 alpha electrons       18 beta electrons
       nuclear repulsion energy       163.6995029904 Hartrees.
 NAtoms=    7 NActive=    7 NUniq=    7 SFac= 1.00D+00 NAtFMM=   60 NAOKFM=F Big=F
 Integral buffers will be    131072 words long.
 Raffenetti 2 integral format.
 Two-electron integral symmetry is turned on.
 One-electron integrals computed using PRISM.
 NBasis=    49 RedAO= T EigKep=  7.29D-03  NBF=    39    10
 NBsUse=    49 1.00D-06 EigRej= -1.00D+00 NBFU=    39    10
 Lowest energy guess from the checkpoint file:  "/tmp/rdj3/g09-13608/Gau-11913.chk"
 B after Tr=     0.000000    0.000000    0.000000
         Rot=    0.999999    0.000000    0.000000   -0.001120 Ang=  -0.13 deg.
 B after Tr=     0.000000    0.000000    0.000000
         Rot=    0.999998    0.000000    0.000000    0.001824 Ang=   0.21 deg.
 Initial guess orbital symmetries:
       Occupied  (A') (A') (A') (A') (A") (A') (A') (A') (A") (A')
                 (A') (A") (A') (A') (A') (A') (A') (A')
       Virtual   (A') (A') (A') (A') (A") (A') (A') (A') (A") (A')
                 (A') (A") (A') (A') (A') (A') (A') (A') (A') (A')
                 (A') (A') (A') (A') (A") (A") (A") (A") (A") (A")
                 (A")
 Keep R1 ints in memory in symmetry-blocked form, NReq=1649580.
 Requested convergence on RMS density matrix=1.00D-08 within 128 cycles.
 Requested convergence on MAX density matrix=1.00D-06.
 Requested convergence on             energy=1.00D-06.
 No special actions if energy rises.
 Integral accuracy reduced to 1.0D-05 until final iterations.
 An orbital has undefined symmetry, so N**3 symmetry is turned off.
 Initial convergence to 1.0D-05 achieved.  Increase integral accuracy.
 SCF Done:  E(RB3LYP) =  -258.133301884     A.U. after   11 cycles
            NFock= 11  Conv=0.32D-08     -V/T= 2.0050
 Calling FoFJK, ICntrl=      2127 FMM=F ISym2X=1 I1Cent= 0 IOpClX= 0 NMat=1 NMatS=1 NMatT=0.
 ***** Axes restored to original set *****
 -------------------------------------------------------------------
 Center     Atomic                   Forces (Hartrees/Bohr)
 Number     Number              X              Y              Z
 -------------------------------------------------------------------
      1        6           0.000527275   -0.001900326    0.000000000
      2        7           0.004826949    0.001503480    0.000000000
      3        7          -0.004167314   -0.001765863    0.000000000
      4        7          -0.001442772    0.001068764    0.000000000
      5        7           0.000409329    0.000811701    0.000000000
      6        1           0.000053690   -0.000018142    0.000000000
      7        1          -0.000207157    0.000300386    0.000000000
 -------------------------------------------------------------------
 Cartesian Forces:  Max     0.004826949 RMS     0.001605356
 -----------------------------------------------------------------------------------------------
                       Internal Coordinate Forces (Hartree/Bohr or radian)
  Cent   Atom   N1       Length/X         N2         Alpha/Y        N3         Beta/Z          J
 -----------------------------------------------------------------------------------------------
         X 
         X        1   0.000000(     1)
      1  C        1   0.000602(     2)      2   0.000000(     9)
      2  N        1  -0.000058(     3)      2   0.000000(    10)      3  -0.012455(    16)     0
      3  N        1   0.003935(     4)      2   0.000000(    11)      3   0.006112(    17)     0
      4  N        1   0.001553(     5)      2   0.000000(    12)      3   0.002021(    18)     0
      5  N        1   0.000816(     6)      2   0.000000(    13)      3   0.000674(    19)     0
      6  H        3   0.000049(     7)      4  -0.000059(    14)      5   0.000000(    20)     0
      7  H        4  -0.000361(     8)      5  -0.000102(    15)      6   0.000000(    21)     0
 -----------------------------------------------------------------------------------------------
 Internal  Forces:  Max     0.012455366 RMS     0.003207894

 GradGradGradGradGradGradGradGradGradGradGradGradGradGradGradGradGradGrad
 Berny optimization.
 Search for a local minimum.
 Step number   5 out of a maximum of   22
 All quantities printed in internal units (Hartrees-Bohrs-Radians)
 Update second derivatives using D2CorN and points    1    2    3    5
 The second derivative matrix:
                          rn1       rn2       rn3       rn4       rch
           rn1          0.65447
           rn2         -0.01807   0.63349
           rn3          0.03140   0.00716   0.57430
           rn4          0.01998   0.00533   0.09923   0.63043
           rch         -0.00023  -0.00196   0.00031  -0.00168   0.37527
           rnh         -0.00040  -0.00529  -0.00324  -0.00488   0.00010
           an1          0.05218  -0.64252   0.09616  -0.06950   0.00584
           an2          0.71438  -0.28099  -0.67835   0.08082   0.00335
           an3         -0.03813   1.01158   0.02626  -0.59998  -0.00268
           an4          0.04020  -0.05915   0.61369  -0.10588  -0.00363
           ach          0.04376  -0.00180  -0.00478   0.04968  -0.00014
           anh         -0.09793   0.05133   0.01006  -0.00135   0.00020
                          rnh       an1       an2       an3       an4
           rnh          0.48718
           an1          0.01128   4.54312
           an2          0.00489  -2.67538   6.05782
           an3         -0.00652  -0.06608  -3.18633   4.48042
           an4         -0.00660  -0.14764  -0.07242  -1.15345   2.60431
           ach         -0.00037  -0.10005   0.00211  -0.00256   0.07202
           anh          0.00040   0.02278  -0.09291   0.00579   0.00046
                          ach       anh
           ach          0.31997
           anh         -0.00044   0.32143
 ITU=  0 -1  1  1  0
     Eigenvalues ---    0.00158   0.16033   0.29402   0.33958   0.37531
     Eigenvalues ---    0.41958   0.48702   0.70046   1.21007   2.97460
     Eigenvalues ---    5.08014   9.63954
 RFO step:  Lambda=-5.66740434D-05 EMin= 1.58364035D-03
 Quartic linear search produced a step of -0.01620.
 Variable       Old X    -DE/DX   Delta X   Delta X   Delta X     New X
                                 (Linear)    (Quad)   (Total)
   rn1        2.52849  -0.00006  -0.00120  -0.01170  -0.01290   2.51559
   rn2        2.77754   0.00393  -0.00056  -0.00363  -0.00419   2.77335
   rn3        2.24302   0.00155   0.00001   0.00854   0.00855   2.25156
   rn4        1.67778   0.00082   0.00120   0.01010   0.01130   1.68907
   rch        2.03031   0.00005   0.00000   0.00012   0.00012   2.03042
   rnh        1.90347  -0.00036   0.00000  -0.00060  -0.00060   1.90287
   an1        1.21412  -0.01246   0.00057   0.00298   0.00355   1.21767
   an2        2.23860   0.00611   0.00094   0.00998   0.01092   2.24953
   an3        3.25337   0.00202   0.00109   0.01065   0.01174   3.26511
   an4        4.72183   0.00067   0.00059   0.00392   0.00451   4.72634
   ach        2.18595  -0.00006   0.00006  -0.00002   0.00003   2.18598
   anh        2.09989  -0.00010  -0.00012  -0.00097  -0.00109   2.09879
         Item               Value     Threshold  Converged?
 Maximum Force            0.012455     0.000450     NO 
 RMS     Force            0.004240     0.000300     NO 
 Maximum Displacement     0.012903     0.001800     NO 
 RMS     Displacement     0.007508     0.001200     NO 
 Predicted change in Energy=-2.798243D-05
 GradGradGradGradGradGradGradGradGradGradGradGradGradGradGradGradGradGrad

 ---------------------------------------------------------------------------------------------------
                            Z-MATRIX (ANGSTROMS AND DEGREES)
   CD    Cent   Atom    N1       Length/X        N2       Alpha/Y        N3        Beta/Z          J
 ---------------------------------------------------------------------------------------------------
      1         X 
      2         X        1   1.000000(     1)
      3      1  C        1   1.000000(     2)      2   90.000(     9)
      4      2  N        1   1.331190(     3)      2   90.000(    10)      3   69.767(    16)      0
      5      3  N        1   1.467595(     4)      2   90.000(    11)      3  128.888(    17)      0
      6      4  N        1   1.191476(     5)      2   90.000(    12)      3  187.077(    18)      0
      7      5  N        1   0.893820(     6)      2   90.000(    13)      3  270.800(    19)      0
      8      6  H        3   1.074454(     7)      4  125.247(    14)      5  180.000(    20)      0
      9      7  H        4   1.006956(     8)      5  120.252(    15)      6  180.000(    21)      0
 ---------------------------------------------------------------------------------------------------
                         Z-Matrix orientation:                         
 ---------------------------------------------------------------------
 Center     Atomic      Atomic             Coordinates (Angstroms)
 Number     Number       Type             X           Y           Z
 ---------------------------------------------------------------------
      1         -1           0        0.000000    0.000000    0.000000
      2         -1           0        0.000000    0.000000    1.000000
      3          6           0        1.000000    0.000000    0.000000
      4          7           0        0.460373   -1.249050    0.000000
      5          7           0       -0.921363   -1.142334    0.000000
      6          7           0       -1.182398    0.146796    0.000000
      7          7           0        0.012473    0.893733    0.000000
      8          1           0        2.051434    0.221220    0.000000
      9          1           0        0.899192   -2.155359    0.000000
 ---------------------------------------------------------------------
                    Distance matrix (angstroms):
                    1          2          3          4          5
     1  X    0.000000
     2  X    1.000000   0.000000
     3  C    1.000000   1.414214   0.000000
     4  N    1.331190   1.664953   1.360633   0.000000
     5  N    1.467595   1.775904   2.235299   1.385851   0.000000
     6  N    1.191476   1.555511   2.187329   2.155709   1.315293
     7  N    0.893820   1.341236   1.331904   2.189094   2.240003
     8  H    2.063327   2.292885   1.074454   2.166372   3.270596
     9  H    2.335406   2.540496   2.157715   1.006956   2.083421
                    6          7          8          9
     6  N    0.000000
     7  N    1.409124   0.000000
     8  H    3.234689   2.147007   0.000000
     9  H    3.103697   3.175411   2.641172   0.000000
 Stoichiometry    CH2N4
 Framework group  CS[SG(CH2N4)]
 Deg. of freedom    11
 Full point group                 CS      NOp   2
 Largest Abelian subgroup         CS      NOp   2
 Largest concise Abelian subgroup C1      NOp   1
                         Standard orientation:                         
 ---------------------------------------------------------------------
 Center     Atomic      Atomic             Coordinates (Angstroms)
 Number     Number       Type             X           Y           Z
 ---------------------------------------------------------------------
      1          6           0        1.085525    0.251831    0.000000
      2          7           0        0.000000    1.072171    0.000000
      3          7           0       -1.149302    0.297776    0.000000
      4          7           0       -0.740485   -0.952370    0.000000
      5          7           0        0.667346   -1.012723    0.000000
      6          1           0        2.109265    0.578035    0.000000
      7          1           0       -0.065334    2.077004    0.000000
 ---------------------------------------------------------------------
 Rotational constants (GHZ):     10.1600376      9.9120400      5.0172534
 Standard basis: 6-31G (6D, 7F)
 There are    39 symmetry adapted cartesian basis functions of A'  symmetry.
 There are    10 symmetry adapted cartesian basis functions of A"  symmetry.
 There are    39 symmetry adapted basis functions of A'  symmetry.
 There are    10 symmetry adapted basis functions of A"  symmetry.
    49 basis functions,   118 primitive gaussians,    49 cartesian basis functions
    18 alpha electrons       18 beta electrons
       nuclear repulsion energy       163.5566514997 Hartrees.
 NAtoms=    7 NActive=    7 NUniq=    7 SFac= 1.00D+00 NAtFMM=   60 NAOKFM=F Big=F
 Integral buffers will be    131072 words long.
 Raffenetti 2 integral format.
 Two-electron integral symmetry is turned on.
 One-electron integrals computed using PRISM.
 NBasis=    49 RedAO= T EigKep=  7.32D-03  NBF=    39    10
 NBsUse=    49 1.00D-06 EigRej= -1.00D+00 NBFU=    39    10
 Initial guess from the checkpoint file:  "/tmp/rdj3/g09-13608/Gau-11913.chk"
[...]
     2  N   -0.027530
     3  N   -0.013136
     4  N   -0.034108
     5  N   -0.274214
 Electronic spatial extent (au):  <R**2>=            259.9889
 Charge=              0.0000 electrons
 Dipole moment (field-independent basis, Debye):
    X=              2.6999    Y=              5.1030    Z=              0.0000  Tot=              5.7732
 Quadrupole moment (field-independent basis, Debye-Ang):
   XX=            -29.7090   YY=            -27.2723   ZZ=            -28.5919
   XY=              2.0369   XZ=              0.0000   YZ=              0.0000
 Traceless Quadrupole moment (field-independent basis, Debye-Ang):
   XX=             -1.1846   YY=              1.2521   ZZ=             -0.0675
   XY=              2.0369   XZ=              0.0000   YZ=              0.0000
 Octapole moment (field-independent basis, Debye-Ang**2):
  XXX=             13.1573  YYY=             24.2404  ZZZ=              0.0000  XYY=             -0.5486
  XXY=              5.2467  XXZ=              0.0000  XZZ=             -0.5658  YZZ=              0.4570
  YYZ=              0.0000  XYZ=              0.0000
 Hexadecapole moment (field-independent basis, Debye-Ang**3):
 XXXX=           -148.5367 YYYY=           -124.3099 ZZZZ=            -25.1353 XXXY=              7.2532
 XXXZ=              0.0000 YYYX=             -0.8916 YYYZ=              0.0000 ZZZX=              0.0000
 ZZZY=              0.0000 XXYY=            -55.9290 XXZZ=            -31.2550 YYZZ=            -29.4947
 XXYZ=              0.0000 YYXZ=              0.0000 ZZXY=             -0.2087
 N-N= 1.634952776977D+02 E-N=-9.290436537645D+02  KE= 2.568185415717D+02
 Symmetry A'   KE= 2.473739558773D+02
 Symmetry A"   KE= 9.444585694407D+00
  Exact polarizability:  37.835   1.096  37.504   0.000   0.000  13.838
 Approx polarizability:  68.323  -0.150  74.360   0.000   0.000  18.088
 Calling FoFJK, ICntrl=    100127 FMM=F ISym2X=1 I1Cent= 0 IOpClX= 0 NMat=1 NMatS=1 NMatT=0.
 Full mass-weighted force constant matrix:
 Low frequencies ---   -8.0063   -0.0013   -0.0012   -0.0010    4.6898   13.3580
 Low frequencies ---  662.2157  709.6547  718.8664
 Diagonal vibrational polarizability:
        1.3522847       1.2821195       9.4590330
 Harmonic frequencies (cm**-1), IR intensities (KM/Mole), Raman scattering
 activities (A**4/AMU), depolarization ratios for plane and unpolarized
 incident light, reduced masses (AMU), force constants (mDyne/A),
 and normal coordinates:
                      1                      2                      3
                     A"                     A"                     A"
 Frequencies --    662.2157               709.6547               718.8664
 Red. masses --      4.3834                 7.1774                 1.1867
 Frc consts  --      1.1326                 2.1297                 0.3613
 IR Inten    --     24.9055                 4.3485               137.4413
  Atom  AN      X      Y      Z        X      Y      Z        X      Y      Z
     1   6     0.00   0.00  -0.26     0.00   0.00   0.19     0.00   0.00   0.02
     2   7     0.00   0.00   0.34     0.00   0.00   0.13     0.00   0.00   0.05
     3   7     0.00   0.00  -0.24     0.00   0.00  -0.30     0.00   0.00   0.07
     4   7     0.00   0.00   0.02     0.00   0.00   0.43     0.00   0.00  -0.07
     5   7     0.00   0.00   0.17     0.00   0.00  -0.39     0.00   0.00   0.00
     6   1     0.00   0.00  -0.85     0.00   0.00   0.35     0.00   0.00   0.03
     7   1     0.00   0.00  -0.11     0.00   0.00  -0.63     0.00   0.00  -0.99
                      4                      5                      6
                     A'                     A"                     A'
 Frequencies --    835.1653               879.9785               919.3570
 Red. masses --      9.1693                 1.3829                 6.1949
 Frc consts  --      3.7682                 0.6309                 3.0850
 IR Inten    --      9.0294                15.5646                18.3120
  Atom  AN      X      Y      Z        X      Y      Z        X      Y      Z
     1   6    -0.05   0.08   0.00     0.00   0.00   0.18     0.00   0.02   0.00
     2   7     0.13   0.08   0.00     0.00   0.00  -0.04     0.28   0.28   0.00
     3   7     0.02  -0.09   0.00     0.00   0.00   0.01    -0.37  -0.29   0.00
     4   7     0.47  -0.15   0.00     0.00   0.00  -0.02    -0.07   0.04   0.00
     5   7    -0.58   0.12   0.00     0.00   0.00  -0.03     0.11  -0.03   0.00
     6   1     0.14  -0.58   0.00     0.00   0.00  -0.98     0.15  -0.44   0.00
     7   1     0.06   0.07   0.00     0.00   0.00   0.01     0.54   0.31   0.00
                      7                      8                      9
                     A'                     A'                     A'
 Frequencies --   1004.4362              1034.2451              1141.6296
 Red. masses --      6.3734                 4.9239                 2.1877
 Frc consts  --      3.7885                 3.1032                 1.6799
 IR Inten    --      3.8311                12.3726                14.7756
  Atom  AN      X      Y      Z        X      Y      Z        X      Y      Z
     1   6     0.34   0.12   0.00    -0.13  -0.01   0.00     0.10  -0.12   0.00
     2   7     0.10  -0.16   0.00    -0.02   0.33   0.00    -0.14   0.02   0.00
     3   7     0.04  -0.16   0.00     0.33  -0.10   0.00    -0.03  -0.06   0.00
     4   7    -0.31  -0.10   0.00    -0.16  -0.16   0.00     0.08   0.20   0.00
     5   7    -0.12   0.35   0.00     0.01  -0.06   0.00     0.02   0.00   0.00
     6   1     0.47  -0.23   0.00     0.01  -0.49   0.00     0.29  -0.71   0.00
     7   1    -0.50  -0.21   0.00    -0.60   0.31   0.00    -0.56  -0.01   0.00
                     10                     11                     12
                     A'                     A'                     A'
 Frequencies --   1191.7008              1242.5397              1409.0186
 Red. masses --      4.1970                 2.6583                 2.8914
 Frc consts  --      3.5118                 2.4181                 3.3821
 IR Inten    --     12.4323                 2.2510                 4.2350
  Atom  AN      X      Y      Z        X      Y      Z        X      Y      Z
     1   6     0.10  -0.06   0.00     0.24   0.07   0.00    -0.13   0.29   0.00
     2   7    -0.10   0.07   0.00     0.00   0.10   0.00     0.13  -0.14   0.00
     3   7    -0.16   0.28   0.00    -0.09   0.04   0.00    -0.03   0.07   0.00
     4   7     0.03  -0.32   0.00     0.01  -0.04   0.00    -0.01   0.01   0.00
     5   7     0.10   0.07   0.00    -0.08  -0.22   0.00     0.05  -0.13   0.00
     6   1     0.34  -0.77   0.00     0.09   0.65   0.00     0.16  -0.68   0.00
     7   1     0.18   0.11   0.00    -0.65   0.08   0.00    -0.55  -0.21   0.00
                     13                     14                     15
                     A'                     A'                     A'
 Frequencies --   1482.7238              3355.1509              3703.1410
 Red. masses --      2.1308                 1.1018                 1.0844
 Frc consts  --      2.7600                 7.3076                 8.7618
 IR Inten    --     36.9886                 4.1938                96.5136
  Atom  AN      X      Y      Z        X      Y      Z        X      Y      Z
     1   6    -0.11  -0.18   0.00     0.09   0.03   0.00     0.00   0.00   0.00
     2   7     0.16   0.00   0.00     0.00   0.00   0.00    -0.01   0.08   0.00
     3   7    -0.07   0.06   0.00     0.00   0.00   0.00     0.00   0.00   0.00
     4   7     0.04  -0.03   0.00     0.00   0.00   0.00     0.00   0.00   0.00
     5   7     0.04   0.11   0.00     0.00   0.00   0.00     0.00   0.00   0.00
     6   1    -0.28   0.27   0.00    -0.95  -0.30   0.00    -0.02   0.00   0.00
     7   1    -0.87  -0.07   0.00     0.01   0.02   0.00     0.07  -0.99   0.00

 -------------------
 - Thermochemistry -
 -------------------
 Temperature   298.150 Kelvin.  Pressure   1.00000 Atm.
 Atom     1 has atomic number  6 and mass  12.00000
 Atom     2 has atomic number  7 and mass  14.00307
 Atom     3 has atomic number  7 and mass  14.00307
 Atom     4 has atomic number  7 and mass  14.00307
 Atom     5 has atomic number  7 and mass  14.00307
 Atom     6 has atomic number  1 and mass   1.00783
 Atom     7 has atomic number  1 and mass   1.00783
 Molecular mass:    70.02795 amu.
 Principal axes and moments of inertia in atomic units:
                           1         2         3
     Eigenvalues --   177.78767 182.19662 359.98429
           X            0.99723   0.07441   0.00000
           Y           -0.07441   0.99723   0.00000
           Z            0.00000   0.00000   1.00000
 This molecule is an asymmetric top.
 Rotational symmetry number  1.
 Rotational temperatures (Kelvin)      0.48718     0.47539     0.24060
 Rotational constants (GHZ):          10.15110     9.90546     5.01339
 Zero-point vibrational energy     121360.1 (Joules/Mol)
                                   29.00576 (Kcal/Mol)
 Vibrational temperatures:    952.78  1021.03  1034.29  1201.62  1266.09
          (Kelvin)           1322.75  1445.16  1488.05  1642.55  1714.59
                             1787.74  2027.26  2133.31  4827.31  5327.99
 
 Zero-point correction=                           0.046224 (Hartree/Particle)
 Thermal correction to Energy=                    0.049710
 Thermal correction to Enthalpy=                  0.050654
 Thermal correction to Gibbs Free Energy=         0.020077
 Sum of electronic and zero-point Energies=           -258.087124
 Sum of electronic and thermal Energies=              -258.083638
 Sum of electronic and thermal Enthalpies=            -258.082693
 Sum of electronic and thermal Free Energies=         -258.113270
 
                     E (Thermal)             CV                S
                      KCal/Mol        Cal/Mol-Kelvin    Cal/Mol-Kelvin
 Total                   31.193             11.597             64.354
 Electronic               0.000              0.000              0.000
 Translational            0.889              2.981             38.656
 Rotational               0.889              2.981             23.971
 Vibrational             29.416              5.635              1.728
                       Q            Log10(Q)             Ln(Q)
 Total Bot       0.582318D-09         -9.234840        -21.264005
 Total V=0       0.106293D+13         12.026503         27.692047
 Vib (Bot)       0.654016D-21        -21.184411        -48.778910
 Vib (V=0)       0.119380D+01          0.076932          0.177142
 Electronic      0.100000D+01          0.000000          0.000000
 Translational   0.230336D+08          7.362362         16.952466
 Rotational      0.386553D+05          4.587209         10.562439
 ***** Axes restored to original set *****
 -------------------------------------------------------------------
 Center     Atomic                   Forces (Hartrees/Bohr)
 Number     Number              X              Y              Z
 -------------------------------------------------------------------
      1        6           0.000014984    0.000074601    0.000000000
      2        7          -0.000055405   -0.000035853    0.000000000
      3        7           0.000072563    0.000104782    0.000000000
      4        7          -0.000009392   -0.000013335    0.000000000
      5        7          -0.000040316   -0.000118381    0.000000000
      6        1           0.000006690   -0.000021488    0.000000000
      7        1           0.000010876    0.000009674    0.000000000
 -------------------------------------------------------------------
 Cartesian Forces:  Max     0.000118381 RMS     0.000045258
 -----------------------------------------------------------------------------------------------
                       Internal Coordinate Forces (Hartree/Bohr or radian)
  Cent   Atom   N1       Length/X         N2         Alpha/Y        N3         Beta/Z          J
 -----------------------------------------------------------------------------------------------
         X 
         X        1   0.000000(     1)
      1  C        1   0.000038(     2)      2   0.000000(     9)
      2  N        1  -0.000012(     3)      2   0.000000(    10)      3   0.000147(    16)     0
      3  N        1  -0.000119(     4)      2   0.000000(    11)      3   0.000020(    17)     0
      4  N        1   0.000007(     5)      2   0.000000(    12)      3  -0.000033(    18)     0
      5  N        1  -0.000120(     6)      2   0.000000(    13)      3  -0.000063(    19)     0
      6  H        3   0.000003(     7)      4  -0.000045(    14)      5   0.000000(    20)     0
      7  H        4  -0.000004(     8)      5   0.000026(    15)      6   0.000000(    21)     0
 -----------------------------------------------------------------------------------------------
 Internal  Forces:  Max     0.000146655 RMS     0.000053324

 GradGradGradGradGradGradGradGradGradGradGradGradGradGradGradGradGradGrad
 Berny optimization.
 Search for a local minimum.
 Step number   1 out of a maximum of    2
 All quantities printed in internal units (Hartrees-Bohrs-Radians)
 Second derivative matrix not updated -- analytic derivatives used.
 The second derivative matrix:
                          rn1       rn2       rn3       rn4       rch
           rn1          0.56310
           rn2         -0.07066   0.51007
           rn3          0.06783  -0.03299   0.46368
           rn4          0.10098   0.07988  -0.03947   0.49213
           rch         -0.00267  -0.00309  -0.00085  -0.00372   0.39381
           rnh          0.00677  -0.00944  -0.00188  -0.00160   0.00065
           an1          0.15288  -0.24124  -0.24531   0.14286   0.01183
           an2          0.18515  -0.15226  -0.28877  -0.17469   0.00138
           an3          0.22777   0.39167   0.23892  -0.15808  -0.00080
           an4         -0.11180   0.15511   0.17733  -0.19537  -0.01170
           ach          0.03925   0.01043  -0.01177   0.02480   0.00218
           anh         -0.05825   0.02071   0.02533  -0.01910  -0.00114
                          rnh       an1       an2       an3       an4
           rnh          0.48611
           an1         -0.00653   2.24936
           an2          0.00970  -0.76393   2.49390
           an3         -0.00303  -0.32266  -1.27594   1.87283
           an4         -0.00157  -0.25901  -0.18776  -0.14568   1.11248
           ach          0.00072   0.01193  -0.02796  -0.00731   0.09022
           anh         -0.00055  -0.04464  -0.01243   0.00704  -0.00779
                          ach       anh
           ach          0.21716
           anh          0.00060   0.22234
 ITU=  0
     Eigenvalues ---    0.00012   0.16153   0.21574   0.26632   0.39351
     Eigenvalues ---    0.48565   0.57437   0.58287   0.74807   1.35483
     Eigenvalues ---    2.61343   3.68054
 Angle between quadratic step and forces=  88.57 degrees.
 Linear search not attempted -- first point.
 Variable       Old X    -DE/DX   Delta X   Delta X   Delta X     New X
                                 (Linear)    (Quad)   (Total)
   rn1        2.47850  -0.00001   0.00000   0.01394   0.01394   2.49244
   rn2        2.74360  -0.00012   0.00000   0.01107   0.01107   2.75467
   rn3        2.25412   0.00001   0.00000  -0.00237  -0.00237   2.25175
   rn4        1.73300  -0.00012   0.00000  -0.01502  -0.01502   1.71798
   rch        2.03057   0.00000   0.00000   0.00000   0.00000   2.03057
   rnh        1.90279   0.00000   0.00000  -0.00001  -0.00001   1.90278
   an1        1.23106   0.00015   0.00000  -0.00577  -0.00577   1.22530
   an2        2.28072   0.00002   0.00000  -0.01133  -0.01133   2.26939
   an3        3.30461  -0.00003   0.00000  -0.01429  -0.01429   3.29032
   an4        4.74796  -0.00006   0.00000  -0.00757  -0.00757   4.74039
   ach        2.18646  -0.00005   0.00000  -0.00015  -0.00015   2.18631
   anh        2.09762   0.00003   0.00000   0.00012   0.00012   2.09774
         Item               Value     Threshold  Converged?
 Maximum Force            0.000147     0.000450     YES
 RMS     Force            0.000070     0.000300     YES
 Maximum Displacement     0.015021     0.001800     NO 
 RMS     Displacement     0.008996     0.001200     NO 
 Predicted change in Energy=-9.401686D-08
 GradGradGradGradGradGradGradGradGradGradGradGradGradGradGradGradGradGrad

 1\1\GINC-N242\Freq\RB3LYP\6-31G\C1H2N4\RDJ3\25-Nov-2013\1\\#N Geom=All
 Check Guess=TCheck SCRF=Check GenChk RB3LYP/6-31G Freq\\1H-tetrazole C
 H2N4 casno=288948 state=1 config=1 method=8 basis=9\\0,1\X\X,1,1.\C,1,
 1.,2,90.\N,1,rn1,2,90.,3,an1,0\N,1,rn2,2,90.,3,an2,0\N,1,rn3,2,90.,3,a
 n3,0\N,1,rn4,2,90.,3,an4,0\H,3,rch,4,ach,5,180.,0\H,4,rnh,5,anh,6,180.
 ,0\\rn1=1.31156702\rn2=1.45185102\rn3=1.19283088\rn4=0.9170641\rch=1.0
 745318\rnh=1.00691425\an1=70.53473549\an2=130.67573098\an3=189.3401358
 5\an4=272.03831301\ach=125.27487412\anh=120.18498911\\Version=EM64L-G0
 9RevD.01\State=1-A'\HF=-258.1333475\RMSD=2.188e-09\RMSF=4.526e-05\Zero
 Point=0.0462236\Thermal=0.0497099\Dipole=1.8900904,-1.2595842,0.\Dipol
 eDeriv=0.1601005,0.036937,0.,-0.1336384,0.3806061,0.,0.,0.,0.0966804,-
 0.3558781,0.2835738,0.,0.2057011,-0.3885755,0.,0.,0.,-0.2525051,0.2088
 878,-0.2888949,0.,-0.2901769,-0.1700169,0.,0.,0.,-0.0782775,0.1183785,
 0.0799936,0.,0.1739135,-0.0491906,0.,0.,0.,-0.1715109,-0.4367528,-0.09
 07161,0.,0.0519582,-0.1881852,0.,0.,0.,-0.1977053,0.0826777,-0.0009366
 ,0.,0.0128014,0.136647,0.,0.,0.,0.1902506,0.2225864,-0.0199569,0.,-0.0
 20559,0.2787151,0.,0.,0.,0.4130678\Polar=38.6775847,-0.4606774,36.6610
 916,0.,0.,13.8376386\PG=CS [SG(C1H2N4)]\NImag=0\\0.95836163,0.04791514
 ,0.56749596,0.,0.,0.14544075,-0.15899548,-0.05275905,0.,0.51239719,-0.
 08553362,-0.26567566,0.,-0.15015855,0.97241107,0.,0.,-0.06921109,0.,0.
 ,0.11059408,-0.08865443,-0.09367632,0.,-0.14278290,-0.03806206,0.,0.35
 197178,-0.00717216,-0.03108342,0.,-0.00151174,-0.10219839,0.,0.0786149
 0,0.50679256,0.,0.,0.02197102,0.,0.,-0.06971768,0.,0.,0.10725411,-0.12
 401208,0.05897010,0.,-0.09208278,0.03612425,0.,-0.09388065,-0.00948670
 ,0.,0.42722591,-0.02816602,0.02302837,0.,0.10455613,-0.08665200,0.,0.0
 5936016,-0.26706747,0.,-0.11563262,0.40503770,0.,0.,0.01803881,0.,0.,0
 .02446857,0.,0.,-0.08899803,0.,0.,0.11433541,-0.23235014,0.11855973,0.
 ,0.01890578,0.08755597,0.,-0.02869624,-0.09915277,0.,-0.10597354,-0.02
 286772,0.,0.36262621,0.11515420,-0.22338802,0.,-0.01966822,-0.10363059
 ,0.,-0.00346580,-0.10586269,0.,0.03135777,-0.07484005,0.,-0.10814568,0
 .49999301,0.,0.,-0.07824884,0.,0.,0.02177034,0.,0.,0.03244327,0.,0.,-0
 .08378130,0.,0.,0.10467474,-0.37132892,-0.06378231,0.,0.00062978,0.002
 80965,0.,0.00147415,0.00351829,0.,-0.00025711,-0.00000812,0.,-0.011639
 83,-0.00553180,0.,0.38144657,-0.06008277,-0.06488765,0.,-0.03449523,-0
 .00110168,0.,0.00076015,-0.00650972,0.,0.00550839,-0.00256423,0.,0.024
 30709,0.01044229,0.,0.06377114,0.06503187,0.,0.,-0.03184577,0.,0.,-0.0
 0134427,0.,0.,0.00552065,0.,0.,0.00901064,0.,0.,-0.00437766,0.,0.,0.02
 391090,0.01697942,-0.01522730,0.,-0.13807159,0.14726435,0.,0.00056829,
 0.03519018,0.,-0.01101975,0.00275819,0.,-0.00287224,-0.00970047,0.,-0.
 00032465,0.00023123,0.,0.13474053,0.01788523,-0.00548958,0.,0.15403666
 ,-0.41315274,0.,-0.00353104,0.00592913,0.,-0.00684119,0.00305767,0.,-0
 .00025662,-0.00271395,0.,-0.00077685,-0.00041088,0.,-0.16051619,0.4127
 8035,0.,0.,-0.00614488,0.,0.,-0.01655994,0.,0.,-0.00847334,0.,0.,0.006
 92590,0.,0.,0.00751946,0.,0.,-0.00087450,0.,0.,0.01760729\\-0.00001498
 ,-0.00007460,0.,0.00005540,0.00003585,0.,-0.00007256,-0.00010478,0.,0.
 00000939,0.00001333,0.,0.00004032,0.00011838,0.,-0.00000669,0.00002149
 ,0.,-0.00001088,-0.00000967,0.\\\@


 A SLIP OF THE FOOT YOU MAY SOON RECOVER, BUT A SLIP OF THE TONGUE
 YOU MAY NEVER GET OVER. -- BEN FRANKLIN
 Job cpu time:       0 days  0 hours  0 minutes 28.4 seconds.
 File lengths (MBytes):  RWF=      5 Int=      0 D2E=      0 Chk=      1 Scr=      1
 Normal termination of Gaussian 09 at Mon Nov 25 17:53:34 2013.
